INSANE! Membrane UpperLeaflet>loPI:POPI:DPPI:PYPI:ERGO=180.0:5.0:3.0:2.0:10.0 LowerLeaflet>PSPI:POPI:POPS:YOPS:POPE:YOPE:POPC:YOPC:ERGO=6.0:14.0:21.0:9.0:9.0:21.0:12.0:48.0:60.0
49606
    1loPI    C1    1   4.971  14.606  10.763  0.0105 -0.1019 -0.2119
    1loPI    C2    2   4.676  14.632  11.032  0.0370  0.1572 -0.2059
    1loPI    C3    3   4.971  14.366  11.083 -0.0419  0.0961 -0.0620
    1loPI   PO4    4   4.876  14.483  10.508 -0.4154 -0.3922  0.2231
    1loPI   GL1    5   4.877  14.404  10.035  0.1434 -0.0783 -0.3607
    1loPI   GL2    6   4.696  14.112   9.890 -0.0927  0.2049 -0.2277
    1loPI   C1A    7   4.653  14.560   9.657  0.1335  0.0613  0.2286
    1loPI   C2A    8   4.680  14.662   9.265  0.2579  0.2295 -0.1869
    1loPI   C3A    9   4.759  14.574   8.794 -0.0703  0.1651  0.2572
    1loPI   C4A   10   4.751  14.584   8.353  0.0879 -0.2324  0.0370
    1loPI   C5A   11   4.778  14.571   7.954  0.0487 -0.1770 -0.0578
    1loPI   C6A   12   4.955  14.885   7.624  0.3032  0.0807 -0.0753
    1loPI   C1B   13   4.795  14.002   9.476  0.1306  0.0961  0.1412
    1loPI   C2B   14   4.793  14.100   8.921 -0.2064  0.2338  0.0016
    1loPI   C3B   15   4.875  14.115   8.581  0.3284  0.3079  0.0928
    1loPI   C4B   16   4.860  14.089   8.139  0.0840  0.0247  0.0083
    2loPI    C1   17   0.460   1.222   9.911  0.6276 -0.1094 -0.0469
    2loPI    C2   18   0.560   1.077  10.270 -0.1050 -0.1164  0.1693
    2loPI    C3   19   0.274   1.355  10.239  0.0286 -0.0307 -0.4046
    2loPI   PO4   20   0.446   1.012   9.725 -0.2831 -0.1076  0.0903
    2loPI   GL1   21   0.326   1.050   9.413  0.0700 -0.4288  0.0491
    2loPI   GL2   22   0.174   1.335   9.251 -0.3348  0.2841 -0.2003
    2loPI   C1A   23   0.090   0.825   9.039 -0.0912 -0.1298 -0.1459
    2loPI   C2A   24   0.269   0.630   8.614  0.2636  0.1944  0.1404
    2loPI   C3A   25   0.268   0.597   8.081 -0.2855  0.0237  0.2214
    2loPI   C4A   26   0.513   0.683   7.656 -0.0095  0.0886  0.2094
    2loPI   C5A   27   0.390   0.960   7.267  0.1264  0.0330  0.0178
    2loPI   C6A   28   0.253   1.496   7.208 -0.1236 -0.0048 -0.0004
    2loPI   C1B   29   0.213   1.263   8.817  0.1093  0.1625  0.0131
    2loPI   C2B   30   0.269   1.055   8.382 -0.2697  0.3215  0.0667
    2loPI   C3B   31  -0.037   0.963   8.047 -0.0347  0.0226 -0.0302
    2loPI   C4B   32  -0.004   0.889   7.617  0.0047  0.0886  0.1078
    3loPI    C1   33  11.155  17.858  10.434 -0.1489  0.1530  0.0272
    3loPI    C2   34  10.789  18.011  10.383 -0.3270 -0.3637 -0.3318
    3loPI    C3   35  10.835  17.663  10.573  0.0368 -0.0578  0.1656
    3loPI   PO4   36  11.213  17.873  10.230  0.2001 -0.1134  0.0468
    3loPI   GL1   37  10.984  17.787   9.921  0.0578 -0.2451 -0.1025
    3loPI   GL2   38  10.714  17.881   9.729 -0.0844 -0.2104  0.3188
    3loPI   C1A   39  11.221  17.686   9.507  0.0899 -0.1702  0.0625
    3loPI   C2A   40  11.248  17.680   9.043 -0.3190  0.0740  0.0461
    3loPI   C3A   41  11.119  17.733   8.646  0.2326 -0.2436 -0.1640
    3loPI   C4A   42  10.963  17.848   8.263 -0.1014 -0.0310 -0.1157
    3loPI   C5A   43  10.784  17.626   7.898 -0.0036  0.2520  0.1632
    3loPI   C6A   44  10.431  17.385   7.755 -0.2623 -0.1363 -0.0995
    3loPI   C1B   45  10.488  17.817   9.319  0.1746  0.0003 -0.0309
    3loPI   C2B   46  10.513  17.954   9.037 -0.1296  0.0408  0.3843
    3loPI   C3B   47  10.498  17.881   8.606  0.0253  0.2344  0.3857
    3loPI   C4B   48  10.439  17.926   8.151 -0.0309 -0.0461  0.1368
    4loPI    C1   49  18.134   1.826  10.034 -0.1302  0.0747 -0.1492
    4loPI    C2   50  17.990   2.115  10.271 -0.1471  0.0025 -0.0710
    4loPI    C3   51  17.854   1.740  10.307 -0.1775 -0.0015 -0.2213
    4loPI   PO4   52  18.224   1.860   9.704 -0.1926  0.0417 -0.1346
    4loPI   GL1   53  18.526   1.822   9.364  0.0212 -0.1558 -0.1365
    4loPI   GL2   54  18.786   1.761   9.228  0.1227 -0.0058  0.1642
    4loPI   C1A   55  18.270   1.822   8.935  0.2298 -0.1369 -0.1777
    4loPI   C2A   56  18.269   1.850   8.481  0.0326  0.0433  0.3929
    4loPI   C3A   57  18.338   1.894   8.116  0.0367  0.1011 -0.1717
    4loPI   C4A   58  18.386   2.008   7.655 -0.1281  0.0849 -0.3881
    4loPI   C5A   59  18.551   2.335   7.450 -0.0636  0.1665 -0.2896
    4loPI   C6A   60  18.635   2.419   7.026 -0.1212 -0.1745 -0.1817
    4loPI   C1B   61  18.994   1.757   8.918 -0.1790  0.3698 -0.0254
    4loPI   C2B   62  19.086   1.847   8.606 -0.0223 -0.0420 -0.0479
    4loPI   C3B   63  19.138   1.866   8.109 -0.2022 -0.1311  0.1977
    4loPI   C4B   64  18.964   1.817   7.675 -0.1317 -0.3015 -0.0036
    5loPI    C1   65   1.407  18.191   9.969 -0.3431  0.3308  0.0628
    5loPI    C2   66   1.448  18.238  10.364  0.0052 -0.1784  0.0962
    5loPI    C3   67   1.682  18.443  10.113  0.1652 -0.2628  0.1747
    5loPI   PO4   68   1.308  17.885  10.024  0.1514  0.2661  0.4337
    5loPI   GL1   69   1.252  17.800   9.548 -0.0415 -0.2020  0.1850
    5loPI   GL2   70   1.340  18.108   9.496  0.2247  0.1189 -0.2179
    5loPI   C1A   71   1.056  17.742   9.202 -0.2265 -0.1068 -0.1586
    5loPI   C2A   72   1.102  17.886   8.755  0.1284 -0.1416 -0.0414
    5loPI   C3A   73   1.160  17.740   8.298  0.2750  0.1178 -0.0972
    5loPI   C4A   74   1.306  17.789   7.836  0.2867 -0.1061 -0.3119
    5loPI   C5A   75   1.443  17.805   7.356  0.1955 -0.0092 -0.2738
    5loPI   C6A   76   1.338  17.780   6.916 -0.0802 -0.0508  0.0225
    5loPI   C1B   77   1.415  18.154   9.078  0.1166 -0.1306 -0.0092
    5loPI   C2B   78   1.499  18.202   8.614  0.2025  0.1795 -0.2321
    5loPI   C3B   79   1.524  18.178   8.236  0.2222  0.2214  0.0620
    5loPI   C4B   80   1.701  18.144   7.848  0.1593  0.1556  0.4304
    6loPI    C1   81   6.581  14.609  10.551 -0.0439  0.0840  0.0928
    6loPI    C2   82   6.911  14.637  10.776  0.0673 -0.0621 -0.0503
    6loPI    C3   83   6.585  14.456  10.921  0.0465  0.0888  0.0940
    6loPI   PO4   84   6.717  14.554  10.331 -0.1690 -0.1552 -0.0479
    6loPI   GL1   85   6.795  14.408   9.931  0.1261  0.0372 -0.1855
    6loPI   GL2   86   6.577  14.504   9.865 -0.1498 -0.1980 -0.4551
    6loPI   C1A   87   7.057  14.728   9.628  0.1454  0.1176 -0.1086
    6loPI   C2A   88   7.081  14.743   9.189  0.0417  0.3799 -0.2402
    6loPI   C3A   89   7.081  14.660   8.796  0.1462  0.1274 -0.0277
    6loPI   C4A   90   7.020  14.771   8.413  0.0191 -0.0602  0.2147
    6loPI   C5A   91   7.019  14.706   7.954  0.1014  0.2440  0.0013
    6loPI   C6A   92   6.802  14.387   7.645 -0.1443  0.3107 -0.2641
    6loPI   C1B   93   6.632  14.353   9.425  0.0380  0.2838 -0.2012
    6loPI   C2B   94   6.714  14.402   8.981 -0.1977 -0.4277  0.2357
    6loPI   C3B   95   6.628  14.477   8.618 -0.1068 -0.1308 -0.2314
    6loPI   C4B   96   6.612  14.536   8.200 -0.1839  0.0299 -0.2445
    7loPI    C1   97   3.518   0.778  10.390  0.1896 -0.0032  0.2974
    7loPI    C2   98   3.215   1.040  10.399  0.1421 -0.0457  0.0160
    7loPI    C3   99   3.176   0.683  10.576 -0.0203 -0.0997 -0.1264
    7loPI   PO4  100   3.531   0.665  10.041 -0.0556 -0.0390 -0.0556
    7loPI   GL1  101   3.657   0.472   9.667 -0.1088  0.1721 -0.1673
    7loPI   GL2  102   3.589   0.843   9.523  0.0541  0.2847 -0.0073
    7loPI   C1A  103   3.693   0.377   9.279 -0.1573 -0.2241  0.4071
    7loPI   C2A  104   3.787   0.449   8.836  0.0601 -0.1776  0.0590
    7loPI   C3A  105   3.701   0.492   8.420 -0.0746  0.2358 -0.0755
    7loPI   C4A  106   3.752   0.493   8.076 -0.0186 -0.0533 -0.0759
    7loPI   C5A  107   3.737   0.432   7.651 -0.2243  0.1432 -0.0313
    7loPI   C6A  108   3.580  -0.010   7.495 -0.1375 -0.1202 -0.0819
    7loPI   C1B  109   3.655   0.838   9.090  0.4066  0.0644  0.3541
    7loPI   C2B  110   3.642   0.923   8.636 -0.0224 -0.0422  0.2180
    7loPI   C3B  111   3.647   1.011   8.245 -0.2295  0.3527 -0.0975
    7loPI   C4B  112   3.404   0.853   7.871 -0.1175  0.1598 -0.0480
    8loPI    C1  113   3.337   1.756  10.275 -0.1651 -0.0868 -0.1032
    8loPI    C2  114   2.963   1.897  10.306 -0.0915  0.0896 -0.0011
    8loPI    C3  115   3.243   2.011  10.569  0.0694  0.0711 -0.1620
    8loPI   PO4  116   3.219   1.523  10.096  0.0198  0.2129 -0.1807
    8loPI   GL1  117   3.158   1.442   9.613 -0.0047 -0.1971 -0.3670
    8loPI   GL2  118   3.495   1.405   9.502 -0.1669 -0.1907 -0.5279
    8loPI   C1A  119   2.964   1.590   9.255  0.1803  0.2216 -0.3851
    8loPI   C2A  120   2.904   1.688   8.824  0.0414 -0.0343  0.1089
    8loPI   C3A  121   3.064   1.606   8.448 -0.1593  0.1293 -0.4599
    8loPI   C4A  122   3.102   1.645   7.881 -0.0480 -0.2839  0.1638
    8loPI   C5A  123   3.234   1.527   7.449  0.1361  0.0967  0.0871
    8loPI   C6A  124   3.568   1.415   7.257 -0.2152 -0.1321  0.0491
    8loPI   C1B  125   3.532   1.352   9.035  0.0179  0.1369 -0.0349
    8loPI   C2B  126   3.517   1.496   8.598  0.0306 -0.0138 -0.2133
    8loPI   C3B  127   3.488   1.462   8.164  0.1173 -0.2154 -0.0097
    8loPI   C4B  128   3.687   1.284   7.748  0.1160  0.2246  0.0398
    9loPI    C1  129  11.353   5.204  10.800 -0.0808 -0.1981 -0.0099
    9loPI    C2  130  11.131   5.481  10.985 -0.1873 -0.0260 -0.3866
    9loPI    C3  131  11.514   5.432  11.087 -0.2644  0.0113 -0.0702
    9loPI   PO4  132  11.245   4.976  10.770  0.4395  0.1741 -0.3324
    9loPI   GL1  133  11.106   4.888  10.332 -0.1434 -0.0768 -0.0703
    9loPI   GL2  134  10.934   5.076  10.108  0.0431  0.1314  0.2379
    9loPI   C1A  135  10.832   4.608   9.998  0.1966 -0.0078 -0.1581
    9loPI   C2A  136  10.821   4.590   9.565  0.2865  0.1689 -0.2905
    9loPI   C3A  137  10.675   4.599   9.204  0.1380 -0.0596 -0.1010
    9loPI   C4A  138  10.765   4.709   8.752  0.0663 -0.1473 -0.1250
    9loPI   C5A  139  10.756   4.695   8.322  0.0088  0.0883 -0.0942
    9loPI   C6A  140  11.096   4.696   7.950  0.1234 -0.1863 -0.0416
    9loPI   C1B  141  10.691   5.051   9.764 -0.0520 -0.1501 -0.0447
    9loPI   C2B  142  10.560   5.101   9.414 -0.1863 -0.2429  0.3354
    9loPI   C3B  143  10.625   5.150   8.950  0.2650  0.0028  0.0742
    9loPI   C4B  144  10.685   5.167   8.432 -0.2999 -0.2961 -0.0259
   10loPI    C1  145  10.698  18.408  10.629  0.0869  0.2539 -0.0915
   10loPI    C2  146  10.678  18.403  11.028  0.0011  0.1084 -0.0968
   10loPI    C3  147  10.943  18.171  10.838 -0.1930 -0.0838 -0.1363
   10loPI   PO4  148  10.730  18.706  10.528  0.0990  0.0425  0.2196
   10loPI   GL1  149  10.752  18.768  10.072  0.1874  0.0447 -0.0307
   10loPI   GL2  150  10.521  19.004  10.000  0.0839  0.1720  0.0928
   10loPI   C1A  151  10.948  18.751   9.683 -0.2537  0.0448  0.2137
   10loPI   C2A  152  10.916  18.764   9.324 -0.1377  0.0292 -0.0899
   10loPI   C3A  153  10.770  18.640   8.804  0.3083 -0.2217  0.2371
   10loPI   C4A  154  11.016  18.759   8.418  0.0951  0.2325  0.0763
   10loPI   C5A  155  10.945  18.767   7.887 -0.2105 -0.3738  0.0804
   10loPI   C6A  156  10.949  18.815   7.402 -0.0467 -0.1461 -0.2464
   10loPI   C1B  157  10.400  18.916   9.545 -0.3628  0.0122  0.1677
   10loPI   C2B  158  10.410  18.955   9.024  0.1902  0.3158  0.2125
   10loPI   C3B  159  10.276  18.865   8.572 -0.1853  0.3936  0.0110
   10loPI   C4B  160  10.447  18.807   8.146  0.1580  0.1848  0.1834
   11loPI    C1  161   7.716   1.834  10.353 -0.0392  0.0644  0.0058
   11loPI    C2  162   7.390   2.061  10.310  0.1747  0.4102  0.1662
   11loPI    C3  163   7.467   1.886  10.661 -0.0160  0.0404  0.0287
   11loPI   PO4  164   7.922   1.990  10.253  0.1087 -0.0176 -0.0523
   11loPI   GL1  165   8.039   2.250  10.012 -0.2710 -0.2566  0.0835
   11loPI   GL2  166   7.742   2.321   9.940 -0.2389  0.0450 -0.0599
   11loPI   C1A  167   8.084   2.190   9.549  0.5736 -0.0813  0.1949
   11loPI   C2A  168   8.125   2.286   9.102 -0.0037 -0.0820  0.2377
   11loPI   C3A  169   7.978   2.303   8.651  0.2414  0.0825  0.0410
   11loPI   C4A  170   7.926   2.266   8.186 -0.2193 -0.0974  0.3524
   11loPI   C5A  171   8.314   2.025   8.027 -0.0613  0.3620 -0.0485
   11loPI   C6A  172   8.640   1.813   8.026  0.0558 -0.0851 -0.0705
   11loPI   C1B  173   7.983   2.626   9.663  0.0642 -0.2276 -0.2434
   11loPI   C2B  174   8.056   2.707   9.386  0.1320  0.2805  0.3550
   11loPI   C3B  175   7.937   2.752   8.944  0.3335 -0.2049  0.0249
   11loPI   C4B  176   7.848   2.782   8.494  0.2633 -0.0139  0.2047
   12loPI    C1  177  14.649  16.817   9.736  0.0966  0.2646 -0.0136
   12loPI    C2  178  14.485  16.990  10.057 -0.0071 -0.1428  0.1604
   12loPI    C3  179  14.858  16.845  10.076  0.1044  0.1151 -0.0051
   12loPI   PO4  180  14.506  16.825   9.562  0.0981 -0.5454 -0.0720
   12loPI   GL1  181  14.607  16.993   9.086  0.3927  0.1274  0.2785
   12loPI   GL2  182  14.548  16.632   9.030  0.0483 -0.2547 -0.0342
   12loPI   C1A  183  14.584  17.246   8.723 -0.1460 -0.0558 -0.0023
   12loPI   C2A  184  14.437  17.136   8.288 -0.1151 -0.3337 -0.0614
   12loPI   C3A  185  14.614  17.345   7.945  0.3805  0.0907 -0.0279
   12loPI   C4A  186  14.879  17.397   7.614  0.1803  0.0811  0.0053
   12loPI   C5A  187  15.152  17.525   7.282  0.2435  0.2226 -0.3208
   12loPI   C6A  188  15.242  17.729   6.886 -0.0061 -0.2664  0.0537
   12loPI   C1B  189  14.502  16.660   8.646 -0.2255  0.0280  0.1250
   12loPI   C2B  190  14.558  16.573   8.144 -0.0745 -0.2001 -0.1735
   12loPI   C3B  191  14.402  16.312   7.666  0.4074  0.1091  0.1367
   12loPI   C4B  192  14.621  16.097   7.403 -0.2354  0.0974 -0.0075
   13loPI    C1  193  16.617  18.223   9.896 -0.1533 -0.1175  0.0169
   13loPI    C2  194  16.831  18.486  10.109 -0.0091  0.0281 -0.3023
   13loPI    C3  195  16.460  18.578   9.991 -0.0688 -0.0309 -0.1618
   13loPI   PO4  196  16.733  18.162   9.681  0.0274  0.1213 -0.0021
   13loPI   GL1  197  16.949  18.165   9.184 -0.1635  0.0398  0.2134
   13loPI   GL2  198  16.594  18.341   9.200 -0.3572 -0.1039  0.2850
   13loPI   C1A  199  17.058  18.089   8.784 -0.1258 -0.2116 -0.0058
   13loPI   C2A  200  16.992  18.122   8.329  0.0846 -0.0504  0.1765
   13loPI   C3A  201  16.932  18.288   8.018  0.1176  0.1119 -0.2972
   13loPI   C4A  202  17.210  18.500   7.806 -0.2376  0.0445 -0.0012
   13loPI   C5A  203  17.585  18.330   7.515 -0.0992 -0.0870 -0.0253
   13loPI   C6A  204  17.675  17.948   7.213  0.0247  0.3104  0.1278
   13loPI   C1B  205  16.567  18.219   8.799 -0.2305 -0.0397 -0.0232
   13loPI   C2B  206  16.456  18.233   8.367 -0.0328 -0.2674 -0.0054
   13loPI   C3B  207  16.457  18.051   7.977 -0.0890 -0.1878 -0.1455
   13loPI   C4B  208  16.655  18.012   7.629 -0.2033  0.4691  0.0156
   14loPI    C1  209   9.466  15.411  10.716  0.2404 -0.0813 -0.1510
   14loPI    C2  210   9.691  15.739  10.760  0.2849 -0.1120 -0.1474
   14loPI    C3  211   9.683  15.462  11.048  0.0475  0.0064 -0.0364
   14loPI   PO4  212   9.509  15.336  10.454  0.1435 -0.0172 -0.1114
   14loPI   GL1  213   9.362  15.439  10.017  0.3018 -0.0604 -0.2193
   14loPI   GL2  214   9.409  15.029   9.947  0.0914 -0.0666  0.0687
   14loPI   C1A  215   9.203  15.467   9.569 -0.0455  0.4058  0.1835
   14loPI   C2A  216   9.277  15.488   9.170  0.0864  0.3135 -0.0649
   14loPI   C3A  217   9.183  15.448   8.774 -0.2761 -0.1853  0.1964
   14loPI   C4A  218   9.118  15.465   8.335 -0.0512 -0.1693 -0.0165
   14loPI   C5A  219   9.259  15.450   7.950  0.5037  0.0726  0.2436
   14loPI   C6A  220   9.466  15.499   7.675  0.1864  0.2337 -0.1578
   14loPI   C1B  221   9.470  14.940   9.509  0.1168 -0.2483 -0.1684
   14loPI   C2B  222   9.342  14.976   9.032 -0.3254 -0.0699  0.1624
   14loPI   C3B  223   9.271  14.945   8.623  0.0614  0.0158 -0.0795
   14loPI   C4B  224   9.163  14.965   8.165 -0.1936 -0.1309 -0.1165
   15loPI    C1  225  11.360   4.048  10.601  0.0700 -0.1200  0.0851
   15loPI    C2  226  11.343   4.446  10.637  0.3018 -0.1047  0.0380
   15loPI    C3  227  11.384   4.218  10.963  0.0084 -0.1008  0.0804
   15loPI   PO4  228  11.364   4.054  10.336  0.1236 -0.2116 -0.1632
   15loPI   GL1  229  11.179   4.105   9.982  0.1469 -0.0185 -0.0105
   15loPI   GL2  230  11.455   3.978   9.829  0.1143  0.0796 -0.1766
   15loPI   C1A  231  10.864   4.113   9.608  0.2366 -0.2869 -0.0418
   15loPI   C2A  232  10.794   4.095   9.211  0.1227 -0.1070  0.3686
   15loPI   C3A  233  10.898   4.198   8.768  0.0013  0.1084 -0.0427
   15loPI   C4A  234  10.890   4.076   8.352  0.0136  0.0142  0.1845
   15loPI   C5A  235  11.001   4.165   8.020 -0.0140  0.0423  0.0588
   15loPI   C6A  236  10.926   4.028   7.603  0.3241 -0.0289  0.0125
   15loPI   C1B  237  11.282   3.932   9.383 -0.0002 -0.1094  0.2354
   15loPI   C2B  238  11.280   3.993   9.019 -0.1018  0.0591  0.1225
   15loPI   C3B  239  11.394   4.070   8.686  0.5375  0.1151 -0.2721
   15loPI   C4B  240  11.357   3.924   8.286  0.0605  0.3548  0.0392
   16loPI    C1  241   3.751   2.124  10.281 -0.0304  0.2443  0.0721
   16loPI    C2  242   3.756   1.829  10.551 -0.1479  0.3217  0.1601
   16loPI    C3  243   3.716   2.209  10.670 -0.1216  0.3630  0.0387
   16loPI   PO4  244   3.910   2.028  10.100 -0.2990 -0.0706  0.1625
   16loPI   GL1  245   4.084   1.837   9.680 -0.1472  0.3810 -0.1691
   16loPI   GL2  246   4.289   1.658   9.701  0.2185  0.1542  0.2866
   16loPI   C1A  247   3.922   1.789   9.243 -0.0521  0.1652 -0.1203
   16loPI   C2A  248   4.001   1.747   8.791 -0.1964  0.1203 -0.1261
   16loPI   C3A  249   3.895   1.817   8.325  0.1010 -0.1494 -0.0148
   16loPI   C4A  250   4.048   1.770   7.866  0.3942 -0.1063  0.3141
   16loPI   C5A  251   4.420   1.706   7.662  0.3310 -0.0755 -0.0172
   16loPI   C6A  252   4.753   1.453   7.594  0.3386 -0.0940 -0.0615
   16loPI   C1B  253   4.398   1.612   9.291  0.1909 -0.2011  0.0381
   16loPI   C2B  254   4.532   1.712   8.919 -0.2156 -0.0015  0.0604
   16loPI   C3B  255   4.431   1.675   8.522  0.0651  0.0029  0.0834
   16loPI   C4B  256   4.479   1.596   8.177 -0.3217 -0.0185  0.1540
   17loPI    C1  257  18.448   1.360   9.735 -0.1901 -0.1890  0.0168
   17loPI    C2  258  18.763   1.192   9.917 -0.0249  0.1438  0.0465
   17loPI    C3  259  18.396   1.043   9.973  0.1255 -0.2550  0.0033
   17loPI   PO4  260  18.570   1.345   9.472  0.2579  0.1013  0.0596
   17loPI   GL1  261  18.525   1.245   9.111  0.0371  0.1599  0.0264
   17loPI   GL2  262  18.293   1.318   8.902 -0.0960 -0.1922 -0.0976
   17loPI   C1A  263  18.656   0.993   8.696  0.0910 -0.2250  0.0298
   17loPI   C2A  264  18.666   0.724   8.467  0.0908 -0.0205 -0.0676
   17loPI   C3A  265  18.407   0.681   8.040  0.0901 -0.1190  0.0168
   17loPI   C4A  266  18.356   0.748   7.581 -0.0482 -0.0096 -0.0839
   17loPI   C5A  267  18.132   0.792   7.218 -0.0275  0.0075 -0.0698
   17loPI   C6A  268  17.761   0.959   7.254 -0.3323 -0.0533 -0.1772
   17loPI   C1B  269  18.618   1.503   8.680 -0.3515 -0.0066 -0.0939
   17loPI   C2B  270  18.906   1.491   8.345  0.0225  0.0655  0.2811
   17loPI   C3B  271  18.983   1.455   7.995  0.2673  0.1817  0.1451
   17loPI   C4B  272  19.069   1.361   7.644 -0.0682  0.1218 -0.2861
   18loPI    C1  273   9.820   0.529  10.769 -0.2062 -0.0124 -0.0042
   18loPI    C2  274  10.055   0.765  10.991  0.1276 -0.0213 -0.3381
   18loPI    C3  275   9.758   0.558  11.163  0.0673  0.3486  0.0170
   18loPI   PO4  276   9.965   0.461  10.601  0.2273  0.0071 -0.0586
   18loPI   GL1  277   9.939   0.219  10.132 -0.4113  0.1607 -0.0414
   18loPI   GL2  278   9.777   0.147   9.888 -0.0992  0.2071  0.2377
   18loPI   C1A  279  10.178   0.439   9.824  0.1297 -0.0039  0.2128
   18loPI   C2A  280  10.237   0.521   9.375  0.0892 -0.1431  0.0386
   18loPI   C3A  281  10.244   0.543   8.868 -0.1268  0.0265 -0.0337
   18loPI   C4A  282  10.165   0.607   8.430  0.0389 -0.0542  0.0269
   18loPI   C5A  283  10.170   0.584   7.931 -0.0671  0.0361 -0.2369
   18loPI   C6A  284  10.086   0.137   7.753 -0.0299 -0.1920 -0.3256
   18loPI   C1B  285   9.903   0.184   9.460  0.3334  0.1291 -0.1123
   18loPI   C2B  286   9.962   0.158   9.018  0.3055 -0.3185  0.0940
   18loPI   C3B  287   9.812   0.208   8.673 -0.1488  0.3350 -0.2791
   18loPI   C4B  288   9.965   0.232   8.241 -0.0322  0.0975  0.0704
   19loPI    C1  289   2.679  18.548  10.504  0.0909  0.1141  0.3470
   19loPI    C2  290   2.499  18.783  10.773 -0.0288  0.0872  0.2910
   19loPI    C3  291   2.393  18.399  10.741 -0.1692  0.1436  0.0573
   19loPI   PO4  292   2.715  18.720  10.222 -0.0272 -0.1704  0.1290
   19loPI   GL1  293   2.941  18.922   9.803  0.3588  0.1502 -0.1101
   19loPI   GL2  294   3.302  19.078   9.821 -0.4518  0.0404 -0.2926
   19loPI   C1A  295   2.893  18.676   9.487 -0.2093  0.2180  0.1654
   19loPI   C2A  296   3.067  18.645   9.123  0.2112  0.0449  0.2411
   19loPI   C3A  297   2.946  18.618   8.608  0.1921 -0.0367  0.2068
   19loPI   C4A  298   2.916  18.678   8.167  0.2414  0.1687 -0.2820
   19loPI   C5A  299   3.044  18.687   7.742 -0.1300 -0.3441 -0.0131
   19loPI   C6A  300   3.147  18.878   7.308 -0.0915  0.3790  0.0766
   19loPI   C1B  301   3.373  18.901   9.409  0.0519 -0.0840  0.2488
   19loPI   C2B  302   3.376  18.957   8.893  0.2373 -0.2399 -0.1836
   19loPI   C3B  303   3.338  18.963   8.405  0.1171 -0.1279  0.2114
   19loPI   C4B  304   3.325  19.003   8.011 -0.1456  0.1019  0.1019
   20loPI    C1  305  16.024   9.714  10.155 -0.1747 -0.0973 -0.0745
   20loPI    C2  306  15.997   9.460  10.463  0.2721 -0.0162  0.0392
   20loPI    C3  307  15.696   9.712  10.384  0.0250 -0.2503  0.2162
   20loPI   PO4  308  16.033   9.567   9.947  0.0727 -0.1916  0.0560
   20loPI   GL1  309  15.930   9.561   9.485 -0.2464  0.1496  0.1539
   20loPI   GL2  310  16.138   9.773   9.262  0.0806 -0.0363  0.0318
   20loPI   C1A  311  15.832   9.421   9.025  0.1522 -0.2297 -0.3203
   20loPI   C2A  312  15.737   9.415   8.618 -0.0124  0.0837 -0.1024
   20loPI   C3A  313  15.706   9.536   8.223  0.1090 -0.0078 -0.0853
   20loPI   C4A  314  15.890   9.596   7.847 -0.0026  0.2695 -0.1097
   20loPI   C5A  315  15.976   9.354   7.483  0.0484  0.0838 -0.1203
   20loPI   C6A  316  16.007   8.975   7.434  0.0996  0.0631  0.3563
   20loPI   C1B  317  16.148   9.799   8.855  0.1598 -0.1651  0.0094
   20loPI   C2B  318  16.149   9.842   8.475  0.0645 -0.1205  0.1487
   20loPI   C3B  319  16.402   9.753   8.075  0.0702  0.0293  0.0718
   20loPI   C4B  320  16.356   9.779   7.753 -0.0156  0.2583  0.2792
   21loPI    C1  321   9.480   8.904  11.092 -0.2222  0.2840  0.0668
   21loPI    C2  322   9.840   9.044  11.195 -0.1105 -0.0585  0.1545
   21loPI    C3  323   9.510   9.200  11.359  0.0119  0.0776  0.2740
   21loPI   PO4  324   9.486   8.863  10.852 -0.0274  0.0349 -0.1233
   21loPI   GL1  325   9.704   8.958  10.396 -0.1232 -0.1499 -0.0139
   21loPI   GL2  326   9.465   8.783  10.386 -0.0228  0.0010  0.2426
   21loPI   C1A  327   9.973   8.881   9.992 -0.0471 -0.1363 -0.0185
   21loPI   C2A  328  10.108   8.959   9.728 -0.0377 -0.0092 -0.3761
   21loPI   C3A  329  10.060   8.953   9.319 -0.2224  0.2018 -0.2817
   21loPI   C4A  330   9.924   8.771   8.967 -0.1214  0.0084  0.3188
   21loPI   C5A  331   9.709   8.727   8.543  0.0389  0.0866 -0.0275
   21loPI   C6A  332   9.459   8.884   8.209  0.0050 -0.1647 -0.1266
   21loPI   C1B  333   9.613   8.489  10.124  0.1241 -0.1680 -0.1257
   21loPI   C2B  334   9.599   8.500   9.694 -0.0745  0.1719  0.0351
   21loPI   C3B  335   9.637   8.446   9.293  0.1664  0.3734  0.0305
   21loPI   C4B  336   9.585   8.414   8.882 -0.0897 -0.0184  0.0347
   22loPI    C1  337  17.889   2.578   9.505 -0.0454  0.0797 -0.0774
   22loPI    C2  338  17.907   2.336   9.823 -0.0082  0.2706  0.0676
   22loPI    C3  339  18.007   2.721   9.860  0.0107  0.2905 -0.1799
   22loPI   PO4  340  17.910   2.528   9.337  0.0878  0.0558 -0.0909
   22loPI   GL1  341  18.193   2.357   8.997 -0.0039 -0.0403 -0.0838
   22loPI   GL2  342  18.459   2.647   9.056  0.0692 -0.3350 -0.0612
   22loPI   C1A  343  18.187   2.278   8.590 -0.1795  0.1476 -0.2815
   22loPI   C2A  344  18.299   2.383   8.135  0.3163 -0.0405 -0.1042
   22loPI   C3A  345  18.137   2.491   7.692  0.2438 -0.0080  0.0161
   22loPI   C4A  346  17.932   2.170   7.456 -0.0301  0.1219 -0.1550
   22loPI   C5A  347  17.715   2.096   7.021  0.0773  0.1974 -0.3084
   22loPI   C6A  348  17.660   1.856   6.675 -0.1626 -0.3782 -0.3781
   22loPI   C1B  349  18.534   2.633   8.656 -0.0177  0.0938  0.0296
   22loPI   C2B  350  18.670   2.698   8.271  0.1298 -0.0333 -0.0587
   22loPI   C3B  351  18.915   2.995   8.115 -0.2267 -0.1122  0.0551
   22loPI   C4B  352  19.216   3.145   7.872  0.0816  0.1189  0.2976
   23loPI    C1  353  15.547   6.784   9.949  0.0810 -0.2720  0.0631
   23loPI    C2  354  15.844   6.664  10.188  0.1353 -0.4295 -0.0813
   23loPI    C3  355  15.474   6.521  10.242  0.1105 -0.3289  0.0197
   23loPI   PO4  356  15.687   6.737   9.678 -0.0935 -0.2022 -0.0215
   23loPI   GL1  357  15.536   6.484   9.244 -0.2207  0.1949 -0.0790
   23loPI   GL2  358  15.813   6.656   9.224  0.4630  0.1743  0.2659
   23loPI   C1A  359  15.561   6.393   8.774  0.0498 -0.2288  0.1877
   23loPI   C2A  360  15.570   6.723   8.453 -0.2440 -0.0892  0.2507
   23loPI   C3A  361  15.619   6.608   8.010 -0.0213 -0.1710  0.3765
   23loPI   C4A  362  15.749   6.620   7.655 -0.1218 -0.1328 -0.0739
   23loPI   C5A  363  15.875   6.213   7.450  0.1722  0.1260  0.3299
   23loPI   C6A  364  15.830   5.890   7.153  0.0981  0.2241 -0.2138
   23loPI   C1B  365  15.587   6.899   8.920 -0.1427 -0.3585  0.2598
   23loPI   C2B  366  15.485   7.203   8.638 -0.1118 -0.2466 -0.0006
   23loPI   C3B  367  15.309   7.093   8.208  0.0034  0.0035  0.0785
   23loPI   C4B  368  15.241   6.916   7.782  0.2037  0.3701  0.1175
   24loPI    C1  369   5.524  12.772  10.704 -0.0172 -0.1536  0.0450
   24loPI    C2  370   5.461  13.164  10.750  0.1195 -0.1454  0.1729
   24loPI    C3  371   5.336  12.908  11.030  0.0298 -0.1938  0.0892
   24loPI   PO4  372   5.430  12.681  10.518 -0.0247 -0.1914  0.0477
   24loPI   GL1  373   5.471  12.647  10.097 -0.1905  0.2216  0.0503
   24loPI   GL2  374   5.477  12.359  10.040 -0.1930  0.1312 -0.0139
   24loPI   C1A  375   5.573  12.826   9.698  0.0513 -0.0864  0.0328
   24loPI   C2A  376   5.508  12.873   9.247  0.2506  0.0356 -0.0269
   24loPI   C3A  377   5.536  12.869   8.797  0.4677 -0.2943 -0.2536
   24loPI   C4A  378   5.385  12.860   8.493 -0.2181 -0.3692  0.2266
   24loPI   C5A  379   5.523  12.839   8.046  0.3810  0.0093 -0.3619
   24loPI   C6A  380   5.600  12.804   7.652  0.2489 -0.2865 -0.1679
   24loPI   C1B  381   5.688  12.330   9.656 -0.1119  0.0162 -0.0377
   24loPI   C2B  382   5.635  12.344   9.263  0.0092  0.2645  0.0739
   24loPI   C3B  383   5.599  12.337   8.799 -0.3264  0.0740  0.0913
   24loPI   C4B  384   5.515  12.325   8.417 -0.6169  0.2056  0.1939
   25loPI    C1  385  10.906  13.241  10.630  0.2106  0.0201  0.3633
   25loPI    C2  386  11.137  13.538  10.495 -0.0585  0.0323 -0.0890
   25loPI    C3  387  10.872  13.608  10.786  0.1769  0.1287  0.1052
   25loPI   PO4  388  10.828  13.172  10.400  0.0342  0.3557  0.3197
   25loPI   GL1  389  10.765  13.203   9.926 -0.1166 -0.1198  0.0259
   25loPI   GL2  390  10.986  12.926   9.864  0.0817  0.3421  0.2236
   25loPI   C1A  391  10.686  13.079   9.515 -0.2338  0.0643  0.2478
   25loPI   C2A  392  10.670  12.987   9.181 -0.0249  0.1419  0.0291
   25loPI   C3A  393  10.630  13.061   8.854 -0.3514 -0.1516 -0.0813
   25loPI   C4A  394  10.532  13.025   8.445 -0.0750 -0.3594 -0.0040
   25loPI   C5A  395  10.497  13.031   7.979 -0.1413  0.0460  0.1643
   25loPI   C6A  396  10.757  12.840   7.641 -0.2589 -0.0959 -0.1834
   25loPI   C1B  397  11.182  12.982   9.448 -0.1004 -0.1872  0.0806
   25loPI   C2B  398  11.133  12.959   9.013  0.1098  0.0089  0.1955
   25loPI   C3B  399  11.022  12.900   8.600  0.0387 -0.2235  0.3310
   25loPI   C4B  400  10.968  12.866   8.167  0.0588 -0.0114 -0.1123
   26loPI    C1  401  13.962  18.597  10.017  0.2303  0.2315 -0.1674
   26loPI    C2  402  13.902  18.890  10.283  0.1140  0.1853 -0.1418
   26loPI    C3  403  13.874  18.508  10.397 -0.2879  0.1647 -0.2958
   26loPI   PO4  404  13.925  18.652   9.852 -0.0831 -0.1420 -0.0395
   26loPI   GL1  405  13.955  18.832   9.489 -0.2249 -0.1295 -0.2395
   26loPI   GL2  406  14.045  19.155   9.325 -0.0280 -0.0040 -0.1225
   26loPI   C1A  407  13.708  18.827   9.108  0.2959 -0.0107  0.0235
   26loPI   C2A  408  13.622  18.822   8.604 -0.1656 -0.1498  0.0583
   26loPI   C3A  409  13.555  18.740   8.196 -0.2124 -0.0376  0.1126
   26loPI   C4A  410  13.614  18.804   7.795  0.0610 -0.0488 -0.2567
   26loPI   C5A  411  13.519  18.619   7.407 -0.0487  0.1837 -0.1685
   26loPI   C6A  412  13.314  18.369   7.079 -0.0902 -0.1375 -0.2245
   26loPI   C1B  413  14.131  19.114   8.911  0.1599 -0.0727 -0.1847
   26loPI   C2B  414  14.052  19.154   8.464 -0.0829 -0.1781 -0.3125
   26loPI   C3B  415  13.859  19.210   8.012  0.1545 -0.0719  0.2803
   26loPI   C4B  416  13.730  19.191   7.564  0.1423 -0.3199  0.0037
   27loPI    C1  417  10.063   1.367  10.865  0.1767  0.1888  0.1108
   27loPI    C2  418  10.414   1.180  10.824  0.0364 -0.0762  0.1031
   27loPI    C3  419  10.254   1.228  11.187  0.1960  0.2645  0.1324
   27loPI   PO4  420   9.897   1.303  10.679  0.2249  0.2266  0.0028
   27loPI   GL1  421   9.869   1.251  10.221 -0.0931 -0.1382 -0.1525
   27loPI   GL2  422   9.837   1.548  10.127  0.0631 -0.0432 -0.2463
   27loPI   C1A  423   9.636   1.215   9.796 -0.1959  0.2906 -0.1096
   27loPI   C2A  424   9.679   1.142   9.365 -0.1106  0.0139  0.3510
   27loPI   C3A  425   9.629   1.202   8.938 -0.0491 -0.0611 -0.1877
   27loPI   C4A  426   9.499   1.345   8.562 -0.0338  0.1354 -0.1288
   27loPI   C5A  427   9.638   1.369   8.166  0.1409 -0.1818  0.0951
   27loPI   C6A  428   9.564   1.221   7.668  0.1217 -0.0577 -0.5035
   27loPI   C1B  429  10.012   1.518   9.699  0.1048  0.4435  0.1879
   27loPI   C2B  430  10.063   1.513   9.190 -0.1569 -0.1891  0.2366
   27loPI   C3B  431   9.974   1.518   8.769  0.3592  0.0042  0.3681
   27loPI   C4B  432   9.856   1.772   8.384  0.0163  0.2133  0.1859
   28loPI    C1  433  11.799  11.211  10.484 -0.2199  0.1208 -0.3775
   28loPI    C2  434  11.967  11.547  10.346  0.3678  0.1080  0.2516
   28loPI    C3  435  11.752  11.554  10.683 -0.1575 -0.0454 -0.0691
   28loPI   PO4  436  12.027  10.985  10.399 -0.0329 -0.4041 -0.0650
   28loPI   GL1  437  12.100  10.694  10.125  0.0422 -0.2211 -0.2238
   28loPI   GL2  438  11.891  10.513   9.978 -0.1223  0.1781  0.3555
   28loPI   C1A  439  12.039  10.785   9.601 -0.1021  0.1240 -0.0103
   28loPI   C2A  440  11.987  10.685   9.114 -0.2690  0.1386  0.3945
   28loPI   C3A  441  11.963  10.580   8.739  0.0571  0.0766  0.4494
   28loPI   C4A  442  11.887  10.596   8.325 -0.0144 -0.2305  0.2287
   28loPI   C5A  443  11.731  10.665   7.841 -0.2577  0.2894  0.1150
   28loPI   C6A  444  11.850  10.765   7.530 -0.0818 -0.1651 -0.0321
   28loPI   C1B  445  12.058  10.247   9.624 -0.3079  0.2180 -0.2711
   28loPI   C2B  446  12.106  10.229   9.228  0.2980  0.1507  0.0871
   28loPI   C3B  447  12.029  10.089   8.924  0.0682  0.1684 -0.0479
   28loPI   C4B  448  12.068  10.107   8.548  0.4447 -0.1858 -0.2295
   29loPI    C1  449   5.517   9.108  10.090  0.0466 -0.0036  0.1098
   29loPI    C2  450   5.652   9.474   9.999 -0.1428  0.0735  0.1350
   29loPI    C3  451   5.555   9.384  10.377 -0.4882  0.1292  0.0633
   29loPI   PO4  452   5.613   8.934   9.943  0.1293 -0.1269  0.0275
   29loPI   GL1  453   5.707   8.735   9.661  0.2740  0.1740 -0.1343
   29loPI   GL2  454   5.376   8.626   9.517 -0.1064  0.0982 -0.0413
   29loPI   C1A  455   5.735   8.860   9.219  0.3288  0.1288  0.1194
   29loPI   C2A  456   5.926   8.952   8.821  0.0387 -0.3554 -0.2036
   29loPI   C3A  457   5.858   8.940   8.317  0.0248 -0.0743  0.1659
   29loPI   C4A  458   5.837   9.006   7.914  0.1022 -0.1391  0.1301
   29loPI   C5A  459   5.891   9.402   7.657  0.0798  0.0779 -0.2235
   29loPI   C6A  460   6.137   9.892   7.696  0.2779  0.0065  0.0439
   29loPI   C1B  461   5.315   8.556   9.097 -0.1908 -0.1524  0.1201
   29loPI   C2B  462   5.531   8.653   8.755 -0.0474  0.2030 -0.1564
   29loPI   C3B  463   5.457   8.568   8.394  0.0017 -0.0357  0.1530
   29loPI   C4B  464   5.655   8.561   8.059 -0.2108  0.2018 -0.2647
   30loPI    C1  465   7.263   3.789  10.590  0.1261 -0.1514 -0.0360
   30loPI    C2  466   7.292   3.855  10.983 -0.2375 -0.0689 -0.0193
   30loPI    C3  467   7.464   3.532  10.822 -0.1953 -0.1716  0.2271
   30loPI   PO4  468   7.248   3.868  10.403 -0.0549  0.0333  0.2266
   30loPI   GL1  469   7.496   3.827  10.023  0.0213  0.1213  0.2038
   30loPI   GL2  470   7.228   3.628   9.939  0.0725  0.3381  0.0050
   30loPI   C1A  471   7.594   3.961   9.567  0.0336  0.2454 -0.0111
   30loPI   C2A  472   7.671   3.946   9.142 -0.2619  0.0295  0.3541
   30loPI   C3A  473   7.780   3.861   8.656 -0.0893  0.0948 -0.1782
   30loPI   C4A  474   7.712   3.764   8.222 -0.0724  0.0364  0.1916
   30loPI   C5A  475   7.751   3.965   8.011  0.1231  0.3290  0.1913
   30loPI   C6A  476   7.531   4.040   7.634 -0.1885 -0.1040 -0.3595
   30loPI   C1B  477   7.439   3.401   9.710 -0.2331 -0.4250 -0.5071
   30loPI   C2B  478   7.511   3.500   9.305 -0.1140 -0.0809  0.0134
   30loPI   C3B  479   7.442   3.548   8.865 -0.1773 -0.1561  0.2604
   30loPI   C4B  480   7.336   3.486   8.423 -0.1457 -0.2408  0.2639
   31loPI    C1  481   6.396   9.701  10.305  0.0838  0.0321  0.1188
   31loPI    C2  482   6.134   9.892  10.540 -0.1932 -0.0140 -0.1452
   31loPI    C3  483   6.034   9.544  10.371  0.1642 -0.2005  0.0155
   31loPI   PO4  484   6.512   9.897  10.155 -0.0185 -0.1403 -0.1408
   31loPI   GL1  485   6.827  10.081   9.862 -0.3484  0.1552 -0.1033
   31loPI   GL2  486   6.867  10.384   9.700 -0.3411 -0.1210  0.0158
   31loPI   C1A  487   6.960   9.839   9.543  0.0527  0.3148  0.1270
   31loPI   C2A  488   7.056   9.882   8.993  0.1057 -0.3244 -0.1148
   31loPI   C3A  489   7.034   9.953   8.575  0.1566 -0.1695  0.1952
   31loPI   C4A  490   6.955  10.009   8.242 -0.0654 -0.1984  0.1430
   31loPI   C5A  491   6.697  10.109   7.932  0.1716 -0.1359 -0.1672
   31loPI   C6A  492   6.622  10.307   7.582 -0.1498  0.4175  0.0253
   31loPI   C1B  493   6.924  10.337   9.348 -0.0307 -0.2704 -0.0376
   31loPI   C2B  494   6.911  10.359   8.959  0.1164 -0.1400  0.1161
   31loPI   C3B  495   6.858  10.473   8.460 -0.2114  0.4798 -0.0108
   31loPI   C4B  496   6.937  10.536   7.975 -0.1256  0.0367  0.2064
   32loPI    C1  497   5.269   6.633  10.266 -0.0397  0.3354 -0.1468
   32loPI    C2  498   5.165   6.464  10.614 -0.0564 -0.0139 -0.3180
   32loPI    C3  499   5.411   6.779  10.610 -0.0478 -0.0140  0.0088
   32loPI   PO4  500   5.193   6.372  10.094  0.2008 -0.0434 -0.0680
   32loPI   GL1  501   5.411   6.162   9.736 -0.0785  0.0419 -0.2514
   32loPI   GL2  502   5.789   5.990   9.812  0.2032 -0.1292  0.0516
   32loPI   C1A  503   5.283   6.097   9.310  0.1875  0.0808  0.0092
   32loPI   C2A  504   5.408   6.066   8.884 -0.0514  0.0833 -0.0149
   32loPI   C3A  505   5.479   6.168   8.447  0.0190  0.1206 -0.2531
   32loPI   C4A  506   5.353   6.183   8.036  0.3069 -0.2956 -0.3681
   32loPI   C5A  507   5.097   5.986   7.681 -0.2177  0.3248 -0.0955
   32loPI   C6A  508   4.868   5.720   7.299  0.4464  0.1746 -0.0972
   32loPI   C1B  509   5.779   5.991   9.335  0.0959 -0.0185  0.0681
   32loPI   C2B  510   5.904   5.894   8.895 -0.0658  0.2404 -0.0896
   32loPI   C3B  511   5.999   6.018   8.486 -0.2780 -0.1090 -0.2567
   32loPI   C4B  512   6.087   5.962   8.024 -0.0222  0.1559  0.0560
   33loPI    C1  513   7.398  10.842  10.524 -0.3130  0.1077 -0.0676
   33loPI    C2  514   7.300  11.202  10.668 -0.0952  0.1576 -0.0399
   33loPI    C3  515   7.362  10.896  10.918  0.2398  0.2335 -0.0260
   33loPI   PO4  516   7.640  10.892  10.356  0.0613  0.0346 -0.0755
   33loPI   GL1  517   7.577  10.991   9.950  0.1448  0.0476  0.1390
   33loPI   GL2  518   7.453  10.842   9.682 -0.2311 -0.2882  0.2291
   33loPI   C1A  519   7.779  11.142   9.597 -0.1967  0.0805  0.1119
   33loPI   C2A  520   7.704  11.102   9.175 -0.0005  0.0690 -0.1995
   33loPI   C3A  521   7.723  11.091   8.746 -0.2312  0.1507 -0.1509
   33loPI   C4A  522   7.559  11.246   8.410 -0.0832  0.0732 -0.0664
   33loPI   C5A  523   7.667  11.570   8.072 -0.1943 -0.0722  0.0694
   33loPI   C6A  524   7.915  12.010   7.995 -0.0149  0.1665 -0.0880
   33loPI   C1B  525   7.274  10.802   9.251  0.2166  0.1237 -0.1198
   33loPI   C2B  526   7.283  10.689   8.830 -0.3239 -0.1918 -0.1422
   33loPI   C3B  527   7.306  10.824   8.503 -0.0333  0.3669 -0.4877
   33loPI   C4B  528   7.166  10.987   8.094  0.1152 -0.0262  0.1786
   34loPI    C1  529  11.092  15.766  10.432  0.0606  0.0491 -0.0008
   34loPI    C2  530  11.255  15.885  10.778 -0.0587  0.0658  0.0501
   34loPI    C3  531  10.865  15.945  10.709 -0.0861 -0.1504  0.0099
   34loPI   PO4  532  11.304  15.771  10.235 -0.0574  0.0115 -0.1049
   34loPI   GL1  533  11.315  15.610   9.771 -0.4004 -0.1495  0.2661
   34loPI   GL2  534  11.206  15.312   9.741 -0.1017  0.1403 -0.2047
   34loPI   C1A  535  11.601  15.638   9.363  0.3253  0.0357 -0.0446
   34loPI   C2A  536  11.502  15.741   9.015  0.3185  0.4128 -0.0394
   34loPI   C3A  537  11.464  15.667   8.691 -0.0097  0.2239 -0.5063
   34loPI   C4A  538  11.333  15.558   8.334  0.2086 -0.1401 -0.3014
   34loPI   C5A  539  11.344  15.478   7.875  0.0436 -0.2802  0.0164
   34loPI   C6A  540  11.283  15.536   7.409 -0.1417 -0.1977 -0.2074
   34loPI   C1B  541  11.078  15.353   9.350 -0.2334  0.0936 -0.2006
   34loPI   C2B  542  11.079  15.354   8.931  0.1231  0.0242  0.1094
   34loPI   C3B  543  10.944  15.321   8.510  0.1444  0.0269  0.0315
   34loPI   C4B  544  11.036  15.179   8.138  0.3942  0.1988 -0.3032
   35loPI    C1  545  15.692  16.597   9.994 -0.1469 -0.0614  0.1458
   35loPI    C2  546  15.825  16.908  10.208  0.0932 -0.0586 -0.0033
   35loPI    C3  547  16.026  16.563  10.212 -0.0420 -0.1382 -0.0254
   35loPI   PO4  548  15.625  16.688   9.773 -0.0067  0.2568  0.0045
   35loPI   GL1  549  15.493  16.357   9.391 -0.0225  0.0268 -0.2903
   35loPI   GL2  550  15.719  16.581   9.263  0.1699 -0.1425  0.0844
   35loPI   C1A  551  15.630  16.279   8.893 -0.2202 -0.3191 -0.0402
   35loPI   C2A  552  15.613  16.297   8.440 -0.0207 -0.0630 -0.2218
   35loPI   C3A  553  15.557  16.286   8.018 -0.1877  0.1295  0.1494
   35loPI   C4A  554  15.655  16.548   7.748 -0.1020 -0.4123  0.2141
   35loPI   C5A  555  15.662  16.823   7.416  0.2020  0.2210 -0.1339
   35loPI   C6A  556  15.567  17.269   7.228  0.0688  0.1853 -0.2713
   35loPI   C1B  557  16.068  16.640   8.936  0.0106 -0.0976 -0.1345
   35loPI   C2B  558  16.089  16.640   8.494  0.1312 -0.0329  0.4135
   35loPI   C3B  559  15.946  16.767   8.118 -0.3016  0.3517  0.0088
   35loPI   C4B  560  15.633  17.045   8.077  0.3275 -0.4662 -0.1836
   36loPI    C1  561   6.498   8.415  10.312 -0.0826  0.1237  0.1472
   36loPI    C2  562   6.447   8.694  10.029  0.1701  0.1452  0.1199
   36loPI    C3  563   6.366   8.779  10.412 -0.1561  0.1216  0.0591
   36loPI   PO4  564   6.380   8.176  10.171 -0.1608  0.2271 -0.1141
   36loPI   GL1  565   6.330   8.044   9.713 -0.0379  0.1188 -0.0081
   36loPI   GL2  566   6.129   8.264   9.757  0.1227  0.0381  0.1415
   36loPI   C1A  567   6.437   8.141   9.358 -0.1676  0.1232  0.1768
   36loPI   C2A  568   6.451   8.223   8.926 -0.3193  0.1049  0.1473
   36loPI   C3A  569   6.532   8.273   8.441 -0.0811 -0.1674 -0.0195
   36loPI   C4A  570   6.588   8.144   8.092  0.1101 -0.1165  0.0749
   36loPI   C5A  571   6.540   8.261   7.673  0.0561 -0.0383  0.3348
   36loPI   C6A  572   6.445   8.375   7.240  0.0621  0.1868 -0.2380
   36loPI   C1B  573   6.195   8.600   9.447 -0.2570 -0.2296 -0.1760
   36loPI   C2B  574   6.386   8.753   9.024 -0.2442  0.0306  0.0424
   36loPI   C3B  575   6.443   8.807   8.531 -0.1558 -0.2442 -0.2279
   36loPI   C4B  576   6.541   8.662   8.085 -0.0854  0.1629  0.1386
   37loPI    C1  577  13.692  10.019  10.263  0.0104  0.0840 -0.0976
   37loPI    C2  578  13.813  10.379  10.387  0.0673 -0.0518  0.2534
   37loPI    C3  579  14.021  10.053  10.488 -0.1267 -0.2084  0.1537
   37loPI   PO4  580  13.478  10.076  10.107 -0.0799  0.2111 -0.2067
   37loPI   GL1  581  13.250  10.121   9.717  0.0993 -0.0404 -0.0761
   37loPI   GL2  582  13.221   9.744   9.845  0.2659 -0.1165  0.1348
   37loPI   C1A  583  13.068  10.280   9.281  0.0889  0.2361 -0.4037
   37loPI   C2A  584  12.972  10.277   8.847 -0.2649 -0.1049  0.0101
   37loPI   C3A  585  12.795  10.244   8.458  0.4648 -0.0358 -0.0260
   37loPI   C4A  586  12.648  10.225   8.061  0.0436  0.1619  0.0296
   37loPI   C5A  587  12.695   9.917   7.731 -0.3133 -0.3528  0.0818
   37loPI   C6A  588  12.497   9.747   7.391 -0.1889  0.1029 -0.0755
   37loPI   C1B  589  13.172   9.798   9.396 -0.1359  0.4109  0.1449
   37loPI   C2B  590  13.088   9.742   9.004  0.2583  0.3223 -0.2860
   37loPI   C3B  591  12.986   9.675   8.638 -0.2298 -0.1006 -0.2173
   37loPI   C4B  592  12.858   9.737   8.184 -0.1622  0.2978  0.3228
   38loPI    C1  593   9.889   3.023  10.811 -0.1274  0.2738 -0.2664
   38loPI    C2  594  10.130   3.034  11.131 -0.1688 -0.3202 -0.2035
   38loPI    C3  595   9.803   3.264  11.119 -0.0734 -0.1634  0.1028
   38loPI   PO4  596   9.995   3.107  10.665  0.1795 -0.2297 -0.0834
   38loPI   GL1  597  10.020   2.919  10.233  0.1047 -0.1585 -0.3196
   38loPI   GL2  598  10.293   2.774  10.376 -0.0058 -0.4360  0.2701
   38loPI   C1A  599   9.882   3.128   9.886 -0.1030  0.3283  0.2693
   38loPI   C2A  600   9.687   3.032   9.473  0.3365  0.3268 -0.4273
   38loPI   C3A  601   9.725   3.050   9.072  0.1877 -0.1723 -0.2100
   38loPI   C4A  602   9.661   3.234   8.627  0.0818  0.1263  0.0672
   38loPI   C5A  603   9.577   3.266   8.207 -0.2890  0.1749 -0.0663
   38loPI   C6A  604   9.474   3.522   7.886 -0.1497  0.4891  0.0451
   38loPI   C1B  605  10.352   2.723   9.910  0.2092  0.2302 -0.0765
   38loPI   C2B  606  10.288   2.904   9.505  0.1016  0.1281 -0.1619
   38loPI   C3B  607  10.202   2.848   9.021 -0.0909 -0.6940  0.1019
   38loPI   C4B  608  10.148   3.078   8.674  0.2555  0.1158 -0.0793
   39loPI    C1  609   8.267  17.376  10.789  0.1927  0.2113 -0.0171
   39loPI    C2  610   8.585  17.422  11.028 -0.0560  0.6338  0.2455
   39loPI    C3  611   8.219  17.389  11.185 -0.1591  0.2455 -0.0583
   39loPI   PO4  612   8.313  17.508  10.632  0.0833 -0.0364 -0.1006
   39loPI   GL1  613   8.226  17.687  10.221  0.1734  0.0031  0.4234
   39loPI   GL2  614   8.320  17.269  10.226  0.2518  0.1859 -0.2556
   39loPI   C1A  615   8.293  17.539   9.748 -0.0388  0.1242 -0.2467
   39loPI   C2A  616   8.207  17.643   9.378  0.1126 -0.4010 -0.0442
   39loPI   C3A  617   8.205  17.708   8.916  0.1207 -0.1816 -0.5067
   39loPI   C4A  618   8.210  17.625   8.484  0.0615 -0.1364  0.1452
   39loPI   C5A  619   8.274  17.226   8.164 -0.0132  0.1634  0.1656
   39loPI   C6A  620   8.421  16.927   7.920 -0.0235 -0.0892 -0.1547
   39loPI   C1B  621   8.372  17.107   9.886  0.0579  0.0730  0.0344
   39loPI   C2B  622   8.364  17.072   9.468 -0.0645  0.1682  0.1135
   39loPI   C3B  623   8.284  17.241   9.056  0.0091  0.1980  0.1525
   39loPI   C4B  624   8.337  17.107   8.626 -0.2127  0.0016  0.4468
   40loPI    C1  625  15.190   7.079  10.141  0.0177 -0.1838 -0.0218
   40loPI    C2  626  14.824   6.917  10.158 -0.0982  0.0795  0.0525
   40loPI    C3  627  15.104   6.808  10.422 -0.2427  0.1620  0.2419
   40loPI   PO4  628  15.147   7.303  10.135  0.1122 -0.1805  0.0370
   40loPI   GL1  629  14.931   7.360   9.680  0.0578  0.1928 -0.0682
   40loPI   GL2  630  14.772   7.134   9.658 -0.0824  0.5394  0.0229
   40loPI   C1A  631  14.749   7.528   9.340 -0.0296  0.0131  0.1407
   40loPI   C2A  632  14.723   7.489   8.885 -0.0731  0.1495  0.0904
   40loPI   C3A  633  14.600   7.552   8.604  0.1947 -0.1388 -0.1197
   40loPI   C4A  634  14.404   7.618   8.326 -0.0349 -0.1712  0.2566
   40loPI   C5A  635  14.195   7.841   8.193 -0.4303  0.2413 -0.1893
   40loPI   C6A  636  13.774   7.799   8.045  0.0255  0.0985 -0.0023
   40loPI   C1B  637  14.527   7.034   9.213  0.4489  0.2184  0.2953
   40loPI   C2B  638  14.376   7.163   8.833  0.0788 -0.1498 -0.0062
   40loPI   C3B  639  14.374   7.110   8.334  0.2461  0.0290  0.0100
   40loPI   C4B  640  14.311   7.249   7.933 -0.1501  0.0814  0.0256
   41loPI    C1  641   5.026  17.072  10.464  0.1650 -0.0785 -0.1561
   41loPI    C2  642   4.681  16.916  10.592 -0.0042  0.2890 -0.1538
   41loPI    C3  643   4.986  16.675  10.497 -0.1884 -0.0295  0.0450
   41loPI   PO4  644   4.943  17.179  10.234  0.2397  0.3388  0.2438
   41loPI   GL1  645   4.975  17.133   9.777 -0.1202 -0.0132 -0.2038
   41loPI   GL2  646   5.277  16.928   9.673  0.0175  0.2208 -0.0040
   41loPI   C1A  647   5.093  16.864   9.235 -0.4599  0.1021 -0.0680
   41loPI   C2A  648   5.026  16.907   8.818 -0.1437 -0.1535 -0.1054
   41loPI   C3A  649   5.131  16.851   8.395  0.0692  0.0157 -0.0648
   41loPI   C4A  650   5.032  16.750   7.950 -0.1800 -0.3413 -0.1847
   41loPI   C5A  651   4.820  16.752   7.524  0.4400  0.1467 -0.0057
   41loPI   C6A  652   4.606  16.488   7.224 -0.0406  0.0367  0.1796
   41loPI   C1B  653   5.552  16.792   9.349 -0.0581 -0.2705 -0.3076
   41loPI   C2B  654   5.685  16.687   9.018  0.3127 -0.0100  0.2735
   41loPI   C3B  655   5.614  16.654   8.582 -0.1666  0.0781 -0.0299
   41loPI   C4B  656   5.483  16.652   8.115  0.1745 -0.0150 -0.0405
   42loPI    C1  657  14.988  15.286   9.835  0.0731 -0.1542 -0.1646
   42loPI    C2  658  14.867  15.081  10.156  0.2334  0.1066  0.0669
   42loPI    C3  659  14.946  15.472  10.186  0.2433  0.1357 -0.2936
   42loPI   PO4  660  14.800  15.282   9.696  0.3689  0.1175 -0.2119
   42loPI   GL1  661  14.750  15.101   9.321  0.0089 -0.0602  0.4795
   42loPI   GL2  662  14.704  14.824   9.164 -0.1357 -0.0125 -0.0482
   42loPI   C1A  663  14.467  15.258   8.957 -0.0769 -0.2850  0.1863
   42loPI   C2A  664  14.278  15.503   8.581 -0.0824  0.0751 -0.0069
   42loPI   C3A  665  14.223  15.625   8.156 -0.0114 -0.0378  0.0860
   42loPI   C4A  666  14.265  15.839   7.679 -0.2682  0.0166 -0.1492
   42loPI   C5A  667  14.131  15.920   7.269 -0.3274  0.2073 -0.1013
   42loPI   C6A  668  14.133  16.058   6.875 -0.0878 -0.4368  0.3108
   42loPI   C1B  669  14.574  14.741   8.764 -0.0702 -0.0687  0.3963
   42loPI   C2B  670  14.328  14.616   8.360  0.3153 -0.2553  0.0718
   42loPI   C3B  671  14.365  14.338   7.976 -0.0148  0.0702 -0.0339
   42loPI   C4B  672  14.479  13.904   8.084 -0.1340  0.1371  0.0746
   43loPI    C1  673  15.545  14.093   9.833 -0.0697  0.0377  0.1897
   43loPI    C2  674  15.766  14.390   9.983  0.2619 -0.0663 -0.0822
   43loPI    C3  675  15.741  14.042  10.178 -0.0468  0.1013  0.1863
   43loPI   PO4  676  15.650  14.123   9.508  0.1637 -0.1618 -0.0485
   43loPI   GL1  677  15.987  14.463   9.375  0.2311  0.0058  0.2783
   43loPI   GL2  678  15.862  14.823   9.257  0.0642 -0.1184  0.0637
   43loPI   C1A  679  16.130  14.389   8.921  0.0884  0.1925 -0.1983
   43loPI   C2A  680  15.767  14.253   8.660  0.2071 -0.1108  0.1065
   43loPI   C3A  681  15.782  14.315   8.293 -0.0052  0.1133  0.0615
   43loPI   C4A  682  15.823  14.307   7.859  0.1365 -0.0612 -0.2684
   43loPI   C5A  683  16.265  14.162   7.687  0.0070 -0.0326 -0.0299
   43loPI   C6A  684  16.524  14.298   7.470 -0.0316 -0.0150 -0.0167
   43loPI   C1B  685  16.010  15.176   8.912  0.1975 -0.1603  0.2874
   43loPI   C2B  686  16.096  15.280   8.529  0.1004 -0.0855 -0.1389
   43loPI   C3B  687  15.971  15.292   8.043  0.1107  0.0431  0.0528
   43loPI   C4B  688  15.846  15.425   7.650 -0.2839  0.2548  0.2128
   44loPI    C1  689   1.591   5.457  10.062  0.0724 -0.0950  0.0104
   44loPI    C2  690   1.795   5.207  10.299 -0.2287 -0.0586  0.3156
   44loPI    C3  691   1.414   5.294  10.381 -0.3484 -0.0639 -0.2010
   44loPI   PO4  692   1.810   5.370   9.771 -0.0242  0.2375  0.2589
   44loPI   GL1  693   1.786   5.069   9.414 -0.0418 -0.0644  0.0590
   44loPI   GL2  694   2.036   5.085   9.419  0.0419  0.1731 -0.0047
   44loPI   C1A  695   1.793   5.428   9.145  0.0839  0.0144  0.2013
   44loPI   C2A  696   1.823   5.515   8.672  0.0418  0.0989  0.1449
   44loPI   C3A  697   1.896   5.522   8.401  0.0179 -0.2756  0.0959
   44loPI   C4A  698   1.976   5.635   8.015 -0.0907  0.4320  0.4363
   44loPI   C5A  699   1.980   5.320   7.699 -0.3074  0.4975  0.0223
   44loPI   C6A  700   2.314   5.308   7.337 -0.0314  0.0436  0.2390
   44loPI   C1B  701   2.230   5.264   9.114  0.1605  0.2303 -0.0305
   44loPI   C2B  702   2.335   5.265   8.652 -0.1954  0.0484 -0.0240
   44loPI   C3B  703   2.409   5.301   8.177  0.1601  0.0604  0.1591
   44loPI   C4B  704   2.442   5.468   7.845  0.1538  0.2541 -0.0304
   45loPI    C1  705  12.970   4.141  10.452 -0.2241 -0.0633  0.1136
   45loPI    C2  706  12.908   3.752  10.526 -0.3619  0.0306  0.5146
   45loPI    C3  707  13.263   3.917  10.607 -0.1682 -0.0951 -0.0360
   45loPI   PO4  708  12.866   4.205  10.244 -0.0583 -0.1135  0.1679
   45loPI   GL1  709  12.770   4.040   9.978  0.0174 -0.1921 -0.1101
   45loPI   GL2  710  12.578   3.801  10.039 -0.0995 -0.2648 -0.3107
   45loPI   C1A  711  12.935   4.065   9.615  0.1626  0.0620  0.0991
   45loPI   C2A  712  12.840   3.931   9.260 -0.2509 -0.0888  0.1640
   45loPI   C3A  713  12.754   3.938   8.883  0.0908 -0.4311  0.0591
   45loPI   C4A  714  12.770   3.974   8.453  0.0212  0.1366 -0.2308
   45loPI   C5A  715  12.635   3.893   8.026  0.2391  0.2019  0.2296
   45loPI   C6A  716  12.305   3.659   7.742 -0.5121 -0.3002  0.0451
   45loPI   C1B  717  12.496   3.744   9.710 -0.2004  0.1556  0.1688
   45loPI   C2B  718  12.353   3.596   9.478 -0.3876  0.1761 -0.0250
   45loPI   C3B  719  12.465   3.588   9.038 -0.3353 -0.0620 -0.0187
   45loPI   C4B  720  12.337   3.695   8.631 -0.5530  0.1337  0.0896
   46loPI    C1  721   5.019  15.205  10.744  0.1366 -0.0993  0.2027
   46loPI    C2  722   5.265  14.947  10.926 -0.0991 -0.4002  0.1043
   46loPI    C3  723   4.920  15.052  11.100 -0.1335 -0.3686  0.0178
   46loPI   PO4  724   5.061  15.107  10.506  0.0350 -0.2417  0.1778
   46loPI   GL1  725   4.966  14.884  10.178 -0.1957 -0.1127  0.0676
   46loPI   GL2  726   4.736  15.156  10.094 -0.3512  0.2976  0.0626
   46loPI   C1A  727   5.138  15.061   9.825  0.0524  0.0209 -0.1399
   46loPI   C2A  728   5.116  14.969   9.379  0.4224 -0.0206  0.0800
   46loPI   C3A  729   5.114  14.971   8.964  0.0672  0.0965  0.3878
   46loPI   C4A  730   5.132  14.868   8.585 -0.3517  0.1520 -0.0752
   46loPI   C5A  731   5.288  14.867   8.117 -0.2043  0.1710  0.3020
   46loPI   C6A  732   5.362  14.463   7.848  0.1975 -0.4503  0.1195
   46loPI   C1B  733   4.649  15.110   9.592 -0.0789  0.3111  0.0940
   46loPI   C2B  734   4.547  15.201   9.160  0.0189 -0.1356 -0.0350
   46loPI   C3B  735   4.582  15.149   8.756 -0.2900  0.1232 -0.0965
   46loPI   C4B  736   4.587  15.034   8.334 -0.1108  0.2455 -0.1780
   47loPI    C1  737  14.092  17.367   9.994 -0.1982  0.0454  0.1434
   47loPI    C2  738  14.402  17.440  10.237 -0.1284  0.0570  0.0515
   47loPI    C3  739  14.027  17.484  10.371 -0.0915 -0.0368  0.1876
   47loPI   PO4  740  14.095  17.107   9.735  0.0217  0.0416  0.0037
   47loPI   GL1  741  14.036  17.155   9.277 -0.1859  0.2919  0.4501
   47loPI   GL2  742  14.024  17.487   9.369 -0.1983  0.2873 -0.1282
   47loPI   C1A  743  14.140  16.915   8.929  0.1304 -0.0778 -0.5741
   47loPI   C2A  744  13.996  16.785   8.536  0.1156 -0.0220  0.2626
   47loPI   C3A  745  14.041  16.635   8.168  0.1053 -0.0715 -0.0724
   47loPI   C4A  746  13.976  16.553   7.770  0.0962  0.4279  0.1800
   47loPI   C5A  747  13.864  16.806   7.450  0.3259 -0.2167  0.1391
   47loPI   C6A  748  13.775  17.107   7.118 -0.0067  0.4649 -0.2705
   47loPI   C1B  749  14.118  17.487   8.924 -0.0342 -0.1727  0.1223
   47loPI   C2B  750  14.063  17.318   8.535  0.3453  0.2741 -0.0246
   47loPI   C3B  751  13.934  17.142   8.132  0.5265 -0.2111  0.0653
   47loPI   C4B  752  14.247  16.993   7.812  0.2859 -0.4414  0.0138
   48loPI    C1  753  13.365  17.990   9.896 -0.0986 -0.0518  0.1954
   48loPI    C2  754  13.580  18.263   9.698 -0.1738 -0.2809 -0.2127
   48loPI    C3  755  13.605  18.240  10.096  0.1732  0.0231 -0.2114
   48loPI   PO4  756  13.162  17.941   9.790  0.0200  0.1082 -0.3308
   48loPI   GL1  757  12.823  18.076   9.514 -0.0977  0.1612  0.0858
   48loPI   GL2  758  12.508  18.169   9.573  0.1421 -0.3112 -0.2112
   48loPI   C1A  759  12.852  18.070   9.119  0.1242 -0.3919 -0.1627
   48loPI   C2A  760  12.920  18.091   8.758  0.0109 -0.2883  0.1402
   48loPI   C3A  761  12.831  18.065   8.352 -0.1052  0.0008  0.2167
   48loPI   C4A  762  12.572  18.064   8.016 -0.2155 -0.2130 -0.2776
   48loPI   C5A  763  12.292  17.882   7.728 -0.0504  0.6117 -0.1126
   48loPI   C6A  764  11.855  18.008   7.662  0.3485  0.3790 -0.3487
   48loPI   C1B  765  12.357  18.235   9.196 -0.1403 -0.0558 -0.2679
   48loPI   C2B  766  12.351  18.269   8.706  0.3543  0.1783 -0.2694
   48loPI   C3B  767  12.221  18.191   8.329  0.0289 -0.0174  0.2144
   48loPI   C4B  768  12.251  18.398   7.901  0.3764 -0.0854 -0.0500
   49loPI    C1  769  17.015   2.160   9.383  0.4158  0.3206 -0.0303
   49loPI    C2  770  16.844   2.239   9.736 -0.0301  0.2438 -0.2222
   49loPI    C3  771  17.066   1.909   9.690 -0.2156  0.0990 -0.0930
   49loPI   PO4  772  16.677   2.216   9.282 -0.2101 -0.1113  0.0735
   49loPI   GL1  773  16.481   2.016   8.972 -0.1965 -0.0738 -0.1473
   49loPI   GL2  774  16.237   1.720   8.987 -0.0208 -0.0412 -0.2289
   49loPI   C1A  775  16.386   2.141   8.602 -0.2361  0.1299  0.2578
   49loPI   C2A  776  16.356   2.010   8.111  0.3470  0.2767 -0.1362
   49loPI   C3A  777  16.183   1.723   7.762  0.1914 -0.0918  0.0320
   49loPI   C4A  778  15.711   1.790   7.651 -0.2815  0.0476  0.3604
   49loPI   C5A  779  15.522   1.950   7.328  0.2874  0.1226 -0.1682
   49loPI   C6A  780  15.199   2.062   7.095 -0.0123 -0.1592 -0.4479
   49loPI   C1B  781  16.238   1.678   8.626  0.0262 -0.0566 -0.0613
   49loPI   C2B  782  16.252   1.533   8.301  0.2527 -0.2119 -0.0077
   49loPI   C3B  783  16.557   1.468   7.964  0.1818  0.1857 -0.3190
   49loPI   C4B  784  16.751   1.220   7.629 -0.0061 -0.2874 -0.1328
   50loPI    C1  785   8.140   8.606  10.491  0.1533 -0.0371  0.1345
   50loPI    C2  786   8.529   8.589  10.583  0.1931 -0.0842 -0.0399
   50loPI    C3  787   8.271   8.338  10.757  0.2259  0.0104  0.1471
   50loPI   PO4  788   8.166   8.577  10.206 -0.0288  0.1923 -0.3039
   50loPI   GL1  789   8.500   8.669  10.046  0.3422 -0.0333  0.1348
   50loPI   GL2  790   8.497   8.890   9.968  0.1338 -0.2063  0.2796
   50loPI   C1A  791   8.729   8.323   9.875 -0.0196  0.0915 -0.0206
   50loPI   C2A  792   8.790   8.359   9.423  0.2687  0.2447 -0.3203
   50loPI   C3A  793   8.801   8.334   8.923  0.0512 -0.3315 -0.3090
   50loPI   C4A  794   8.760   8.359   8.522 -0.0396  0.3381 -0.1027
   50loPI   C5A  795   8.796   8.331   8.088 -0.2861  0.2402 -0.1995
   50loPI   C6A  796   8.627   8.355   7.683 -0.4710 -0.2497 -0.1971
   50loPI   C1B  797   8.662   8.881   9.568  0.0866  0.1316 -0.0335
   50loPI   C2B  798   8.654   8.834   9.110  0.1275  0.1873  0.1183
   50loPI   C3B  799   8.704   8.879   8.729 -0.1568 -0.0859  0.3238
   50loPI   C4B  800   8.837   8.802   8.337 -0.0483  0.2767  0.1318
   51loPI    C1  801   2.942   4.663  10.232 -0.0348 -0.0438 -0.1927
   51loPI    C2  802   3.203   4.901  10.419 -0.1365  0.0817 -0.2091
   51loPI    C3  803   3.092   4.555  10.587 -0.1972  0.1748 -0.0550
   51loPI   PO4  804   3.062   4.616   9.993  0.0954  0.0862 -0.2146
   51loPI   GL1  805   2.921   4.837   9.653  0.3274 -0.1396  0.0944
   51loPI   GL2  806   3.166   4.961   9.607 -0.1353 -0.2143  0.3145
   51loPI   C1A  807   2.834   4.672   9.243 -0.0004  0.1025 -0.1624
   51loPI   C2A  808   2.858   4.567   8.822 -0.2640 -0.1175 -0.1304
   51loPI   C3A  809   3.042   4.611   8.402  0.0521  0.1844 -0.1389
   51loPI   C4A  810   3.026   4.586   8.034  0.0449 -0.1933 -0.2610
   51loPI   C5A  811   2.706   4.553   7.666  0.1805  0.0153  0.1623
   51loPI   C6A  812   2.307   4.447   7.621  0.0681 -0.4014 -0.2522
   51loPI   C1B  813   3.258   4.960   9.227  0.2510  0.1045  0.0655
   51loPI   C2B  814   3.206   4.922   8.806 -0.0135 -0.1639 -0.2836
   51loPI   C3B  815   3.395   4.912   8.497  0.0219  0.1179  0.1035
   51loPI   C4B  816   3.448   4.792   8.092  0.5925  0.0198  0.1923
   52loPI    C1  817   1.600  11.034   9.974 -0.0033 -0.0020 -0.1690
   52loPI    C2  818   1.768  10.731  10.173 -0.0538  0.1249  0.0709
   52loPI    C3  819   1.545  10.999  10.369 -0.1606  0.2143 -0.1697
   52loPI   PO4  820   1.591  10.979   9.755 -0.1506 -0.1097 -0.0153
   52loPI   GL1  821   1.545  10.974   9.319  0.2046  0.2889 -0.2530
   52loPI   GL2  822   1.896  10.740   9.324  0.2414 -0.1279 -0.2071
   52loPI   C1A  823   1.611  10.869   8.915 -0.1856 -0.3035  0.4790
   52loPI   C2A  824   1.723  10.728   8.504 -0.1341 -0.0499  0.0327
   52loPI   C3A  825   1.737  10.822   8.082  0.1541 -0.0854  0.1178
   52loPI   C4A  826   1.643  10.840   7.564 -0.0261  0.0109  0.0304
   52loPI   C5A  827   1.702  10.743   7.107 -0.1125  0.2020  0.0158
   52loPI   C6A  828   1.994  10.709   6.800 -0.3110  0.2502 -0.1673
   52loPI   C1B  829   2.106  10.592   8.901 -0.1996 -0.2629  0.1248
   52loPI   C2B  830   2.188  10.550   8.443 -0.2441 -0.3343 -0.1930
   52loPI   C3B  831   2.250  10.563   8.038 -0.0820 -0.0511 -0.1196
   52loPI   C4B  832   2.159  10.608   7.675  0.0442  0.2563  0.0391
   53loPI    C1  833   1.953   3.158  10.205  0.0522 -0.1210 -0.0443
   53loPI    C2  834   1.882   2.860   9.947  0.1790 -0.1643 -0.0300
   53loPI    C3  835   2.081   2.788  10.286  0.2515 -0.0543 -0.0487
   53loPI   PO4  836   2.065   3.320  10.053  0.1577 -0.1894 -0.0904
   53loPI   GL1  837   1.978   3.458   9.655 -0.4529  0.0591  0.1259
   53loPI   GL2  838   2.288   3.366   9.621 -0.1119 -0.3227 -0.2118
   53loPI   C1A  839   1.861   3.025   9.465  0.0718 -0.1250  0.1564
   53loPI   C2A  840   1.830   2.908   9.088 -0.2955 -0.3361 -0.0455
   53loPI   C3A  841   1.834   2.958   8.723 -0.1855 -0.3286  0.0426
   53loPI   C4A  842   1.935   2.659   8.352  0.3505  0.3452  0.1734
   53loPI   C5A  843   1.927   2.587   7.908  0.0150  0.1493  0.0103
   53loPI   C6A  844   1.697   2.610   7.554  0.2569  0.1314  0.0443
   53loPI   C1B  845   2.193   3.399   9.118  0.0954  0.0253  0.1959
   53loPI   C2B  846   2.223   3.446   8.622  0.0760  0.1177  0.3574
   53loPI   C3B  847   2.309   3.427   8.188  0.0107  0.0959  0.2784
   53loPI   C4B  848   2.382   3.481   7.862 -0.1991  0.1823 -0.0947
   54loPI    C1  849  12.082   9.274  11.095  0.0491  0.1674  0.2865
   54loPI    C2  850  11.782   9.180  10.848  0.2492  0.2028  0.0252
   54loPI    C3  851  11.711   9.233  11.238 -0.0227 -0.1310  0.0259
   54loPI   PO4  852  12.278   9.021  10.937  0.1276 -0.4137  0.4077
   54loPI   GL1  853  12.416   8.736  10.555  0.0495 -0.4658 -0.1231
   54loPI   GL2  854  12.444   8.354  10.384  0.2006  0.1367 -0.0759
   54loPI   C1A  855  12.199   8.862  10.197  0.1808  0.0028  0.1531
   54loPI   C2A  856  12.018   8.805   9.790  0.0255  0.2855  0.0855
   54loPI   C3A  857  12.020   8.771   9.351 -0.0098 -0.1970  0.0744
   54loPI   C4A  858  11.926   8.685   8.964 -0.2066  0.1214 -0.0383
   54loPI   C5A  859  11.810   8.638   8.497  0.1126  0.2146 -0.2836
   54loPI   C6A  860  11.884   8.495   8.121 -0.0450 -0.1800  0.0183
   54loPI   C1B  861  12.693   8.073   9.998 -0.0372  0.3440  0.4021
   54loPI   C2B  862  12.602   8.179   9.520  0.3731  0.4474 -0.0224
   54loPI   C3B  863  12.559   8.121   9.183 -0.1824  0.1039 -0.2263
   54loPI   C4B  864  12.511   7.968   8.769  0.0298  0.0115 -0.3797
   55loPI    C1  865  18.311   3.196   9.870  0.1503 -0.0954 -0.1778
   55loPI    C2  866  18.498   2.856   9.969  0.2505 -0.0505 -0.2117
   55loPI    C3  867  18.346   3.090  10.255  0.2799 -0.0681 -0.1816
   55loPI   PO4  868  18.563   3.305   9.611  0.2420  0.3151 -0.1291
   55loPI   GL1  869  18.515   3.229   9.129  0.1443 -0.2037 -0.2223
   55loPI   GL2  870  18.801   3.060   8.946  0.0048 -0.0557  0.2505
   55loPI   C1A  871  18.529   3.514   8.763  0.3375 -0.3058 -0.4996
   55loPI   C2A  872  18.441   3.750   8.551 -0.1672  0.1189  0.1319
   55loPI   C3A  873  18.402   3.721   8.107 -0.2261  0.0460 -0.1913
   55loPI   C4A  874  18.579   3.962   7.866 -0.0738  0.1330  0.3172
   55loPI   C5A  875  18.613   3.803   7.444 -0.0312 -0.1356  0.2209
   55loPI   C6A  876  18.928   3.794   7.480  0.0984  0.1508 -0.0483
   55loPI   C1B  877  18.810   3.121   8.549  0.2289  0.0259  0.0628
   55loPI   C2B  878  18.532   3.263   8.223  0.1916 -0.2646  0.3205
   55loPI   C3B  879  18.499   3.326   7.750  0.2305  0.2611 -0.0160
   55loPI   C4B  880  18.903   3.327   7.430  0.0280 -0.1966 -0.0893
   56loPI    C1  881   7.444   8.061  10.697 -0.1792  0.1479 -0.4579
   56loPI    C2  882   7.092   8.231  10.785 -0.1225  0.1669 -0.2625
   56loPI    C3  883   7.254   7.964  11.035 -0.0623  0.0562 -0.4180
   56loPI   PO4  884   7.382   8.085  10.411 -0.0633 -0.2879 -0.1898
   56loPI   GL1  885   7.579   8.030  10.005 -0.0619  0.1178 -0.0541
   56loPI   GL2  886   7.360   8.209   9.875 -0.0055  0.1172  0.3891
   56loPI   C1A  887   7.711   8.126   9.610  0.3107  0.0655 -0.2135
   56loPI   C2A  888   7.815   8.223   9.159  0.2440  0.0328  0.1133
   56loPI   C3A  889   7.790   8.218   8.736 -0.0820  0.0205  0.0571
   56loPI   C4A  890   7.833   8.292   8.323 -0.0865 -0.0247  0.1380
   56loPI   C5A  891   7.892   8.024   8.052  0.0591  0.2285  0.1229
   56loPI   C6A  892   7.804   7.780   7.732  0.0338  0.1671  0.1641
   56loPI   C1B  893   7.289   8.325   9.429 -0.1886  0.1731 -0.1339
   56loPI   C2B  894   7.228   8.387   8.950 -0.2779 -0.0903  0.1385
   56loPI   C3B  895   7.413   8.478   8.556  0.0167 -0.0400  0.3558
   56loPI   C4B  896   7.445   8.510   8.074 -0.1929 -0.0156 -0.1226
   57loPI    C1  897  11.980   5.011  10.359  0.0465 -0.1005  0.1269
   57loPI    C2  898  11.676   4.823  10.540 -0.0363 -0.1502 -0.0613
   57loPI    C3  899  11.815   5.167  10.688 -0.2424 -0.0824 -0.0229
   57loPI   PO4  900  11.886   4.959  10.120  0.0062  0.3201 -0.1476
   57loPI   GL1  901  11.706   4.829   9.732 -0.1736  0.0767 -0.0498
   57loPI   GL2  902  11.451   4.978   9.875  0.4004  0.0913 -0.1347
   57loPI   C1A  903  11.695   4.695   9.340 -0.2322  0.0294  0.0548
   57loPI   C2A  904  11.704   4.807   8.916  0.0282 -0.1803  0.0853
   57loPI   C3A  905  11.632   4.763   8.524  0.0433  0.1855 -0.0165
   57loPI   C4A  906  11.646   4.718   8.115 -0.0193 -0.4063 -0.2086
   57loPI   C5A  907  11.477   5.066   7.750  0.3646 -0.1269 -0.1376
   57loPI   C6A  908  11.442   5.303   7.328  0.2316  0.0780 -0.1119
   57loPI   C1B  909  11.162   4.921   9.513  0.0450  0.2242  0.3076
   57loPI   C2B  910  11.135   4.856   9.084 -0.1668  0.1016 -0.3570
   57loPI   C3B  911  11.162   4.988   8.671 -0.0386  0.1080  0.0255
   57loPI   C4B  912  11.241   5.017   8.285  0.1048 -0.0452  0.1465
   58loPI    C1  913  11.236   1.115  10.766  0.1113  0.0316 -0.0115
   58loPI    C2  914  11.301   1.302  11.114  0.1552 -0.0693  0.0348
   58loPI    C3  915  11.580   1.060  10.961  0.1313 -0.0344 -0.0651
   58loPI   PO4  916  11.071   1.331  10.482  0.0347 -0.4229  0.0772
   58loPI   GL1  917  10.867   1.144  10.039 -0.2309 -0.2027  0.2579
   58loPI   GL2  918  11.234   1.371  10.028  0.2422 -0.0173  0.1324
   58loPI   C1A  919  10.717   0.984   9.599  0.0942 -0.4225 -0.2196
   58loPI   C2A  920  10.634   0.893   9.205 -0.0404  0.0013 -0.3979
   58loPI   C3A  921  10.625   0.873   8.763  0.1765  0.0904  0.0747
   58loPI   C4A  922  10.568   0.949   8.286 -0.1959  0.1577 -0.2083
   58loPI   C5A  923  10.522   0.863   7.728 -0.0426 -0.1072 -0.0772
   58loPI   C6A  924  10.860   0.808   7.325 -0.1323 -0.2492  0.2788
   58loPI   C1B  925  11.186   1.231   9.577 -0.3071  0.0266 -0.1907
   58loPI   C2B  926  11.078   1.191   9.166  0.0157 -0.0405 -0.2259
   58loPI   C3B  927  11.047   1.211   8.667 -0.2895 -0.0481 -0.3029
   58loPI   C4B  928  10.907   1.396   8.298 -0.0083 -0.1141  0.1005
   59loPI    C1  929   7.332   5.625  10.773  0.2497  0.1295 -0.1995
   59loPI    C2  930   7.182   5.992  10.822  0.1997  0.0773  0.0490
   59loPI    C3  931   7.168   5.728  11.123  0.1110 -0.1735 -0.1712
   59loPI   PO4  932   7.455   5.725  10.467 -0.1596 -0.0926  0.1275
   59loPI   GL1  933   7.329   5.544  10.115 -0.0724 -0.1174  0.2088
   59loPI   GL2  934   7.038   5.784   9.940  0.0310  0.0416  0.1719
   59loPI   C1A  935   7.315   5.457   9.708 -0.0468 -0.4662 -0.1582
   59loPI   C2A  936   7.330   5.440   9.327  0.4049 -0.1906  0.0640
   59loPI   C3A  937   7.300   5.508   8.949  0.0723  0.0635  0.1522
   59loPI   C4A  938   7.299   5.342   8.597  0.3786 -0.0366 -0.0126
   59loPI   C5A  939   7.251   5.287   8.172 -0.0470 -0.0228 -0.5992
   59loPI   C6A  940   7.463   5.322   7.731 -0.0023  0.4947  0.0761
   59loPI   C1B  941   7.277   5.922   9.522 -0.1686 -0.1851  0.2859
   59loPI   C2B  942   7.295   5.962   9.146  0.1522  0.1954 -0.1941
   59loPI   C3B  943   7.258   5.928   8.736 -0.1306 -0.1602  0.2031
   59loPI   C4B  944   7.231   5.812   8.385 -0.1514 -0.1095  0.0972
   60loPI    C1  945   0.506  15.806   9.922 -0.1425 -0.0304 -0.0320
   60loPI    C2  946   0.643  15.569  10.213  0.1817 -0.0222 -0.1734
   60loPI    C3  947   0.712  15.963  10.227 -0.0365  0.0156 -0.1263
   60loPI   PO4  948   0.616  15.671   9.596 -0.0766  0.3335 -0.0069
   60loPI   GL1  949   0.692  15.835   9.204 -0.0379 -0.2276  0.1288
   60loPI   GL2  950   1.013  16.142   9.392  0.0512 -0.4904  0.2103
   60loPI   C1A  951   0.245  15.694   9.060 -0.3446 -0.0725 -0.1443
   60loPI   C2A  952  -0.083  15.742   8.795  0.0295  0.3000 -0.0919
   60loPI   C3A  953  -0.296  15.887   8.260 -0.1345  0.0692 -0.0820
   60loPI   C4A  954  -0.233  16.010   7.799  0.1070  0.3239 -0.1024
   60loPI   C5A  955  -0.169  15.766   7.368 -0.0643 -0.1002 -0.2002
   60loPI   C6A  956  -0.323  15.384   7.189 -0.2888  0.0170  0.2201
   60loPI   C1B  957   1.105  16.244   9.009  0.1544 -0.0807  0.1746
   60loPI   C2B  958   0.793  16.032   8.713 -0.0754  0.0301  0.1064
   60loPI   C3B  959   0.682  15.567   8.778 -0.1999  0.0045  0.2290
   60loPI   C4B  960   0.402  15.550   8.579 -0.3401  0.0509  0.2028
   61loPI    C1  961  10.944   8.449  11.166 -0.1623 -0.1501 -0.1218
   61loPI    C2  962  10.576   8.452  11.322 -0.1358 -0.1894 -0.0580
   61loPI    C3  963  10.883   8.316  11.538 -0.1090 -0.3048 -0.1679
   61loPI   PO4  964  10.856   8.327  10.844 -0.1510  0.1150  0.0413
   61loPI   GL1  965  10.706   8.380  10.486 -0.2409 -0.4147  0.2972
   61loPI   GL2  966  10.531   8.192  10.356  0.0386 -0.1232 -0.0412
   61loPI   C1A  967  10.700   8.596  10.087 -0.0307  0.0376  0.1089
   61loPI   C2A  968  10.646   8.594   9.668 -0.2112  0.0585 -0.0198
   61loPI   C3A  969  10.582   8.736   9.357 -0.2570  0.2239  0.0461
   61loPI   C4A  970  10.444   8.598   8.917 -0.0378 -0.1283  0.0343
   61loPI   C5A  971  10.612   8.627   8.612 -0.1574 -0.0542  0.0113
   61loPI   C6A  972  10.785   8.837   8.321  0.1480 -0.0039 -0.0254
   61loPI   C1B  973  10.582   8.083   9.905 -0.0339  0.0406 -0.0766
   61loPI   C2B  974  10.762   8.059   9.632  0.0498  0.2541  0.0313
   61loPI   C3B  975  10.619   8.134   9.199  0.0061  0.0533  0.0827
   61loPI   C4B  976  10.596   8.147   8.834  0.0501  0.2711 -0.1252
   62loPI    C1  977   4.230  11.695  10.433 -0.0484  0.1260 -0.0175
   62loPI    C2  978   4.271  11.649  10.828  0.1640 -0.0284 -0.0553
   62loPI    C3  979   4.292  12.014  10.666 -0.2285  0.0714  0.1066
   62loPI   PO4  980   4.361  11.563  10.306  0.0888 -0.1871  0.0158
   62loPI   GL1  981   4.527  11.541   9.806 -0.2727  0.1174  0.0289
   62loPI   GL2  982   4.431  11.303   9.707 -0.0405  0.0471  0.5394
   62loPI   C1A  983   4.385  11.799   9.456  0.4234  0.1318 -0.0624
   62loPI   C2A  984   4.271  11.797   9.013  0.0121 -0.0970  0.1521
   62loPI   C3A  985   4.341  11.902   8.609  0.0354 -0.1921 -0.0020
   62loPI   C4A  986   4.383  11.781   8.199 -0.1011  0.0004  0.0153
   62loPI   C5A  987   4.463  11.815   7.781 -0.0865  0.1178  0.0012
   62loPI   C6A  988   4.722  11.934   7.469 -0.0116  0.1684  0.1153
   62loPI   C1B  989   4.424  11.359   9.205  0.0214  0.0670 -0.0310
   62loPI   C2B  990   4.473  11.306   8.811  0.1816 -0.2541  0.1022
   62loPI   C3B  991   4.364  11.341   8.403 -0.1273 -0.2913  0.2212
   62loPI   C4B  992   4.361  11.265   7.881  0.0709 -0.0226  0.0629
   63loPI    C1  993   8.423   5.910  10.785  0.1787  0.2038  0.1140
   63loPI    C2  994   8.131   5.922  11.057 -0.1450 -0.0432 -0.2124
   63loPI    C3  995   8.393   5.620  11.058 -0.0724  0.0196 -0.1034
   63loPI   PO4  996   8.260   6.048  10.590 -0.3323 -0.2421 -0.0776
   63loPI   GL1  997   8.186   5.905  10.213  0.0440 -0.0115 -0.3842
   63loPI   GL2  998   7.863   5.933  10.277  0.0956 -0.2184  0.1149
   63loPI   C1A  999   8.113   6.119   9.797 -0.1106 -0.3923 -0.0589
   63loPI   C2A 1000   8.234   6.099   9.356 -0.0654 -0.0378  0.1187
   63loPI   C3A 1001   8.107   6.079   8.951  0.4285  0.2135 -0.0880
   63loPI   C4A 1002   7.992   5.999   8.561  0.0521  0.0989  0.2658
   63loPI   C5A 1003   8.296   5.868   8.150 -0.0521  0.0186 -0.1845
   63loPI   C6A 1004   8.296   5.958   7.711 -0.0191  0.2297 -0.3376
   63loPI   C1B 1005   7.593   5.889   9.900 -0.0187  0.0979  0.0008
   63loPI   C2B 1006   7.796   5.882   9.449  0.1781  0.0326  0.2233
   63loPI   C3B 1007   7.734   5.740   9.004 -0.1529 -0.1366  0.1124
   63loPI   C4B 1008   7.712   5.618   8.614 -0.1762  0.2353 -0.1106
   64loPI    C1 1009   0.414  13.270   9.764  0.0173 -0.1612 -0.0900
   64loPI    C2 1010   0.408  13.038  10.089 -0.3492 -0.1272 -0.0683
   64loPI    C3 1011   0.188  13.372  10.078 -0.0050  0.1013 -0.1883
   64loPI   PO4 1012   0.540  12.973   9.605  0.3886  0.1082 -0.1347
   64loPI   GL1 1013   0.690  13.024   9.216  0.2644  0.0523  0.0446
   64loPI   GL2 1014   0.811  13.292   9.342  0.0931 -0.0080  0.1430
   64loPI   C1A 1015   0.704  13.094   8.785  0.1724  0.1634  0.1562
   64loPI   C2A 1016   0.544  12.977   8.430 -0.0747 -0.0055  0.0867
   64loPI   C3A 1017   0.475  12.844   8.040 -0.1736 -0.1773 -0.1980
   64loPI   C4A 1018   0.516  13.008   7.671 -0.0677  0.0570 -0.1619
   64loPI   C5A 1019   0.652  13.205   7.330 -0.4583 -0.4150 -0.3490
   64loPI   C6A 1020   0.643  13.700   7.272 -0.1906 -0.0432  0.0492
   64loPI   C1B 1021   1.035  13.301   9.027  0.4146 -0.0263  0.2132
   64loPI   C2B 1022   1.125  13.384   8.561  0.2487  0.1142  0.1456
   64loPI   C3B 1023   1.107  13.463   8.193  0.1246 -0.2348  0.1022
   64loPI   C4B 1024   0.847  13.365   7.796 -0.0285  0.0359 -0.0134
   65loPI    C1 1025  18.598  15.612   9.941 -0.0325 -0.0367 -0.1352
   65loPI    C2 1026  18.337  15.826  10.155  0.0381  0.1751 -0.2569
   65loPI    C3 1027  18.436  15.456  10.271  0.0763  0.2863  0.0760
   65loPI   PO4 1028  18.518  15.610   9.597  0.0429 -0.1274 -0.1030
   65loPI   GL1 1029  18.556  15.411   9.225  0.0217  0.1804 -0.0788
   65loPI   GL2 1030  18.647  15.213   9.095  0.2928  0.0345 -0.1192
   65loPI   C1A 1031  18.347  15.687   9.004  0.2094  0.2687  0.0810
   65loPI   C2A 1032  18.202  16.099   8.844  0.3045 -0.0156  0.3276
   65loPI   C3A 1033  18.037  16.138   8.410  0.1001 -0.3873  0.0480
   65loPI   C4A 1034  18.086  16.062   7.950 -0.1167  0.1464 -0.1583
   65loPI   C5A 1035  18.202  15.739   7.701 -0.3219  0.0186  0.4323
   65loPI   C6A 1036  17.886  15.600   7.440 -0.1570 -0.0495 -0.1379
   65loPI   C1B 1037  18.830  15.295   8.677  0.2689 -0.1763 -0.1658
   65loPI   C2B 1038  18.859  15.465   8.280  0.2288 -0.1611 -0.1843
   65loPI   C3B 1039  18.992  15.694   8.152 -0.0639 -0.1026 -0.0616
   65loPI   C4B 1040  19.093  16.195   7.980  0.1837 -0.1184  0.2004
   66loPI    C1 1041  18.669   4.137   9.832 -0.1712 -0.0394  0.0183
   66loPI    C2 1042  18.635   4.335  10.178  0.3400 -0.1028  0.1126
   66loPI    C3 1043  18.904   4.041  10.141  0.1866 -0.1990 -0.2954
   66loPI   PO4 1044  18.659   4.414   9.580  0.1768 -0.2240  0.0339
   66loPI   GL1 1045  18.764   4.366   9.261 -0.1723 -0.4155 -0.2262
   66loPI   GL2 1046  18.423   4.442   9.113 -0.2277  0.2684  0.1831
   66loPI   C1A 1047  19.055   4.427   8.905 -0.0915  0.1685  0.1765
   66loPI   C2A 1048  19.073   4.488   8.372  0.1122  0.1048 -0.3721
   66loPI   C3A 1049  19.116   4.631   7.949  0.2006 -0.0877  0.1609
   66loPI   C4A 1050  19.161   4.421   7.519 -0.0219 -0.2744 -0.2655
   66loPI   C5A 1051  19.458   4.550   7.273 -0.3662  0.0686 -0.0213
   66loPI   C6A 1052  19.318   4.697   6.880 -0.0840  0.1851 -0.2745
   66loPI   C1B 1053  18.499   4.533   8.731 -0.1460  0.3351 -0.3584
   66loPI   C2B 1054  18.547   4.729   8.375 -0.0382  0.2821  0.2459
   66loPI   C3B 1055  18.453   4.911   7.939 -0.4284 -0.0557  0.2710
   66loPI   C4B 1056  18.637   4.930   7.548 -0.2156 -0.1190 -0.0033
   67loPI    C1 1057   8.139  16.914  10.606 -0.3593  0.0650 -0.0855
   67loPI    C2 1058   8.046  16.652  10.893  0.0473  0.1380  0.1209
   67loPI    C3 1059   7.897  17.023  10.905 -0.1753  0.0522  0.0697
   67loPI   PO4 1060   8.197  16.821  10.421 -0.0221  0.0363 -0.0747
   67loPI   GL1 1061   8.128  16.570  10.091 -0.0054 -0.0337 -0.2701
   67loPI   GL2 1062   8.471  16.448  10.162  0.1844 -0.0547  0.2368
   67loPI   C1A 1063   8.519  16.622   9.690  0.3064  0.1388 -0.2185
   67loPI   C2A 1064   8.531  16.580   9.347  0.4165 -0.1167  0.1404
   67loPI   C3A 1065   8.429  16.676   8.827  0.0470 -0.0107 -0.0719
   67loPI   C4A 1066   8.504  16.620   8.421  0.1394 -0.1609 -0.1568
   67loPI   C5A 1067   8.586  16.275   8.153  0.2598  0.0758  0.3741
   67loPI   C6A 1068   8.427  15.996   7.744 -0.4270  0.1260 -0.0302
   67loPI   C1B 1069   8.628  16.127   9.785  0.0872 -0.3812 -0.1263
   67loPI   C2B 1070   8.574  16.050   9.454 -0.1263 -0.3854 -0.1456
   67loPI   C3B 1071   8.562  16.042   8.985  0.2112  0.2322  0.1926
   67loPI   C4B 1072   8.537  16.111   8.594 -0.0388 -0.0440 -0.0795
   68loPI    C1 1073   4.448   1.835  10.206 -0.4366  0.1416 -0.2622
   68loPI    C2 1074   4.190   1.600  10.401 -0.3469  0.1425 -0.1413
   68loPI    C3 1075   4.511   1.745  10.591 -0.2199  0.0845 -0.3096
   68loPI   PO4 1076   4.398   2.057  10.020 -0.0648 -0.1762 -0.0973
   68loPI   GL1 1077   4.619   2.087   9.677  0.2162  0.2604 -0.0327
   68loPI   GL2 1078   4.880   1.966   9.560  0.0555 -0.1078  0.2331
   68loPI   C1A 1079   4.270   2.151   9.372 -0.1437 -0.2752  0.0810
   68loPI   C2A 1080   4.350   2.200   8.926  0.1215  0.0470 -0.2469
   68loPI   C3A 1081   4.259   2.145   8.486 -0.0399  0.2472  0.2116
   68loPI   C4A 1082   4.365   2.201   8.079 -0.1838 -0.2512  0.4266
   68loPI   C5A 1083   4.244   2.217   7.619  0.1448  0.0923  0.1084
   68loPI   C6A 1084   3.887   2.304   7.481 -0.2103  0.1413  0.2795
   68loPI   C1B 1085   4.908   2.034   9.126 -0.2738  0.1737  0.0021
   68loPI   C2B 1086   4.962   1.946   8.722 -0.1770  0.0267 -0.1206
   68loPI   C3B 1087   4.849   1.944   8.313 -0.0059  0.0536  0.0911
   68loPI   C4B 1088   4.795   1.941   7.955 -0.0542 -0.2936  0.0490
   69loPI    C1 1089   9.516  17.545  10.195 -0.2908 -0.0470 -0.3249
   69loPI    C2 1090   9.418  17.560  10.582 -0.0211  0.0846 -0.2592
   69loPI    C3 1091   9.267  17.828  10.327  0.0385  0.1860 -0.1888
   69loPI   PO4 1092   9.558  17.299  10.149  0.1090  0.3826 -0.2842
   69loPI   GL1 1093   9.311  17.177   9.827  0.0217 -0.0372  0.4104
   69loPI   GL2 1094   9.428  16.939   9.746  0.0793  0.2455 -0.1408
   69loPI   C1A 1095   9.241  17.284   9.390 -0.0796  0.0296  0.0936
   69loPI   C2A 1096   9.215  17.328   8.958 -0.0158 -0.0802 -0.3866
   69loPI   C3A 1097   9.215  17.338   8.526  0.0611 -0.0099  0.1931
   69loPI   C4A 1098   9.285  17.267   7.994  0.1519  0.1151  0.2298
   69loPI   C5A 1099   9.591  17.065   7.660 -0.0139  0.0948 -0.0520
   69loPI   C6A 1100   9.737  16.635   7.516  0.2586 -0.1783  0.0550
   69loPI   C1B 1101   9.423  16.821   9.214  0.2222  0.0405 -0.2455
   69loPI   C2B 1102   9.425  16.792   8.764 -0.1117  0.0322  0.0912
   69loPI   C3B 1103   9.285  16.857   8.393 -0.1824  0.1271 -0.1023
   69loPI   C4B 1104   9.353  16.781   7.963  0.1139  0.2705  0.2469
   70loPI    C1 1105   0.669  10.058  10.061 -0.0272 -0.0408 -0.0799
   70loPI    C2 1106   0.881  10.341  10.248  0.0330  0.0218 -0.2409
   70loPI    C3 1107   0.761  10.016  10.448  0.4519 -0.1114 -0.1955
   70loPI   PO4 1108   0.738  10.084   9.824 -0.3447 -0.3163 -0.2245
   70loPI   GL1 1109   0.669  10.199   9.310 -0.3987  0.1591 -0.1143
   70loPI   GL2 1110   0.942  10.008   9.356  0.0881  0.1053  0.1096
   70loPI   C1A 1111   0.798  10.145   8.890 -0.0917 -0.2240 -0.0049
   70loPI   C2A 1112   0.745  10.006   8.484  0.0275 -0.1134 -0.0725
   70loPI   C3A 1113   0.759  10.061   8.131 -0.0721  0.1118 -0.0602
   70loPI   C4A 1114   0.665   9.917   7.705 -0.1451 -0.0705  0.0618
   70loPI   C5A 1115   0.904   9.899   7.367 -0.1253 -0.2546 -0.2966
   70loPI   C6A 1116   1.030   9.625   7.096 -0.0829 -0.0892 -0.2441
   70loPI   C1B 1117   0.867   9.616   9.060 -0.3435 -0.1943 -0.2027
   70loPI   C2B 1118   0.912   9.577   8.661 -0.0271  0.0565  0.0006
   70loPI   C3B 1119   0.958   9.509   8.292  0.3578 -0.0363  0.3830
   70loPI   C4B 1120   0.916   9.484   7.880  0.0013 -0.1219 -0.0721
   71loPI    C1 1121  15.690  18.248   9.491 -0.1545  0.2768 -0.1488
   71loPI    C2 1122  15.555  18.251   9.867  0.0429 -0.1900 -0.0675
   71loPI    C3 1123  15.476  18.559   9.624  0.0230  0.1783  0.3906
   71loPI   PO4 1124  15.883  17.950   9.496  0.0145  0.1776 -0.2364
   71loPI   GL1 1125  15.962  17.708   9.226 -0.1241  0.2785  0.0672
   71loPI   GL2 1126  16.099  17.895   8.994 -0.1012 -0.1254  0.3431
   71loPI   C1A 1127  15.799  17.497   8.835  0.1254  0.5879  0.0571
   71loPI   C2A 1128  15.614  17.031   8.902 -0.0491  0.0591 -0.5462
   71loPI   C3A 1129  15.393  16.722   8.591  0.0507  0.1606  0.1275
   71loPI   C4A 1130  15.332  16.671   8.221 -0.2570  0.0836 -0.1229
   71loPI   C5A 1131  15.120  16.525   8.001  0.3432  0.2017  0.0665
   71loPI   C6A 1132  14.895  16.407   7.739 -0.0660  0.0039 -0.0126
   71loPI   C1B 1133  15.992  18.090   8.535 -0.0292  0.0095 -0.1964
   71loPI   C2B 1134  16.027  18.064   8.112  0.0241  0.3415 -0.0828
   71loPI   C3B 1135  16.056  18.281   7.688  0.1553  0.0193  0.1406
   71loPI   C4B 1136  16.213  18.022   7.371 -0.0382 -0.0000 -0.0419
   72loPI    C1 1137  16.470  17.290   9.883 -0.0811  0.0765 -0.0204
   72loPI    C2 1138  16.378  16.920  10.002  0.1300  0.0050 -0.0760
   72loPI    C3 1139  16.233  17.235  10.201  0.0666 -0.1084  0.0594
   72loPI   PO4 1140  16.356  17.373   9.562 -0.0154  0.1303 -0.1733
   72loPI   GL1 1141  16.360  17.407   9.095  0.3922  0.2133 -0.1165
   72loPI   GL2 1142  16.386  17.073   9.098 -0.1334 -0.0082 -0.1616
   72loPI   C1A 1143  16.663  17.317   8.778 -0.3139 -0.0989 -0.0939
   72loPI   C2A 1144  16.553  17.369   8.276  0.0418  0.2980 -0.1860
   72loPI   C3A 1145  16.155  17.226   8.056 -0.2727  0.3431 -0.1850
   72loPI   C4A 1146  16.010  17.084   7.770  0.1339  0.1641  0.1008
   72loPI   C5A 1147  16.032  17.108   7.401 -0.0231 -0.0263  0.3572
   72loPI   C6A 1148  16.301  17.077   7.009 -0.0037  0.1872  0.0385
   72loPI   C1B 1149  16.218  17.165   8.667  0.2785  0.1853  0.1154
   72loPI   C2B 1150  15.854  17.077   8.499 -0.0550  0.0254 -0.2384
   72loPI   C3B 1151  15.504  17.261   8.482  0.1171 -0.2592  0.0335
   72loPI   C4B 1152  15.326  17.703   8.475 -0.0319 -0.2799  0.2448
   73loPI    C1 1153  14.051  13.040  10.066 -0.2624 -0.1746  0.2505
   73loPI    C2 1154  14.153  13.298  10.354 -0.0142  0.1029 -0.0785
   73loPI    C3 1155  14.268  12.916  10.378  0.1599  0.1648  0.1007
   73loPI   PO4 1156  13.748  13.066  10.025  0.0174 -0.3381 -0.0386
   73loPI   GL1 1157  13.569  12.747   9.823 -0.2789  0.1456 -0.0475
   73loPI   GL2 1158  13.540  12.497   9.614 -0.0760  0.1491  0.0886
   73loPI   C1A 1159  13.453  12.987   9.415  0.0823  0.1912  0.2241
   73loPI   C2A 1160  13.347  13.031   9.050  0.0927  0.0070  0.2656
   73loPI   C3A 1161  13.362  13.006   8.606  0.1989  0.3582  0.1626
   73loPI   C4A 1162  13.352  12.968   8.177 -0.0822  0.0910 -0.2962
   73loPI   C5A 1163  13.258  12.946   7.746  0.1915 -0.1966 -0.3098
   73loPI   C6A 1164  13.186  12.727   7.392  0.0475  0.2618  0.0373
   73loPI   C1B 1165  13.564  12.432   9.162  0.2400 -0.2170  0.0665
   73loPI   C2B 1166  13.417  12.422   8.738 -0.0108 -0.2050 -0.2734
   73loPI   C3B 1167  13.312  12.474   8.386 -0.2698  0.0256 -0.0942
   73loPI   C4B 1168  13.345  12.506   8.022 -0.1016 -0.2047  0.2086
   74loPI    C1 1169   1.688  11.530  10.303  0.0798 -0.0841  0.1600
   74loPI    C2 1170   1.309  11.404  10.280  0.0395  0.0885 -0.1945
   74loPI    C3 1171   1.423  11.640  10.583 -0.0834 -0.1275  0.0240
   74loPI   PO4 1172   1.743  11.547  10.035 -0.1478 -0.1963 -0.0132
   74loPI   GL1 1173   1.791  11.365   9.549 -0.0130  0.2993  0.0224
   74loPI   GL2 1174   2.040  11.629   9.477  0.2446  0.1730 -0.0639
   74loPI   C1A 1175   1.913  11.205   9.167 -0.2256  0.0813 -0.0075
   74loPI   C2A 1176   2.017  11.084   8.729 -0.0885  0.0683 -0.0427
   74loPI   C3A 1177   2.076  11.109   8.320 -0.0666  0.3903 -0.1256
   74loPI   C4A 1178   2.113  11.175   7.933 -0.3340 -0.0828  0.5747
   74loPI   C5A 1179   2.086  11.155   7.489  0.0567 -0.2589 -0.0656
   74loPI   C6A 1180   2.245  10.860   7.179 -0.0402  0.0837  0.1088
   74loPI   C1B 1181   2.124  11.664   9.056  0.1854  0.0760  0.1875
   74loPI   C2B 1182   2.035  11.573   8.608 -0.2429 -0.0426 -0.2982
   74loPI   C3B 1183   1.965  11.598   8.240 -0.1764  0.0610 -0.3296
   74loPI   C4B 1184   2.034  11.673   7.843  0.1317  0.1671  0.2098
   75loPI    C1 1185   5.806   1.126  10.590  0.0991 -0.0587 -0.0172
   75loPI    C2 1186   5.587   1.267  10.893 -0.1928 -0.0978 -0.2060
   75loPI    C3 1187   5.981   1.219  10.937 -0.2345 -0.1259  0.1736
   75loPI   PO4 1188   5.727   1.247  10.416  0.2694  0.3800  0.0053
   75loPI   GL1 1189   5.811   1.053  10.026 -0.0465  0.0392  0.4992
   75loPI   GL2 1190   6.048   1.038  10.067 -0.1720 -0.0197 -0.1391
   75loPI   C1A 1191   5.915   1.259   9.565  0.0276  0.0372  0.3934
   75loPI   C2A 1192   5.953   1.178   9.111  0.0479  0.0074  0.1530
   75loPI   C3A 1193   5.942   1.090   8.688  0.0030 -0.1522 -0.2076
   75loPI   C4A 1194   5.947   1.116   8.283  0.2987  0.0290 -0.3033
   75loPI   C5A 1195   5.987   1.252   7.895 -0.1582  0.2113 -0.0436
   75loPI   C6A 1196   6.274   1.441   7.595  0.0547  0.0161 -0.2238
   75loPI   C1B 1197   6.415   1.007   9.738  0.1065 -0.1007  0.0354
   75loPI   C2B 1198   6.438   0.929   9.278  0.4055  0.2442  0.1875
   75loPI   C3B 1199   6.434   1.014   8.795  0.2000  0.0550 -0.1456
   75loPI   C4B 1200   6.458   0.972   8.386  0.1915  0.1863  0.0146
   76loPI    C1 1201   7.390  11.703  10.800  0.1621  0.0339 -0.0704
   76loPI    C2 1202   7.297  11.984  11.069 -0.0172 -0.0289 -0.0657
   76loPI    C3 1203   7.259  11.597  11.163 -0.2800 -0.0504 -0.2482
   76loPI   PO4 1204   7.555  11.905  10.621  0.2406  0.1283  0.1464
   76loPI   GL1 1205   7.728  11.897  10.139 -0.1510  0.2103  0.3521
   76loPI   GL2 1206   7.841  11.723  10.062  0.0030 -0.3386  0.0826
   76loPI   C1A 1207   7.602  12.080   9.700  0.3080 -0.2139  0.0258
   76loPI   C2A 1208   7.486  12.195   9.205 -0.0584  0.0805 -0.1816
   76loPI   C3A 1209   7.480  12.133   8.727  0.1265 -0.2239 -0.0314
   76loPI   C4A 1210   7.360  12.089   8.280 -0.3237 -0.0702  0.0564
   76loPI   C5A 1211   7.386  11.905   7.884  0.0681 -0.2269  0.1392
   76loPI   C6A 1212   7.449  11.773   7.541 -0.0002 -0.0073  0.1781
   76loPI   C1B 1213   7.896  11.619   9.706  0.1735 -0.0166  0.4359
   76loPI   C2B 1214   7.699  11.756   9.353  0.2904  0.3033 -0.2404
   76loPI   C3B 1215   7.594  11.677   8.919  0.0716  0.0318  0.0201
   76loPI   C4B 1216   7.470  11.681   8.536  0.1910 -0.1033 -0.1140
   77loPI    C1 1217  16.113  16.626   9.649  0.1685  0.0968  0.0615
   77loPI    C2 1218  16.245  16.287   9.481 -0.0993  0.0910 -0.1424
   77loPI    C3 1219  16.009  16.272   9.804 -0.2859  0.0729 -0.2776
   77loPI   PO4 1220  16.298  16.787   9.495 -0.1921 -0.0047  0.1033
   77loPI   GL1 1221  16.525  16.552   9.154 -0.0299 -0.2309 -0.0911
   77loPI   GL2 1222  16.905  16.714   9.133 -0.3680 -0.2551  0.0044
   77loPI   C1A 1223  16.578  16.567   8.692 -0.0580 -0.2258 -0.2474
   77loPI   C2A 1224  16.596  16.904   8.381  0.1036  0.0400 -0.1222
   77loPI   C3A 1225  16.515  16.644   8.071 -0.1909 -0.2575  0.1396
   77loPI   C4A 1226  16.193  16.567   7.742  0.0276 -0.0556  0.2380
   77loPI   C5A 1227  16.178  16.689   7.347  0.0016 -0.1503  0.4159
   77loPI   C6A 1228  15.873  16.535   7.051 -0.1381  0.0749  0.2543
   77loPI   C1B 1229  17.047  16.978   8.826 -0.0486 -0.0188  0.0619
   77loPI   C2B 1230  17.082  17.038   8.338  0.0102  0.1921 -0.1608
   77loPI   C3B 1231  16.882  17.073   7.923  0.0261 -0.1871  0.0959
   77loPI   C4B 1232  16.504  17.121   7.557  0.0411 -0.0776 -0.0481
   78loPI    C1 1233  18.086  14.512   9.719  0.0127 -0.3055  0.0432
   78loPI    C2 1234  17.739  14.471   9.523 -0.1012  0.0313  0.1677
   78loPI    C3 1235  17.761  14.381   9.912 -0.0507  0.0175  0.1617
   78loPI   PO4 1236  18.235  14.667   9.627  0.0658  0.0993  0.1441
   78loPI   GL1 1237  18.466  14.623   9.175 -0.2406 -0.1075 -0.3787
   78loPI   GL2 1238  18.621  14.403   9.069 -0.3446  0.0249  0.1375
   78loPI   C1A 1239  18.465  14.774   8.732  0.1514  0.1293  0.3463
   78loPI   C2A 1240  18.396  14.686   8.266 -0.1889 -0.2307  0.0195
   78loPI   C3A 1241  18.316  14.814   7.802 -0.4560  0.0213  0.2431
   78loPI   C4A 1242  18.226  14.720   7.341  0.0383  0.1812 -0.1954
   78loPI   C5A 1243  18.423  14.697   6.856  0.2942 -0.0881 -0.2638
   78loPI   C6A 1244  18.541  14.282   6.645  0.2865 -0.0830  0.3482
   78loPI   C1B 1245  18.451  14.247   8.645  0.0690 -0.1455 -0.1740
   78loPI   C2B 1246  18.443  14.107   8.232  0.0807  0.1728 -0.1551
   78loPI   C3B 1247  18.554  13.948   7.788 -0.6218 -0.1669 -0.2192
   78loPI   C4B 1248  18.778  13.823   7.432 -0.1274  0.0337 -0.3076
   79loPI    C1 1249  10.130  13.825  10.354  0.0401  0.0675  0.3501
   79loPI    C2 1250  10.435  13.764  10.605  0.1469 -0.2290  0.1528
   79loPI    C3 1251  10.090  13.568  10.657  0.1662 -0.2843  0.0752
   79loPI   PO4 1252  10.187  13.885  10.046 -0.0921  0.2749 -0.0360
   79loPI   GL1 1253   9.957  13.827   9.670 -0.2414 -0.1208 -0.0450
   79loPI   GL2 1254   9.665  13.978   9.586  0.2752 -0.1578  0.0589
   79loPI   C1A 1255  10.145  13.800   9.305  0.0680 -0.4009 -0.5129
   79loPI   C2A 1256  10.041  13.743   8.882  0.0206  0.1222 -0.0233
   79loPI   C3A 1257   9.963  13.647   8.389  0.0770  0.0288 -0.0554
   79loPI   C4A 1258  10.115  13.622   7.996 -0.2984 -0.1549  0.1226
   79loPI   C5A 1259  10.269  13.466   7.598  0.0113  0.0446  0.1838
   79loPI   C6A 1260  10.617  13.521   7.369  0.3466  0.0679  0.0116
   79loPI   C1B 1261   9.570  13.907   9.104  0.0774  0.2647 -0.2641
   79loPI   C2B 1262   9.496  13.824   8.722  0.1328  0.0862 -0.0640
   79loPI   C3B 1263   9.345  13.890   8.289 -0.0034 -0.0626 -0.0189
   79loPI   C4B 1264   9.330  13.777   7.964  0.3714  0.0429 -0.0948
   80loPI    C1 1265  14.195   0.741  10.112 -0.1726  0.0199 -0.1351
   80loPI    C2 1266  14.300   0.413  10.316 -0.0265  0.0316 -0.1902
   80loPI    C3 1267  14.174   0.739  10.511  0.1887  0.0700 -0.1126
   80loPI   PO4 1268  14.162   0.677   9.895 -0.0060  0.1750  0.0332
   80loPI   GL1 1269  13.907   0.730   9.586 -0.2673  0.2415  0.3179
   80loPI   GL2 1270  13.649   0.820   9.559 -0.1996 -0.1373  0.0558
   80loPI   C1A 1271  13.978   0.832   9.134 -0.0579 -0.1854  0.1093
   80loPI   C2A 1272  13.950   0.794   8.662 -0.0099  0.1649 -0.0823
   80loPI   C3A 1273  13.846   0.850   8.152  0.0522  0.0731 -0.2030
   80loPI   C4A 1274  13.632   0.860   7.791 -0.0795 -0.0680  0.2073
   80loPI   C5A 1275  13.226   0.645   7.441  0.1123 -0.1718 -0.0106
   80loPI   C6A 1276  12.842   0.424   7.715  0.1850 -0.2633  0.0444
   80loPI   C1B 1277  13.405   1.004   9.204  0.0650 -0.2065 -0.0776
   80loPI   C2B 1278  13.328   0.967   8.793  0.0643  0.2162  0.1327
   80loPI   C3B 1279  13.265   0.941   8.402 -0.4675 -0.4007 -0.1575
   80loPI   C4B 1280  13.186   0.952   7.921 -0.3583 -0.0847 -0.1657
   81loPI    C1 1281   1.582  16.916  10.002 -0.2904 -0.3785  0.0250
   81loPI    C2 1282   1.965  16.857   9.904 -0.1938  0.1831  0.0321
   81loPI    C3 1283   1.828  16.734  10.259  0.0298  0.1554  0.1103
   81loPI   PO4 1284   1.517  16.911   9.659  0.0314 -0.1259  0.1146
   81loPI   GL1 1285   1.588  16.764   9.290 -0.3261  0.0508 -0.0290
   81loPI   GL2 1286   1.318  16.712   9.115 -0.2237  0.3899 -0.0842
   81loPI   C1A 1287   1.772  16.657   8.862  0.0097 -0.1835 -0.0030
   81loPI   C2A 1288   1.939  16.753   8.454  0.1609  0.0187  0.2186
   81loPI   C3A 1289   2.092  16.463   8.124 -0.2416 -0.0689  0.2094
   81loPI   C4A 1290   2.130  16.450   7.737  0.2433 -0.1592  0.1388
   81loPI   C5A 1291   1.786  16.103   7.546  0.2592  0.1915 -0.1579
   81loPI   C6A 1292   1.604  15.843   7.877 -0.4009  0.1109 -0.1827
   81loPI   C1B 1293   1.373  16.889   8.876 -0.1020 -0.1234  0.3716
   81loPI   C2B 1294   1.428  16.750   8.536 -0.1621  0.1465 -0.3089
   81loPI   C3B 1295   1.301  16.743   8.122  0.2484  0.1088  0.0119
   81loPI   C4B 1296   1.204  16.702   7.675 -0.0531 -0.2488 -0.0004
   82loPI    C1 1297   2.055  13.538   9.988 -0.2024  0.2553 -0.2116
   82loPI    C2 1298   1.856  13.740  10.270 -0.0103  0.2047 -0.0371
   82loPI    C3 1299   1.785  13.350  10.215 -0.0309  0.2093 -0.0435
   82loPI   PO4 1300   2.111  13.652   9.764 -0.1810 -0.0845  0.2704
   82loPI   GL1 1301   2.353  13.615   9.461  0.5668  0.1122 -0.1478
   82loPI   GL2 1302   2.021  13.492   9.315  0.2270  0.2117  0.2941
   82loPI   C1A 1303   2.416  13.902   9.060  0.0035  0.0387 -0.0354
   82loPI   C2A 1304   2.431  13.778   8.654  0.0648 -0.0216 -0.1323
   82loPI   C3A 1305   2.482  13.854   8.240  0.0578 -0.2112 -0.0734
   82loPI   C4A 1306   2.680  13.713   7.742  0.1043 -0.1736 -0.0265
   82loPI   C5A 1307   2.910  13.573   7.336  0.3217 -0.0026  0.2575
   82loPI   C6A 1308   2.853  13.676   6.893  0.1590 -0.5912  0.0874
   82loPI   C1B 1309   2.025  13.476   8.901  0.3363 -0.1079 -0.0991
   82loPI   C2B 1310   2.057  13.497   8.499 -0.4322  0.0822 -0.2713
   82loPI   C3B 1311   2.141  13.489   8.049 -0.2741  0.0727  0.0716
   82loPI   C4B 1312   2.221  13.424   7.520 -0.1331  0.1144  0.1422
   83loPI    C1 1313  11.575  18.659  10.781 -0.0445  0.1619  0.1465
   83loPI    C2 1314  11.236  18.661  10.995 -0.0609  0.0408  0.1223
   83loPI    C3 1315  11.454  18.326  10.967  0.1071  0.1412  0.2101
   83loPI   PO4 1316  11.618  18.785  10.452  0.0356 -0.1338  0.0422
   83loPI   GL1 1317  11.585  18.766   9.984 -0.0429 -0.0567 -0.3468
   83loPI   GL2 1318  11.281  18.745  10.072  0.0127 -0.1234  0.1053
   83loPI   C1A 1319  11.489  18.573   9.596 -0.1160  0.0925 -0.0805
   83loPI   C2A 1320  11.307  18.484   9.185 -0.1626 -0.1253  0.0023
   83loPI   C3A 1321  11.333  18.500   8.711 -0.1457 -0.0248  0.2886
   83loPI   C4A 1322  11.307  18.475   8.122  0.2654  0.0260  0.3142
   83loPI   C5A 1323  11.288  18.467   7.629  0.3938  0.0299  0.0595
   83loPI   C6A 1324  11.208  18.469   7.123 -0.2514 -0.0281  0.0982
   83loPI   C1B 1325  11.335  19.096   9.660  0.3796  0.1044 -0.0178
   83loPI   C2B 1326  11.240  19.113   9.082  0.1375  0.0864 -0.0539
   83loPI   C3B 1327  11.235  19.156   8.657 -0.0524  0.1375 -0.0821
   83loPI   C4B 1328  11.143  19.238   8.115 -0.2838  0.2646  0.0587
   84loPI    C1 1329   9.500  11.008  10.546 -0.0398  0.2676  0.2859
   84loPI    C2 1330   9.201  10.768  10.661 -0.0810  0.2887  0.2229
   84loPI    C3 1331   9.545  10.770  10.865  0.0459 -0.0791  0.0201
   84loPI   PO4 1332   9.535  10.948  10.319 -0.1252  0.0451 -0.1430
   84loPI   GL1 1333   9.692  11.156  10.001 -0.1596  0.3003  0.0613
   84loPI   GL2 1334   9.372  11.270   9.796  0.1491  0.1647 -0.1207
   84loPI   C1A 1335   9.679  11.035   9.511 -0.0740 -0.1430 -0.1635
   84loPI   C2A 1336   9.713  10.947   9.029  0.1007  0.0577  0.0177
   84loPI   C3A 1337   9.679  11.013   8.633 -0.0499 -0.2108  0.2873
   84loPI   C4A 1338   9.504  10.914   8.241 -0.3472  0.1300  0.1207
   84loPI   C5A 1339   9.838  10.927   7.957  0.1035 -0.3206  0.1398
   84loPI   C6A 1340   9.985  10.656   7.625  0.2702  0.1610  0.0925
   84loPI   C1B 1341   9.266  11.142   9.400  0.1466 -0.0779  0.0251
   84loPI   C2B 1342   9.171  11.129   8.978  0.0180 -0.0851 -0.2749
   84loPI   C3B 1343   9.074  11.105   8.530  0.0788 -0.1489  0.1087
   84loPI   C4B 1344   8.987  11.189   8.091  0.3120  0.1305 -0.0789
   85loPI    C1 1345  17.136  10.951   9.750 -0.2161 -0.1443 -0.0056
   85loPI    C2 1346  16.763  10.897   9.885 -0.2055 -0.0223  0.0737
   85loPI    C3 1347  17.074  10.855  10.133 -0.1592 -0.2325 -0.0182
   85loPI   PO4 1348  17.118  11.110   9.605 -0.0464 -0.1865 -0.1067
   85loPI   GL1 1349  17.179  11.181   9.246  0.0181  0.1141 -0.1062
   85loPI   GL2 1350  17.362  11.431   9.233  0.1333 -0.0557  0.0090
   85loPI   C1A 1351  17.063  10.992   8.910  0.1652  0.0257  0.1809
   85loPI   C2A 1352  17.172  11.039   8.486 -0.1043  0.1213  0.0420
   85loPI   C3A 1353  17.014  11.034   8.098  0.0692 -0.1694  0.2138
   85loPI   C4A 1354  16.934  11.116   7.678 -0.1863  0.1823 -0.1260
   85loPI   C5A 1355  17.120  10.836   7.299 -0.2708 -0.3551  0.2511
   85loPI   C6A 1356  17.345  10.511   6.918  0.0851 -0.1163  0.3025
   85loPI   C1B 1357  17.561  11.459   8.875 -0.1649  0.5519  0.2699
   85loPI   C2B 1358  17.564  11.344   8.426  0.0451 -0.0682 -0.3698
   85loPI   C3B 1359  17.494  11.209   8.014 -0.1949 -0.0101 -0.0254
   85loPI   C4B 1360  17.361  10.834   7.751 -0.0339 -0.4643  0.4239
   86loPI    C1 1361  18.545   6.478  10.232  0.0893 -0.2407 -0.2000
   86loPI    C2 1362  18.888   6.315  10.355  0.0750 -0.0755  0.0673
   86loPI    C3 1363  18.540   6.141  10.448  0.0748 -0.0906  0.0379
   86loPI   PO4 1364  18.533   6.567  10.016  0.0967  0.0477  0.1406
   86loPI   GL1 1365  18.868   6.579   9.607  0.1008 -0.2762  0.1139
   86loPI   GL2 1366  19.112   6.774   9.611 -0.0668  0.2508 -0.0284
   86loPI   C1A 1367  18.747   6.368   9.060 -0.2153  0.1656 -0.0829
   86loPI   C2A 1368  18.951   6.426   8.716  0.2332  0.0968  0.2032
   86loPI   C3A 1369  19.187   6.520   8.408 -0.0838  0.0531 -0.0465
   86loPI   C4A 1370  19.104   6.585   8.007  0.2373 -0.0716  0.0979
   86loPI   C5A 1371  18.756   6.696   7.807  0.1708 -0.2586  0.3100
   86loPI   C6A 1372  18.415   6.927   7.944 -0.2452  0.0832  0.0178
   86loPI   C1B 1373  19.449   6.941   9.294  0.1870  0.1348 -0.0295
   86loPI   C2B 1374  19.727   7.214   9.110  0.0471  0.0707  0.2728
   86loPI   C3B 1375  19.812   7.251   8.696  0.3102 -0.2807  0.1492
   86loPI   C4B 1376  19.938   7.167   8.340 -0.0337 -0.0683 -0.3278
   87loPI    C1 1377   4.337   8.448  10.208 -0.1015 -0.1654  0.0889
   87loPI    C2 1378   4.191   8.272   9.880 -0.0306  0.0453 -0.0577
   87loPI    C3 1379   4.115   8.117  10.241 -0.1313 -0.1729 -0.1710
   87loPI   PO4 1380   4.387   8.741  10.002  0.0397  0.3055 -0.0731
   87loPI   GL1 1381   4.226   8.876   9.613  0.0017  0.0787  0.2692
   87loPI   GL2 1382   4.257   9.204   9.641 -0.0350 -0.1550  0.0554
   87loPI   C1A 1383   4.324   8.885   9.155 -0.0526  0.0868 -0.1954
   87loPI   C2A 1384   4.438   8.875   8.704  0.1176 -0.1782  0.3254
   87loPI   C3A 1385   4.521   8.901   8.208  0.0728  0.2010 -0.2111
   87loPI   C4A 1386   4.486   8.739   7.750  0.2880  0.0904 -0.1274
   87loPI   C5A 1387   4.443   8.745   7.343 -0.1687  0.2482  0.1298
   87loPI   C6A 1388   4.158   8.558   6.958  0.0809 -0.1168 -0.0113
   87loPI   C1B 1389   4.692   9.276   9.325 -0.0342 -0.0565 -0.0592
   87loPI   C2B 1390   4.815   9.301   8.858  0.1005  0.0861  0.1111
   87loPI   C3B 1391   4.759   9.191   8.578 -0.0418 -0.2047 -0.0021
   87loPI   C4B 1392   4.895   9.313   8.119 -0.1613 -0.0985  0.2627
   88loPI    C1 1393   2.484  10.756   9.678 -0.2491  0.3103  0.1428
   88loPI    C2 1394   2.787  10.578   9.869 -0.1785  0.2436 -0.0290
   88loPI    C3 1395   2.788  10.975   9.817 -0.0101  0.2195 -0.2217
   88loPI   PO4 1396   2.465  10.607   9.466  0.0088 -0.0424  0.1121
   88loPI   GL1 1397   2.700  10.188   9.217  0.3070  0.1154 -0.1939
   88loPI   GL2 1398   2.748   9.990   9.018 -0.3475 -0.0675 -0.1130
   88loPI   C1A 1399   2.620  10.418   8.772  0.1610 -0.1921 -0.2964
   88loPI   C2A 1400   2.691  10.495   8.306  0.2226 -0.0360  0.2654
   88loPI   C3A 1401   2.707  10.591   7.916 -0.1644  0.3237  0.0033
   88loPI   C4A 1402   2.727  10.667   7.443  0.1548  0.0254  0.0268
   88loPI   C5A 1403   2.569  10.554   7.045  0.0781 -0.1477  0.2964
   88loPI   C6A 1404   2.434  10.129   6.929  0.0448  0.1668  0.1314
   88loPI   C1B 1405   3.019  10.091   8.645  0.0794  0.0355 -0.1759
   88loPI   C2B 1406   3.145  10.218   8.287  0.1012 -0.1421 -0.0378
   88loPI   C3B 1407   3.169  10.392   8.001 -0.3606  0.0592  0.0637
   88loPI   C4B 1408   3.033  10.331   7.677 -0.3491 -0.1686  0.0150
   89loPI    C1 1409  15.285   2.621   9.925 -0.0361  0.0046  0.1911
   89loPI    C2 1410  15.531   2.482  10.208 -0.0834 -0.1089  0.1769
   89loPI    C3 1411  15.426   2.868  10.206 -0.0186 -0.0906  0.2664
   89loPI   PO4 1412  15.418   2.571   9.682 -0.0774 -0.2176 -0.1512
   89loPI   GL1 1413  15.546   2.655   9.413 -0.4243 -0.2715 -0.0569
   89loPI   GL2 1414  15.668   2.423   9.237  0.2607 -0.1392  0.0146
   89loPI   C1A 1415  15.404   2.713   8.986  0.2505 -0.2403 -0.5662
   89loPI   C2A 1416  15.228   2.883   8.605 -0.1007 -0.0862 -0.1084
   89loPI   C3A 1417  15.212   2.996   8.230 -0.0455 -0.1055  0.0563
   89loPI   C4A 1418  15.120   3.044   7.834 -0.1885  0.3422 -0.0367
   89loPI   C5A 1419  15.446   3.328   7.621 -0.0995 -0.3148  0.0746
   89loPI   C6A 1420  15.558   3.203   7.127  0.0424  0.0779  0.0400
   89loPI   C1B 1421  15.372   2.237   8.843  0.1575  0.1527  0.4344
   89loPI   C2B 1422  15.197   2.255   8.448  0.0349  0.2006 -0.2352
   89loPI   C3B 1423  14.897   2.223   8.119  0.3467 -0.1444 -0.1072
   89loPI   C4B 1424  14.729   2.179   7.684  0.0621  0.0234  0.0464
   90loPI    C1 1425   9.637   2.583  10.674  0.0081  0.2594  0.1897
   90loPI    C2 1426   9.473   2.274  10.868 -0.2069  0.2716  0.0319
   90loPI    C3 1427   9.573   2.606  11.068  0.1578  0.0510  0.2279
   90loPI   PO4 1428   9.626   2.468  10.408  0.4008  0.1581 -0.2781
   90loPI   GL1 1429   9.782   2.480  10.026  0.0118  0.1398  0.2444
   90loPI   GL2 1430  10.014   2.347  10.163 -0.1352  0.3768  0.2383
   90loPI   C1A 1431   9.900   2.529   9.579 -0.0766 -0.1994 -0.3282
   90loPI   C2A 1432   9.861   2.518   9.223 -0.0173  0.1652 -0.4476
   90loPI   C3A 1433   9.883   2.637   8.693  0.0150  0.2706 -0.1468
   90loPI   C4A 1434   9.914   2.729   8.261 -0.0610 -0.1223  0.2329
   90loPI   C5A 1435   9.777   2.776   7.798  0.4705 -0.0664  0.1098
   90loPI   C6A 1436   9.881   3.222   7.690  0.1223  0.3270  0.1856
   90loPI   C1B 1437  10.014   2.109   9.768  0.0720 -0.1985 -0.1056
   90loPI   C2B 1438   9.903   1.991   9.379 -0.1083  0.1369 -0.0631
   90loPI   C3B 1439   9.998   2.097   8.897 -0.1695 -0.0477  0.2350
   90loPI   C4B 1440   9.793   2.179   8.608  0.0921  0.1754  0.2805
   91loPI    C1 1441  17.364  14.849  10.013 -0.3031 -0.1563 -0.2040
   91loPI    C2 1442  17.352  14.634  10.350  0.0832  0.0105 -0.0782
   91loPI    C3 1443  17.068  14.906  10.276  0.0760  0.0772  0.1848
   91loPI   PO4 1444  17.388  14.685   9.837 -0.3724 -0.0381  0.0897
   91loPI   GL1 1445  17.244  14.758   9.415  0.0321  0.0240 -0.0994
   91loPI   GL2 1446  17.243  14.510   9.242 -0.0100  0.3190 -0.1103
   91loPI   C1A 1447  17.230  14.907   8.863  0.0553 -0.0901 -0.0762
   91loPI   C2A 1448  17.219  14.840   8.421  0.0270  0.1429  0.0903
   91loPI   C3A 1449  16.968  14.967   8.117  0.3317  0.0073 -0.2810
   91loPI   C4A 1450  16.725  15.178   7.911  0.1094 -0.3216 -0.1376
   91loPI   C5A 1451  16.320  15.134   7.683 -0.0033 -0.0304 -0.0856
   91loPI   C6A 1452  16.136  15.161   7.287 -0.0348  0.0094  0.0659
   91loPI   C1B 1453  17.138  14.401   8.800 -0.2996 -0.2586 -0.0769
   91loPI   C2B 1454  17.192  14.360   8.366 -0.0814  0.1086 -0.1111
   91loPI   C3B 1455  17.293  14.292   8.036 -0.1817  0.0925  0.2058
   91loPI   C4B 1456  17.567  14.462   7.808  0.1815 -0.0569 -0.0068
   92loPI    C1 1457   0.349  14.769   9.997 -0.0044 -0.0041 -0.1600
   92loPI    C2 1458   0.551  15.072  10.161 -0.0293  0.1087 -0.3354
   92loPI    C3 1459   0.283  14.871  10.378  0.3519 -0.1200 -0.0629
   92loPI   PO4 1460   0.232  14.917   9.769  0.0930  0.0242 -0.2776
   92loPI   GL1 1461   0.250  14.945   9.337 -0.1050  0.2118 -0.2193
   92loPI   GL2 1462   0.198  14.682   9.133  0.1079 -0.2925 -0.0223
   92loPI   C1A 1463   0.423  15.167   8.951  0.6249 -0.0245  0.1865
   92loPI   C2A 1464   0.454  15.017   8.513  0.0352 -0.1252  0.0404
   92loPI   C3A 1465   0.447  14.715   8.140  0.1547  0.0924 -0.3693
   92loPI   C4A 1466   0.393  14.583   7.700  0.0494  0.1069  0.0348
   92loPI   C5A 1467   0.203  14.668   7.294  0.2767 -0.0529  0.0530
   92loPI   C6A 1468   0.021  14.445   7.010 -0.1329 -0.1480  0.0259
   92loPI   C1B 1469   0.137  14.745   8.820  0.2336  0.0653  0.1751
   92loPI   C2B 1470   0.003  14.832   8.383 -0.2070  0.1664 -0.3668
   92loPI   C3B 1471  -0.036  14.954   7.935 -0.1571 -0.3419  0.0319
   92loPI   C4B 1472  -0.150  14.927   7.471  0.0705 -0.0797  0.1898
   93loPI    C1 1473  17.984  10.721   9.574  0.1298 -0.0781 -0.0160
   93loPI    C2 1474  18.115  10.359   9.463 -0.0270 -0.2066  0.2092
   93loPI    C3 1475  17.976  10.416   9.834 -0.0051  0.0854  0.1747
   93loPI   PO4 1476  17.890  10.784   9.323  0.2584  0.4586  0.2653
   93loPI   GL1 1477  18.120  10.969   9.084 -0.3676 -0.0743 -0.1104
   93loPI   GL2 1478  18.243  10.605   8.991 -0.1976 -0.0087  0.2894
   93loPI   C1A 1479  18.041  11.221   8.751  0.3089  0.1311  0.1885
   93loPI   C2A 1480  17.967  11.158   8.324 -0.1424  0.0756 -0.1084
   93loPI   C3A 1481  17.938  11.035   7.887 -0.2106  0.0177  0.0243
   93loPI   C4A 1482  17.941  10.903   7.498  0.0822 -0.0198 -0.0400
   93loPI   C5A 1483  18.261  10.833   7.247  0.0845  0.1937 -0.0063
   93loPI   C6A 1484  18.614  10.681   7.012 -0.0373 -0.2633  0.1349
   93loPI   C1B 1485  18.316  10.490   8.472  0.0346  0.3812 -0.0274
   93loPI   C2B 1486  18.101  10.212   8.222  0.3876  0.2892  0.0640
   93loPI   C3B 1487  18.249  10.167   7.720 -0.0437 -0.0721 -0.0981
   93loPI   C4B 1488  18.065  10.430   7.447 -0.1699  0.0603  0.0678
   94loPI    C1 1489  18.663  10.951  10.013  0.2604  0.0110 -0.0150
   94loPI    C2 1490  18.299  10.791   9.973  0.3215 -0.1072 -0.1046
   94loPI    C3 1491  18.457  10.839  10.337  0.2087 -0.0372 -0.0644
   94loPI   PO4 1492  18.675  11.181   9.788 -0.2192 -0.0960 -0.2556
   94loPI   GL1 1493  18.968  11.285   9.440 -0.0530  0.0234  0.0276
   94loPI   GL2 1494  19.279  11.207   9.501  0.0387 -0.1558 -0.0889
   94loPI   C1A 1495  18.747  11.012   9.102 -0.3882  0.0920  0.0812
   94loPI   C2A 1496  18.580  10.999   8.725  0.2415  0.1099  0.2820
   94loPI   C3A 1497  18.871  11.106   8.319 -0.0432 -0.0015  0.0457
   94loPI   C4A 1498  18.730  10.965   7.837  0.1157  0.1825  0.2437
   94loPI   C5A 1499  18.716  11.091   7.423  0.1209 -0.1286  0.1762
   94loPI   C6A 1500  18.834  11.122   7.068 -0.0300  0.1229  0.3931
   94loPI   C1B 1501  19.360  11.125   9.017  0.2701 -0.1688 -0.3833
   94loPI   C2B 1502  19.569  11.162   8.696 -0.1620  0.0524  0.2721
   94loPI   C3B 1503  19.972  11.435   8.566  0.2582  0.0359  0.2418
   94loPI   C4B 1504  20.268  11.679   8.388 -0.0521  0.1517 -0.0355
   95loPI    C1 1505  11.237   3.129  10.606  0.2861 -0.0499 -0.0618
   95loPI    C2 1506  11.461   2.858  10.795  0.1062 -0.0258  0.1906
   95loPI    C3 1507  11.241   3.117  11.005  0.1754  0.2331 -0.0497
   95loPI   PO4 1508  11.306   3.082  10.376 -0.2166 -0.0667 -0.1720
   95loPI   GL1 1509  11.355   2.932   9.966  0.2483  0.1557 -0.0700
   95loPI   GL2 1510  11.730   2.923   9.934 -0.0191  0.2447 -0.0312
   95loPI   C1A 1511  11.098   3.070   9.705  0.1295 -0.3474  0.0572
   95loPI   C2A 1512  11.082   3.117   9.346  0.0475  0.1793  0.4640
   95loPI   C3A 1513  11.067   3.129   8.912  0.2983 -0.4297  0.2955
   95loPI   C4A 1514  11.060   3.095   8.462  0.1139 -0.0914  0.1770
   95loPI   C5A 1515  10.923   3.325   8.090  0.1163 -0.3694 -0.1056
   95loPI   C6A 1516  10.725   3.773   7.958 -0.0656 -0.3180 -0.2307
   95loPI   C1B 1517  11.601   2.941   9.542 -0.1381 -0.1904 -0.1146
   95loPI   C2B 1518  11.594   2.936   9.117  0.1555 -0.4558 -0.1422
   95loPI   C3B 1519  11.526   2.978   8.769 -0.3124  0.4126 -0.1625
   95loPI   C4B 1520  11.519   2.954   8.265 -0.0524 -0.2131 -0.1206
   96loPI    C1 1521   6.089   0.763  10.746  0.1408 -0.1066  0.1268
   96loPI    C2 1522   6.007   0.422  10.938  0.1370 -0.2126 -0.0617
   96loPI    C3 1523   6.179   0.725  11.134 -0.0938 -0.2288  0.1709
   96loPI   PO4 1524   6.109   0.661  10.498 -0.2393  0.1195  0.2026
   96loPI   GL1 1525   6.185   0.549  10.024 -0.0534 -0.0491 -0.0741
   96loPI   GL2 1526   6.317   0.507   9.853 -0.1245  0.1523  0.1923
   96loPI   C1A 1527   5.943   0.749   9.615  0.0546  0.0860 -0.2445
   96loPI   C2A 1528   6.037   0.621   9.218 -0.1976 -0.0372  0.0601
   96loPI   C3A 1529   6.030   0.546   8.867  0.1128  0.0647 -0.0135
   96loPI   C4A 1530   5.998   0.615   8.449  0.2097  0.2403  0.3820
   96loPI   C5A 1531   6.161   0.701   8.064  0.0675 -0.0692 -0.1035
   96loPI   C6A 1532   6.239   0.679   7.620 -0.0181  0.2536  0.2859
   96loPI   C1B 1533   6.501   0.498   9.433  0.0257  0.1238 -0.1866
   96loPI   C2B 1534   6.518   0.460   8.960  0.0954 -0.2769  0.1922
   96loPI   C3B 1535   6.508   0.494   8.558  0.1408  0.0421  0.0648
   96loPI   C4B 1536   6.665   0.452   8.115 -0.1754 -0.2935 -0.2300
   97loPI    C1 1537   6.765   8.052  10.471  0.0999 -0.2141  0.1622
   97loPI    C2 1538   6.734   7.924  10.849  0.0171 -0.1447  0.1793
   97loPI    C3 1539   6.405   8.020  10.643  0.0758  0.0052  0.1544
   97loPI   PO4 1540   6.818   7.935  10.289 -0.0074  0.0837 -0.0934
   97loPI   GL1 1541   6.811   8.019   9.945  0.1969  0.1647 -0.0662
   97loPI   GL2 1542   6.834   8.327   9.950  0.3820 -0.1080 -0.3558
   97loPI   C1A 1543   6.833   7.889   9.520  0.0694 -0.1556 -0.2823
   97loPI   C2A 1544   6.912   7.988   9.151 -0.0929  0.3257 -0.1360
   97loPI   C3A 1545   6.906   8.156   8.729  0.1866  0.2070  0.1739
   97loPI   C4A 1546   7.032   8.142   8.352 -0.0923 -0.2967  0.0628
   97loPI   C5A 1547   7.031   7.838   7.972  0.2303 -0.1588  0.1247
   97loPI   C6A 1548   7.255   7.562   7.584  0.1367 -0.0306  0.0738
   97loPI   C1B 1549   6.781   8.489   9.573 -0.0292  0.4297 -0.1550
   97loPI   C2B 1550   6.827   8.461   9.197  0.0683  0.2356 -0.2477
   97loPI   C3B 1551   6.829   8.644   8.800 -0.3587 -0.1019 -0.2548
   97loPI   C4B 1552   6.914   8.600   8.451  0.0701 -0.0072 -0.0675
   98loPI    C1 1553  11.889  14.945  10.236  0.2968  0.0983  0.0418
   98loPI    C2 1554  11.869  14.871  10.629  0.0268  0.1595  0.0416
   98loPI    C3 1555  11.909  15.247  10.498 -0.3608  0.1906  0.0019
   98loPI   PO4 1556  11.692  14.783  10.056 -0.0908  0.1648 -0.0240
   98loPI   GL1 1557  11.333  14.743   9.738 -0.2172 -0.2117 -0.3341
   98loPI   GL2 1558  11.379  14.466   9.727  0.3061 -0.2676 -0.0481
   98loPI   C1A 1559  11.261  14.802   9.245 -0.2223  0.0611 -0.0179
   98loPI   C2A 1560  11.126  14.783   8.804  0.3406 -0.0855 -0.0731
   98loPI   C3A 1561  11.038  14.793   8.435  0.1019 -0.0284  0.0598
   98loPI   C4A 1562  11.059  14.740   8.029 -0.1655  0.4108  0.0761
   98loPI   C5A 1563  11.177  14.518   7.626  0.1732  0.1728  0.1333
   98loPI   C6A 1564  11.254  14.410   7.170 -0.2883 -0.3361  0.1939
   98loPI   C1B 1565  11.390  14.258   9.290  0.2656  0.1470 -0.1889
   98loPI   C2B 1566  11.282  14.305   8.883 -0.1397  0.1192  0.1174
   98loPI   C3B 1567  11.219  14.196   8.478 -0.1924 -0.0532  0.1839
   98loPI   C4B 1568  11.253  14.257   8.082 -0.0225 -0.5108 -0.3842
   99loPI    C1 1569  12.470   8.071  10.822 -0.1563 -0.1853 -0.1811
   99loPI    C2 1570  12.357   8.106  11.204 -0.1544  0.1003 -0.2041
   99loPI    C3 1571  12.670   8.314  11.068  0.0745 -0.2788 -0.2733
   99loPI   PO4 1572  12.428   7.792  10.690 -0.0196 -0.0012 -0.2693
   99loPI   GL1 1573  12.311   7.799  10.230  0.0407  0.1398  0.2046
   99loPI   GL2 1574  12.064   7.941  10.358  0.0505 -0.3453  0.4152
   99loPI   C1A 1575  12.292   7.759   9.853 -0.2417 -0.0858 -0.0262
   99loPI   C2A 1576  12.280   7.749   9.410  0.2090  0.2625 -0.1324
   99loPI   C3A 1577  12.098   7.762   9.085  0.2315  0.0812  0.2677
   99loPI   C4A 1578  12.021   7.626   8.657 -0.0291  0.0556  0.2091
   99loPI   C5A 1579  12.236   7.680   8.305  0.1369  0.0815 -0.0778
   99loPI   C6A 1580  12.585   7.957   8.176 -0.3627 -0.1910 -0.2249
   99loPI   C1B 1581  11.807   7.902  10.004 -0.0466 -0.0112 -0.4294
   99loPI   C2B 1582  11.864   7.847   9.659 -0.1635  0.1750  0.1140
   99loPI   C3B 1583  11.666   7.938   9.287 -0.1161  0.2027  0.0544
   99loPI   C4B 1584  11.534   7.867   8.827  0.1668  0.0139  0.1189
  100loPI    C1 1585  18.540  18.114   9.738  0.1615 -0.2011  0.0924
  100loPI    C2 1586  18.866  18.253   9.923  0.0745  0.4042 -0.1825
  100loPI    C3 1587  18.511  18.267  10.106  0.1283  0.1588 -0.0549
  100loPI   PO4 1588  18.532  18.317   9.438  0.2066 -0.0231  0.0503
  100loPI   GL1 1589  18.387  18.169   8.993 -0.1713 -0.1549 -0.3026
  100loPI   GL2 1590  17.995  18.196   9.065 -0.2139  0.1078 -0.1393
  100loPI   C1A 1591  18.406  18.378   8.647 -0.2025 -0.2920 -0.2912
  100loPI   C2A 1592  18.425  18.443   8.216 -0.0958  0.3105 -0.0351
  100loPI   C3A 1593  18.464  18.641   7.837 -0.1795 -0.0312  0.1370
  100loPI   C4A 1594  18.439  19.099   7.677 -0.2349  0.0842  0.2208
  100loPI   C5A 1595  18.393  19.258   7.206  0.1843  0.0127  0.1204
  100loPI   C6A 1596  18.261  19.221   6.778 -0.0934 -0.1146 -0.1090
  100loPI   C1B 1597  17.982  18.146   8.540  0.0783  0.1383 -0.3143
  100loPI   C2B 1598  17.938  18.337   8.315 -0.1237  0.1153  0.0596
  100loPI   C3B 1599  18.090  18.772   8.113 -0.2714 -0.1611 -0.2576
  100loPI   C4B 1600  18.041  19.265   8.195  0.1897 -0.0983 -0.0869
  101loPI    C1 1601   4.071  15.701  10.371 -0.0927  0.0649 -0.0051
  101loPI    C2 1602   4.148  15.952  10.672  0.0124  0.0495 -0.0186
  101loPI    C3 1603   4.165  15.557  10.732  0.1052  0.0466 -0.0627
  101loPI   PO4 1604   4.013  15.817  10.123 -0.1511 -0.2034  0.1304
  101loPI   GL1 1605   4.078  15.711   9.847  0.1817  0.0442  0.0239
  101loPI   GL2 1606   4.365  15.554   9.952 -0.0664  0.0548 -0.0103
  101loPI   C1A 1607   3.948  15.884   9.479 -0.1618 -0.4608  0.0897
  101loPI   C2A 1608   3.978  15.842   8.969 -0.0302  0.1495  0.2739
  101loPI   C3A 1609   3.996  15.806   8.588  0.2144  0.2409 -0.0522
  101loPI   C4A 1610   3.905  15.790   8.181  0.0849  0.2538 -0.0382
  101loPI   C5A 1611   4.024  15.875   7.735 -0.1346 -0.0497  0.3127
  101loPI   C6A 1612   4.322  16.178   7.546 -0.0913  0.3742  0.0027
  101loPI   C1B 1613   4.458  15.626   9.427 -0.1441 -0.3657  0.0681
  101loPI   C2B 1614   4.486  15.690   8.991  0.2989  0.0027  0.2015
  101loPI   C3B 1615   4.514  15.662   8.581  0.1758 -0.2857  0.4715
  101loPI   C4B 1616   4.893  15.790   8.215 -0.0565  0.2054 -0.1113
  102loPI    C1 1617  15.743  12.294  10.053 -0.0055  0.1971  0.3789
  102loPI    C2 1618  15.937  12.012  10.260 -0.0805 -0.0801  0.0783
  102loPI    C3 1619  15.544  12.060  10.309 -0.1330 -0.2746 -0.1323
  102loPI   PO4 1620  15.833  12.308   9.745 -0.0281 -0.1622  0.3441
  102loPI   GL1 1621  15.872  12.227   9.248 -0.0539  0.0451  0.1186
  102loPI   GL2 1622  15.881  12.002   9.244 -0.1260 -0.0566 -0.1313
  102loPI   C1A 1623  16.194  12.435   9.018 -0.0342 -0.1076  0.0406
  102loPI   C2A 1624  16.098  12.582   8.490  0.0646  0.2252 -0.1367
  102loPI   C3A 1625  15.916  12.812   8.190  0.2410 -0.2335 -0.0898
  102loPI   C4A 1626  15.950  12.853   7.838  0.1584 -0.0518 -0.3131
  102loPI   C5A 1627  16.109  12.618   7.618  0.1903 -0.2234 -0.1320
  102loPI   C6A 1628  16.145  12.284   7.353  0.1302 -0.1044 -0.1159
  102loPI   C1B 1629  16.015  12.040   8.806  0.0968  0.1090  0.2210
  102loPI   C2B 1630  16.043  11.929   8.453  0.2004 -0.2465  0.3214
  102loPI   C3B 1631  15.886  11.790   8.085  0.0321  0.1152  0.2082
  102loPI   C4B 1632  15.795  11.883   7.706  0.3898 -0.0589  0.0523
  103loPI    C1 1633   5.943  11.159  10.318 -0.0428 -0.0964 -0.1523
  103loPI    C2 1634   5.661  11.220  10.595  0.1539 -0.0776  0.0468
  103loPI    C3 1635   6.030  11.113  10.706  0.2829  0.1033 -0.1975
  103loPI   PO4 1636   5.889  11.446  10.144  0.0677 -0.0401  0.2061
  103loPI   GL1 1637   6.188  11.673   9.753  0.1214 -0.0520  0.2558
  103loPI   GL2 1638   6.316  11.978   9.824  0.1670 -0.2176 -0.1486
  103loPI   C1A 1639   6.251  11.599   9.319  0.2765  0.2654 -0.0010
  103loPI   C2A 1640   6.159  11.656   8.895  0.2894 -0.3289 -0.0314
  103loPI   C3A 1641   6.072  11.612   8.555  0.0623 -0.2355 -0.0838
  103loPI   C4A 1642   6.024  11.597   8.020 -0.1891  0.0083  0.1435
  103loPI   C5A 1643   5.948  11.454   7.613 -0.0698  0.1013  0.0488
  103loPI   C6A 1644   6.083  11.446   7.128 -0.0452  0.0805 -0.1627
  103loPI   C1B 1645   6.176  12.139   9.405  0.0984 -0.1322  0.3758
  103loPI   C2B 1646   6.099  12.208   8.960 -0.1181  0.1682  0.1725
  103loPI   C3B 1647   5.995  12.115   8.586 -0.1445 -0.1827  0.0075
  103loPI   C4B 1648   5.947  12.185   8.189  0.3732  0.1234  0.0721
  104loPI    C1 1649   8.364  10.954  10.479  0.1610  0.0480  0.0977
  104loPI    C2 1650   8.603  10.728  10.251  0.0110  0.1672 -0.1835
  104loPI    C3 1651   8.731  10.861  10.606  0.2443 -0.0292 -0.1914
  104loPI   PO4 1652   8.137  10.821  10.487 -0.3072 -0.0067 -0.0862
  104loPI   GL1 1653   8.030  10.639  10.127  0.1800 -0.2476  0.2153
  104loPI   GL2 1654   7.738  10.475  10.027  0.1819 -0.4570 -0.0531
  104loPI   C1A 1655   8.368  10.861   9.832 -0.0754  0.0115 -0.2217
  104loPI   C2A 1656   8.312  10.849   9.452 -0.3390 -0.0098  0.1088
  104loPI   C3A 1657   8.174  10.901   9.069 -0.1022  0.2656 -0.0957
  104loPI   C4A 1658   8.204  10.928   8.664  0.0613 -0.0176  0.1606
  104loPI   C5A 1659   7.983  11.105   8.299 -0.2786  0.2439 -0.2575
  104loPI   C6A 1660   7.847  11.070   7.901 -0.1842 -0.1159  0.2620
  104loPI   C1B 1661   7.910  10.639   9.634  0.2998  0.3300  0.0270
  104loPI   C2B 1662   7.808  10.603   9.241  0.0191  0.0473  0.4442
  104loPI   C3B 1663   7.809  10.544   8.815 -0.2616 -0.1982  0.3696
  104loPI   C4B 1664   7.806  10.678   8.377 -0.0630 -0.0018  0.0266
  105loPI    C1 1665  10.409   3.878  10.741 -0.2304  0.3987  0.3680
  105loPI    C2 1666  10.016   3.807  10.763 -0.2249  0.1918 -0.0944
  105loPI    C3 1667  10.278   3.511  10.831 -0.1683  0.1491 -0.4758
  105loPI   PO4 1668  10.462   4.102  10.549  0.1875 -0.1199  0.2344
  105loPI   GL1 1669  10.552   4.043  10.161  0.2979 -0.2996  0.0092
  105loPI   GL2 1670  10.560   3.890   9.928  0.2122  0.0318 -0.0613
  105loPI   C1A 1671  10.431   4.329   9.788 -0.0619  0.0056  0.0252
  105loPI   C2A 1672  10.269   4.251   9.355 -0.5060  0.1343 -0.2048
  105loPI   C3A 1673  10.348   4.297   8.921  0.1586  0.1485  0.1590
  105loPI   C4A 1674  10.417   4.352   8.502  0.2507 -0.0079  0.2955
  105loPI   C5A 1675  10.317   4.044   8.151  0.0204  0.1264  0.1852
  105loPI   C6A 1676   9.967   3.720   8.102 -0.0085  0.0759  0.4072
  105loPI   C1B 1677  10.474   3.817   9.532 -0.0357  0.1238 -0.3580
  105loPI   C2B 1678  10.471   3.811   9.063  0.0492  0.0200 -0.1478
  105loPI   C3B 1679  10.483   3.842   8.624  0.0868  0.2553 -0.0979
  105loPI   C4B 1680  10.369   3.553   8.309  0.0623 -0.1968  0.0460
  106loPI    C1 1681  13.287   7.072  10.730 -0.3037  0.1233 -0.2120
  106loPI    C2 1682  13.107   7.424  10.666  0.0030  0.3147 -0.0510
  106loPI    C3 1683  13.444   7.408  10.881 -0.0516 -0.0908  0.0132
  106loPI   PO4 1684  13.342   6.938  10.444 -0.1589 -0.0253 -0.1169
  106loPI   GL1 1685  13.448   6.866  10.052 -0.1944  0.0722 -0.0793
  106loPI   GL2 1686  13.499   6.521  10.003  0.0661  0.1634  0.1832
  106loPI   C1A 1687  13.473   6.960   9.659  0.2271 -0.0823 -0.0595
  106loPI   C2A 1688  13.277   6.800   9.317  0.1614 -0.1259 -0.2112
  106loPI   C3A 1689  13.203   6.827   8.930 -0.0094  0.0753 -0.0235
  106loPI   C4A 1690  13.140   6.716   8.583 -0.3052 -0.0464 -0.3375
  106loPI   C5A 1691  12.932   6.641   8.214 -0.0089  0.6610  0.2027
  106loPI   C6A 1692  12.598   6.413   8.128  0.0096 -0.2340  0.4259
  106loPI   C1B 1693  13.428   6.395   9.616  0.0977  0.0301 -0.0419
  106loPI   C2B 1694  13.247   6.254   9.108  0.2942 -0.4263  0.0112
  106loPI   C3B 1695  13.228   6.243   8.706 -0.4530 -0.0152 -0.2207
  106loPI   C4B 1696  13.109   6.209   8.360 -0.0160  0.0807 -0.3594
  107loPI    C1 1697  12.544  18.489  10.248  0.4117  0.1444  0.2763
  107loPI    C2 1698  12.289  18.189  10.317  0.5254 -0.0498 -0.1224
  107loPI    C3 1699  12.390  18.437  10.614 -0.0271 -0.0435  0.0720
  107loPI   PO4 1700  12.512  18.538   9.971 -0.1278  0.1001 -0.2003
  107loPI   GL1 1701  12.444  18.766   9.676  0.0256 -0.0775  0.0891
  107loPI   GL2 1702  12.041  18.838   9.746 -0.0367 -0.1422 -0.2706
  107loPI   C1A 1703  12.224  18.778   9.253 -0.0459 -0.1090  0.1064
  107loPI   C2A 1704  12.185  18.713   8.759 -0.2377  0.0306 -0.0253
  107loPI   C3A 1705  12.199  18.671   8.324  0.0301 -0.3376 -0.1060
  107loPI   C4A 1706  12.045  18.810   7.876  0.1308 -0.0023 -0.0242
  107loPI   C5A 1707  11.800  18.574   7.686 -0.1533  0.2928  0.0363
  107loPI   C6A 1708  11.628  18.328   7.325 -0.2649 -0.1502 -0.0118
  107loPI   C1B 1709  11.782  18.954   9.509 -0.3196 -0.1098  0.3691
  107loPI   C2B 1710  11.699  18.856   9.114 -0.0172 -0.1551 -0.3387
  107loPI   C3B 1711  11.634  18.908   8.671  0.0944 -0.0090 -0.2243
  107loPI   C4B 1712  11.644  18.866   8.215  0.1808 -0.2603  0.1405
  108loPI    C1 1713   5.826  14.657  10.640  0.0129  0.2952 -0.1034
  108loPI    C2 1714   6.119  14.640  10.912 -0.1424  0.1403  0.0573
  108loPI    C3 1715   5.764  14.796  11.010 -0.1423  0.2486 -0.1107
  108loPI   PO4 1716   5.964  14.803  10.335  0.1940 -0.0102  0.0438
  108loPI   GL1 1717   5.831  14.643   9.996 -0.1968 -0.1162 -0.0968
  108loPI   GL2 1718   6.091  14.697   9.780  0.0075 -0.0596 -0.0851
  108loPI   C1A 1719   5.550  14.765   9.589  0.2057  0.0747 -0.1676
  108loPI   C2A 1720   5.543  14.695   9.086 -0.0290 -0.0287  0.2063
  108loPI   C3A 1721   5.615  14.698   8.658  0.0256 -0.0373 -0.1013
  108loPI   C4A 1722   5.723  14.717   8.184 -0.0915 -0.4440 -0.2590
  108loPI   C5A 1723   5.655  14.871   7.736  0.1213  0.2520  0.0022
  108loPI   C6A 1724   5.926  14.721   7.363  0.1336 -0.0588 -0.2424
  108loPI   C1B 1725   5.971  14.630   9.322  0.2771 -0.1930  0.0362
  108loPI   C2B 1726   6.116  14.538   8.925  0.0804 -0.0466  0.0494
  108loPI   C3B 1727   6.154  14.616   8.472 -0.2903  0.0784 -0.0780
  108loPI   C4B 1728   6.204  14.871   8.162 -0.1125 -0.3185 -0.2876
  109loPI    C1 1729   9.322  14.190  10.471 -0.0713  0.0546 -0.1109
  109loPI    C2 1730   9.423  14.106  10.848 -0.2217  0.3958  0.0090
  109loPI    C3 1731   9.076  13.973  10.699  0.0253 -0.0961 -0.1485
  109loPI   PO4 1732   9.532  14.273  10.382  0.0669  0.1360 -0.0810
  109loPI   GL1 1733   9.824  14.297   9.998 -0.1170  0.1931  0.0410
  109loPI   GL2 1734   9.626  14.488   9.943 -0.1004 -0.1529 -0.0989
  109loPI   C1A 1735  10.066  14.326   9.569  0.0944  0.1187 -0.0052
  109loPI   C2A 1736   9.966  14.255   9.166  0.0623  0.0301 -0.0493
  109loPI   C3A 1737   9.840  14.235   8.684  0.0460 -0.0243 -0.3139
  109loPI   C4A 1738   9.883  14.114   8.288 -0.0701 -0.1027  0.1465
  109loPI   C5A 1739   9.640  14.156   7.878 -0.1901  0.2640  0.0794
  109loPI   C6A 1740   9.147  14.177   7.822 -0.0580 -0.0311 -0.1570
  109loPI   C1B 1741   9.506  14.432   9.557 -0.0014 -0.0234  0.0499
  109loPI   C2B 1742   9.418  14.434   9.106 -0.1702  0.0062 -0.1103
  109loPI   C3B 1743   9.325  14.434   8.690 -0.2526 -0.1405 -0.1409
  109loPI   C4B 1744   9.313  14.512   8.174 -0.0432  0.0197  0.0644
  110loPI    C1 1745  17.723  13.434   9.601 -0.0409  0.1500  0.3693
  110loPI    C2 1746  17.363  13.344   9.453  0.1914  0.1423 -0.2171
  110loPI    C3 1747  17.398  13.618   9.743 -0.2909  0.0668 -0.0795
  110loPI   PO4 1748  17.854  13.413   9.321  0.0790 -0.1538  0.1244
  110loPI   GL1 1749  17.788  13.437   8.895 -0.4251 -0.2613 -0.1461
  110loPI   GL2 1750  18.080  13.184   8.926 -0.3775 -0.1470  0.1297
  110loPI   C1A 1751  17.778  13.491   8.571  0.0492  0.1692  0.3237
  110loPI   C2A 1752  17.996  13.737   8.311 -0.3648  0.1837  0.1883
  110loPI   C3A 1753  18.087  13.961   7.890  0.1261  0.0810  0.2295
  110loPI   C4A 1754  17.903  14.311   7.550 -0.0932  0.3182 -0.2252
  110loPI   C5A 1755  17.520  14.257   7.258 -0.2195 -0.0885  0.1660
  110loPI   C6A 1756  17.064  14.144   7.333  0.2088  0.2800  0.4045
  110loPI   C1B 1757  18.083  13.112   8.509  0.0322  0.0413 -0.1773
  110loPI   C2B 1758  17.985  13.277   8.154 -0.0056 -0.2346 -0.0895
  110loPI   C3B 1759  18.189  13.494   7.869  0.0361 -0.4103  0.0715
  110loPI   C4B 1760  18.199  13.659   7.442 -0.0282  0.2336  0.0922
  111loPI    C1 1761   1.600  14.468   9.998 -0.1435  0.1583 -0.0617
  111loPI    C2 1762   1.523  14.104  10.145  0.0008  0.0116 -0.3423
  111loPI    C3 1763   1.530  14.421  10.389 -0.1336 -0.1710 -0.0972
  111loPI   PO4 1764   1.432  14.462   9.762  0.3083 -0.0545 -0.1766
  111loPI   GL1 1765   1.534  14.103   9.581 -0.2967  0.1772  0.2690
  111loPI   GL2 1766   1.513  14.295   9.286 -0.3787 -0.0309  0.0398
  111loPI   C1A 1767   1.712  13.878   9.120  0.2261 -0.3929  0.1106
  111loPI   C2A 1768   1.946  14.001   8.804  0.0496  0.1776 -0.1777
  111loPI   C3A 1769   1.966  13.978   8.336 -0.0376  0.0248 -0.0175
  111loPI   C4A 1770   2.083  14.073   8.017  0.2130 -0.2338  0.1581
  111loPI   C5A 1771   2.219  13.928   7.626 -0.1217 -0.1576 -0.1552
  111loPI   C6A 1772   2.457  13.846   7.302  0.0383  0.1101  0.1826
  111loPI   C1B 1773   1.540  14.377   8.843 -0.0300 -0.3340  0.1615
  111loPI   C2B 1774   1.495  14.153   8.427  0.0852  0.1050  0.2506
  111loPI   C3B 1775   1.217  14.257   8.089  0.1638 -0.0490  0.2563
  111loPI   C4B 1776   0.841  14.408   7.892 -0.0920  0.1699  0.3507
  112loPI    C1 1777   2.180   0.694  10.228 -0.2246  0.2966 -0.0993
  112loPI    C2 1778   1.899   0.652  10.510  0.1523 -0.0821  0.2343
  112loPI    C3 1779   2.129   0.979  10.504  0.1438 -0.0732  0.3694
  112loPI   PO4 1780   2.089   0.625   9.984 -0.1531  0.0142  0.3006
  112loPI   GL1 1781   1.875   0.676   9.657  0.1678  0.2864  0.2193
  112loPI   GL2 1782   1.863   0.283   9.675  0.1495  0.3297  0.1649
  112loPI   C1A 1783   1.615   0.662   9.300  0.1605  0.0824  0.0247
  112loPI   C2A 1784   1.600   0.648   8.844 -0.0233 -0.0856  0.0907
  112loPI   C3A 1785   1.902   0.649   8.508 -0.0224 -0.0991  0.0625
  112loPI   C4A 1786   1.741   0.705   8.103  0.3456  0.1662  0.0392
  112loPI   C5A 1787   1.491   0.736   7.723  0.1187 -0.0488  0.0450
  112loPI   C6A 1788   1.475   0.910   7.304 -0.0039  0.1828  0.2928
  112loPI   C1B 1789   2.101   0.443   9.174  0.0731 -0.0103  0.0545
  112loPI   C2B 1790   2.268   0.406   8.846 -0.0236 -0.1982 -0.0426
  112loPI   C3B 1791   2.324   0.489   8.343  0.1546  0.4824  0.0511
  112loPI   C4B 1792   2.354   0.646   7.989  0.1634  0.1567 -0.0479
  113loPI    C1 1793   6.810   9.448  10.564 -0.1421 -0.1049  0.1593
  113loPI    C2 1794   7.099   9.653  10.750 -0.1937  0.0085  0.1154
  113loPI    C3 1795   6.716   9.761  10.795 -0.2424 -0.2243  0.2822
  113loPI   PO4 1796   6.827   9.464  10.341  0.1982  0.0056 -0.1196
  113loPI   GL1 1797   6.854   9.550   9.972  0.1317 -0.0903  0.1891
  113loPI   GL2 1798   6.612   9.568   9.778 -0.1287 -0.1497 -0.0078
  113loPI   C1A 1799   7.159   9.390   9.630  0.2177  0.0355  0.2164
  113loPI   C2A 1800   7.090   9.414   9.194  0.1527 -0.0543  0.2582
  113loPI   C3A 1801   7.207   9.435   8.762  0.1188  0.4686 -0.1110
  113loPI   C4A 1802   7.174   9.497   8.295  0.0748  0.0526 -0.4935
  113loPI   C5A 1803   7.051   9.710   7.870 -0.0950  0.2344 -0.1411
  113loPI   C6A 1804   7.079   9.744   7.441  0.2211 -0.3670 -0.5362
  113loPI   C1B 1805   6.563   9.578   9.355 -0.0324  0.1402 -0.2316
  113loPI   C2B 1806   6.664   9.619   9.017  0.4783 -0.0973  0.3841
  113loPI   C3B 1807   6.654   9.611   8.601  0.0551  0.2353  0.2369
  113loPI   C4B 1808   6.636   9.631   8.150  0.0429 -0.1482  0.1043
  114loPI    C1 1809   0.279  10.336   9.926 -0.1240 -0.0811 -0.2004
  114loPI    C2 1810  -0.019  10.498  10.137 -0.1771 -0.2997 -0.1043
  114loPI    C3 1811   0.351  10.491  10.287 -0.1129  0.0052 -0.2394
  114loPI   PO4 1812   0.279  10.406   9.685  0.3512  0.3108 -0.1957
  114loPI   GL1 1813   0.100  10.697   9.405  0.3041 -0.0148  0.0028
  114loPI   GL2 1814  -0.186  10.493   9.181  0.2490  0.1194  0.1517
  114loPI   C1A 1815   0.253  10.656   9.037 -0.3930 -0.1744  0.2987
  114loPI   C2A 1816   0.348  10.799   8.596  0.2967 -0.2613 -0.1424
  114loPI   C3A 1817   0.384  10.826   8.090  0.2874  0.1410 -0.1742
  114loPI   C4A 1818   0.256  10.614   7.687  0.1644 -0.1325 -0.2784
  114loPI   C5A 1819   0.167  10.730   7.326 -0.0831  0.0988  0.4148
  114loPI   C6A 1820   0.478  11.030   7.146  0.1722 -0.1311 -0.0332
  114loPI   C1B 1821  -0.046  10.541   8.694  0.3856 -0.0348 -0.1300
  114loPI   C2B 1822  -0.040  10.617   8.282  0.0238  0.0678  0.0311
  114loPI   C3B 1823  -0.171  10.458   7.930 -0.1186 -0.2942  0.3114
  114loPI   C4B 1824  -0.256  10.499   7.479 -0.1354  0.1617  0.0426
  115loPI    C1 1825  12.247   4.562  10.655 -0.4435 -0.1130  0.0498
  115loPI    C2 1826  12.271   4.938  10.790 -0.2994 -0.1132  0.0272
  115loPI    C3 1827  12.040   4.672  10.979 -0.1843 -0.0852  0.2088
  115loPI   PO4 1828  12.265   4.565  10.411  0.2402 -0.3370 -0.1263
  115loPI   GL1 1829  12.410   4.480  10.071 -0.2234 -0.2180 -0.0382
  115loPI   GL2 1830  12.741   4.571   9.866  0.0976  0.1968  0.0299
  115loPI   C1A 1831  12.395   4.231   9.750  0.3381 -0.0481  0.3146
  115loPI   C2A 1832  12.307   4.104   9.373  0.4046 -0.3470  0.0274
  115loPI   C3A 1833  12.313   4.074   8.957 -0.2392 -0.0183 -0.0306
  115loPI   C4A 1834  12.269   4.186   8.569 -0.2592  0.0625 -0.4279
  115loPI   C5A 1835  12.349   4.254   8.171 -0.0920 -0.0716 -0.0524
  115loPI   C6A 1836  12.595   4.622   7.945 -0.2024 -0.0559  0.1001
  115loPI   C1B 1837  12.780   4.634   9.491 -0.2477 -0.4046 -0.2179
  115loPI   C2B 1838  12.659   4.431   9.176  0.2903  0.1308  0.0198
  115loPI   C3B 1839  12.641   4.432   8.764 -0.2644 -0.1966 -0.2595
  115loPI   C4B 1840  12.624   4.584   8.474  0.0309 -0.3756  0.3606
  116loPI    C1 1841  16.602   8.595   9.973  0.0212  0.1021  0.2155
  116loPI    C2 1842  16.362   8.462  10.264  0.1751  0.0856  0.3360
  116loPI    C3 1843  16.686   8.252  10.159 -0.0757 -0.0978 -0.1013
  116loPI   PO4 1844  16.486   8.736   9.829  0.0294 -0.2849  0.3970
  116loPI   GL1 1845  16.495   8.769   9.432 -0.1648 -0.2921 -0.0187
  116loPI   GL2 1846  16.431   8.453   9.411 -0.0729 -0.1009 -0.0320
  116loPI   C1A 1847  16.652   8.860   9.137 -0.0559 -0.0547  0.1958
  116loPI   C2A 1848  16.598   8.801   8.686 -0.1695  0.1761 -0.0149
  116loPI   C3A 1849  16.554   8.755   8.204  0.0056  0.3375  0.1047
  116loPI   C4A 1850  16.799   8.725   7.897 -0.1187 -0.0720 -0.0282
  116loPI   C5A 1851  17.093   8.627   7.700 -0.4126 -0.1218 -0.1601
  116loPI   C6A 1852  17.370   8.398   7.610  0.3726 -0.1366 -0.0052
  116loPI   C1B 1853  16.495   8.373   9.004  0.1621  0.0196 -0.1832
  116loPI   C2B 1854  16.478   8.337   8.478 -0.2335  0.0228  0.2431
  116loPI   C3B 1855  16.463   8.297   8.080 -0.0060  0.0814 -0.0844
  116loPI   C4B 1856  16.681   8.290   7.605  0.3653 -0.0759  0.0060
  117loPI    C1 1857  17.357   9.297   9.979 -0.1054 -0.2873 -0.2174
  117loPI    C2 1858  17.671   9.050   9.990 -0.0060 -0.1499  0.2613
  117loPI    C3 1859  17.704   9.421  10.135 -0.3512 -0.0865  0.1857
  117loPI   PO4 1860  17.255   9.230   9.762  0.0647  0.0645  0.0167
  117loPI   GL1 1861  17.359   8.977   9.434 -0.1268  0.0609 -0.0268
  117loPI   GL2 1862  17.518   9.290   9.300 -0.1662 -0.0802  0.2155
  117loPI   C1A 1863  17.319   8.861   9.008  0.1666  0.1721  0.0653
  117loPI   C2A 1864  17.166   8.922   8.607 -0.0552 -0.0249  0.0403
  117loPI   C3A 1865  16.929   9.039   8.362 -0.2743 -0.0599  0.4226
  117loPI   C4A 1866  16.701   9.242   7.957  0.1715  0.2279 -0.2986
  117loPI   C5A 1867  16.551   9.317   7.602 -0.0564 -0.0147 -0.2115
  117loPI   C6A 1868  16.422   9.259   7.170 -0.3677 -0.0808 -0.4319
  117loPI   C1B 1869  17.519   9.273   8.863 -0.0098 -0.0484  0.1673
  117loPI   C2B 1870  17.615   9.206   8.444 -0.0924  0.4560  0.0975
  117loPI   C3B 1871  17.474   9.393   7.987  0.0056 -0.0621 -0.2830
  117loPI   C4B 1872  17.219   9.154   7.800 -0.0930 -0.3638 -0.1233
  118loPI    C1 1873  10.406  15.975  10.325  0.0923  0.4027 -0.0044
  118loPI    C2 1874  10.369  15.870  10.709  0.3930  0.2491 -0.0144
  118loPI    C3 1875  10.046  15.982  10.500  0.1319 -0.2171  0.1234
  118loPI   PO4 1876  10.613  15.895  10.237  0.1882 -0.0204 -0.0374
  118loPI   GL1 1877  10.928  15.932   9.957 -0.2165 -0.2051  0.2270
  118loPI   GL2 1878  10.831  16.303   9.938 -0.2426 -0.0354  0.3789
  118loPI   C1A 1879  10.948  15.876   9.471  0.0260 -0.4132 -0.0123
  118loPI   C2A 1880  11.005  15.860   9.072  0.2048 -0.0273 -0.2405
  118loPI   C3A 1881  10.819  15.856   8.663  0.2329 -0.1705  0.3404
  118loPI   C4A 1882  10.873  15.842   8.280 -0.1205  0.3721  0.2303
  118loPI   C5A 1883  10.911  15.746   7.770  0.4455 -0.1317  0.1112
  118loPI   C6A 1884  10.881  16.116   7.608 -0.0622 -0.0303  0.4960
  118loPI   C1B 1885  10.893  16.356   9.565 -0.1495 -0.1708  0.0208
  118loPI   C2B 1886  10.829  16.320   9.138  0.0079 -0.4765 -0.2818
  118loPI   C3B 1887  10.817  16.396   8.753  0.3150 -0.2294  0.1474
  118loPI   C4B 1888  10.810  16.329   8.393  0.0896 -0.1747  0.1900
  119loPI    C1 1889   8.539  10.176  11.076 -0.0097  0.1457  0.0914
  119loPI    C2 1890   8.622   9.918  11.371 -0.2994  0.2829  0.2982
  119loPI    C3 1891   8.817  10.267  11.349  0.1451  0.0255 -0.0241
  119loPI   PO4 1892   8.524   9.985  10.908  0.0181 -0.3660  0.0979
  119loPI   GL1 1893   8.527  10.086  10.445  0.1553 -0.0768  0.2293
  119loPI   GL2 1894   8.320  10.274  10.301  0.1897 -0.0580 -0.1608
  119loPI   C1A 1895   8.782  10.016  10.043 -0.1049  0.1754  0.1222
  119loPI   C2A 1896   8.801  10.117   9.579 -0.2165 -0.2697  0.0158
  119loPI   C3A 1897   8.890  10.175   9.046 -0.0544  0.0803  0.1286
  119loPI   C4A 1898   8.893  10.262   8.514  0.0686 -0.1649  0.0937
  119loPI   C5A 1899   8.523  10.370   8.186  0.0628 -0.1102 -0.2050
  119loPI   C6A 1900   8.727  10.702   7.872  0.2508  0.2021  0.0164
  119loPI   C1B 1901   8.331  10.285   9.864  0.0536 -0.2533 -0.0268
  119loPI   C2B 1902   8.344  10.322   9.404  0.1071 -0.0529 -0.2294
  119loPI   C3B 1903   8.377  10.395   9.017 -0.4175  0.2365  0.0863
  119loPI   C4B 1904   8.274  10.438   8.679 -0.0822  0.0035  0.3872
  120loPI    C1 1905   0.037   4.887   9.599  0.1693  0.0401  0.0975
  120loPI    C2 1906   0.148   5.025   9.957 -0.2133 -0.0916  0.2722
  120loPI    C3 1907  -0.200   4.831   9.917 -0.3738  0.2816 -0.2484
  120loPI   PO4 1908  -0.015   5.033   9.466 -0.1936  0.2516  0.2948
  120loPI   GL1 1909   0.231   5.388   9.147 -0.0236 -0.0556  0.0263
  120loPI   GL2 1910   0.373   5.405   9.471 -0.2305 -0.1888  0.1720
  120loPI   C1A 1911   0.437   5.365   8.833 -0.2352 -0.0031  0.1354
  120loPI   C2A 1912   0.552   5.449   8.404 -0.2486  0.0928 -0.3274
  120loPI   C3A 1913   0.507   5.463   8.034 -0.2374  0.0323 -0.0119
  120loPI   C4A 1914   0.600   5.801   7.768  0.1839 -0.1581  0.0923
  120loPI   C5A 1915   0.356   6.097   7.618 -0.0791  0.0111  0.3308
  120loPI   C6A 1916   0.303   6.603   7.483 -0.0445  0.2321 -0.0350
  120loPI   C1B 1917   0.790   5.346   9.144 -0.0531  0.0397 -0.0823
  120loPI   C2B 1918   0.914   5.263   8.707 -0.1430  0.0370  0.1419
  120loPI   C3B 1919   0.968   5.361   8.192 -0.2877 -0.3152 -0.2419
  120loPI   C4B 1920   1.044   5.575   7.802 -0.3113 -0.1628 -0.1833
  121loPI    C1 1921   3.920   7.826  10.698 -0.0219  0.0841  0.0348
  121loPI    C2 1922   3.719   7.574  10.935  0.3594  0.0334  0.3148
  121loPI    C3 1923   3.701   7.969  11.001 -0.1816  0.0869 -0.0806
  121loPI   PO4 1924   3.903   7.632  10.468  0.0663 -0.2632  0.0496
  121loPI   GL1 1925   3.998   7.625   9.999  0.0217 -0.1683  0.5195
  121loPI   GL2 1926   3.884   7.876   9.821 -0.4755  0.1485 -0.0111
  121loPI   C1A 1927   4.083   7.525   9.552 -0.0040  0.2110  0.1869
  121loPI   C2A 1928   4.159   7.434   9.109 -0.0317 -0.0129 -0.1006
  121loPI   C3A 1929   4.143   7.517   8.703  0.2260 -0.0541  0.0829
  121loPI   C4A 1930   4.246   7.599   8.297 -0.0625 -0.2190  0.4666
  121loPI   C5A 1931   4.341   7.538   7.784 -0.0944  0.0413  0.0053
  121loPI   C6A 1932   4.676   7.468   7.517  0.1586  0.0239  0.1249
  121loPI   C1B 1933   3.935   8.053   9.479  0.1860  0.0583 -0.3036
  121loPI   C2B 1934   4.036   8.077   9.045  0.0956 -0.3778  0.1497
  121loPI   C3B 1935   4.072   8.105   8.640 -0.0186 -0.2403 -0.2800
  121loPI   C4B 1936   4.300   8.070   8.234 -0.2273  0.0280  0.2466
  122loPI    C1 1937   0.676  13.762   9.529  0.0669 -0.0855 -0.1075
  122loPI    C2 1938   0.325  13.758   9.720  0.0466 -0.0130 -0.1431
  122loPI    C3 1939   0.661  13.670   9.918  0.0028 -0.1344 -0.1214
  122loPI   PO4 1940   0.641  13.958   9.389 -0.2311  0.1039  0.3613
  122loPI   GL1 1941   0.516  14.286   9.082  0.1655 -0.0386  0.1512
  122loPI   GL2 1942   0.256  13.988   8.856 -0.1543  0.0953 -0.2557
  122loPI   C1A 1943   0.983  14.314   8.906  0.3450  0.0968 -0.1138
  122loPI   C2A 1944   1.091  14.462   8.521 -0.0132  0.0772 -0.2672
  122loPI   C3A 1945   1.008  14.845   8.177 -0.0280  0.3554  0.1408
  122loPI   C4A 1946   0.801  15.070   7.786 -0.1150  0.2022  0.2294
  122loPI   C5A 1947   0.699  15.418   7.406  0.0916 -0.3053  0.2363
  122loPI   C6A 1948   0.214  15.435   7.261  0.0062 -0.2884  0.1125
  122loPI   C1B 1949   0.071  14.275   8.507  0.1448 -0.4124 -0.2052
  122loPI   C2B 1950  -0.002  14.398   8.165  0.0471  0.0562 -0.1046
  122loPI   C3B 1951  -0.188  14.456   7.777  0.1316 -0.0063  0.1676
  122loPI   C4B 1952  -0.332  14.232   7.367  0.0724 -0.0583 -0.2553
  123loPI    C1 1953   7.370   1.316  10.541  0.1833 -0.0643 -0.0672
  123loPI    C2 1954   7.473   1.062  10.832  0.0678 -0.0213  0.0118
  123loPI    C3 1955   7.206   1.351  10.904  0.1713  0.1003 -0.0877
  123loPI   PO4 1956   7.568   1.356  10.435 -0.1205  0.2088 -0.1229
  123loPI   GL1 1957   7.693   1.434  10.030 -0.2395 -0.2545  0.1275
  123loPI   GL2 1958   7.756   1.147  10.048 -0.0153 -0.4104  0.0249
  123loPI   C1A 1959   7.651   1.415   9.548 -0.0541 -0.1701  0.0298
  123loPI   C2A 1960   7.767   1.396   9.064 -0.0864 -0.1116 -0.0790
  123loPI   C3A 1961   7.777   1.377   8.648 -0.0502  0.1868 -0.3659
  123loPI   C4A 1962   7.765   1.508   8.244  0.0913  0.2409 -0.2019
  123loPI   C5A 1963   7.751   1.840   7.975  0.4597  0.2671  0.0836
  123loPI   C6A 1964   7.494   2.058   7.692  0.1010 -0.1457 -0.3375
  123loPI   C1B 1965   7.875   0.862   9.687 -0.4242 -0.1024 -0.1828
  123loPI   C2B 1966   7.826   0.890   9.157  0.1440 -0.0330  0.0139
  123loPI   C3B 1967   7.856   0.883   8.714  0.0351  0.2125 -0.1660
  123loPI   C4B 1968   7.882   1.038   8.308 -0.1584  0.0334 -0.0802
  124loPI    C1 1969  18.573  14.257   9.704  0.0319 -0.0253  0.2208
  124loPI    C2 1970  18.768  14.569   9.547 -0.0550  0.0988  0.3564
  124loPI    C3 1971  18.680  14.564   9.937 -0.0253 -0.1112  0.3616
  124loPI   PO4 1972  18.399  14.194   9.470  0.2027 -0.3358  0.0246
  124loPI   GL1 1973  18.104  14.262   9.276  0.3213  0.0916 -0.0851
  124loPI   GL2 1974  17.953  13.933   9.144  0.0301 -0.4289  0.0305
  124loPI   C1A 1975  18.077  14.472   8.859 -0.0619 -0.2667 -0.4337
  124loPI   C2A 1976  18.009  14.750   8.525  0.3049 -0.1140  0.3347
  124loPI   C3A 1977  17.958  14.967   8.137  0.0725 -0.0081 -0.2957
  124loPI   C4A 1978  17.797  15.342   7.948  0.1196 -0.2619 -0.0968
  124loPI   C5A 1979  17.634  15.221   7.511  0.0016 -0.1889  0.1465
  124loPI   C6A 1980  17.421  14.901   7.321 -0.1104 -0.2646  0.1077
  124loPI   C1B 1981  18.016  13.966   8.720  0.0507 -0.1816 -0.0451
  124loPI   C2B 1982  18.022  14.306   8.395  0.0320 -0.1368 -0.1051
  124loPI   C3B 1983  18.037  14.499   8.006  0.0280  0.1141 -0.0945
  124loPI   C4B 1984  17.873  14.789   7.635  0.0979 -0.1580 -0.0733
  125loPI    C1 1985   5.606   6.296  10.428 -0.2692 -0.0613 -0.1824
  125loPI    C2 1986   5.866   6.105  10.664 -0.1825  0.1218 -0.1275
  125loPI    C3 1987   5.475   6.023  10.689 -0.1144 -0.2982 -0.3483
  125loPI   PO4 1988   5.706   6.323  10.154  0.3490  0.3209 -0.2381
  125loPI   GL1 1989   5.660   6.628   9.807  0.1377  0.3220 -0.2242
  125loPI   GL2 1990   5.431   6.827   9.705 -0.0077  0.3426 -0.0590
  125loPI   C1A 1991   5.709   6.461   9.355 -0.0853 -0.1840 -0.1739
  125loPI   C2A 1992   5.757   6.403   8.936 -0.1851  0.1333 -0.0268
  125loPI   C3A 1993   5.905   6.545   8.507 -0.0632  0.2068 -0.0487
  125loPI   C4A 1994   5.815   6.484   8.093  0.0716  0.1999 -0.4064
  125loPI   C5A 1995   5.865   6.374   7.777 -0.2276 -0.1441  0.0509
  125loPI   C6A 1996   5.466   6.304   7.528 -0.0607  0.0564 -0.0093
  125loPI   C1B 1997   5.615   6.954   9.202  0.1188 -0.0572 -0.2899
  125loPI   C2B 1998   5.665   6.923   8.824  0.1544  0.0691 -0.0119
  125loPI   C3B 1999   5.806   7.020   8.509 -0.1460  0.1325  0.1094
  125loPI   C4B 2000   5.612   7.070   8.064  0.0840 -0.0884  0.2335
  126loPI    C1 2001  14.238   2.331  10.379  0.1725  0.2211  0.0709
  126loPI    C2 2002  13.895   2.423  10.564 -0.0204 -0.1032 -0.1162
  126loPI    C3 2003  14.245   2.525  10.729 -0.2035  0.1972  0.0958
  126loPI   PO4 2004  14.195   2.470  10.152 -0.0254 -0.0224  0.0055
  126loPI   GL1 2005  13.882   2.650   9.864  0.1694 -0.0289 -0.5266
  126loPI   GL2 2006  13.546   2.692   9.694  0.2724 -0.1128  0.0102
  126loPI   C1A 2007  13.912   2.553   9.436  0.4439  0.0453  0.0737
  126loPI   C2A 2008  13.900   2.690   9.042 -0.0030 -0.1628 -0.2277
  126loPI   C3A 2009  13.869   2.692   8.532 -0.1765 -0.1198 -0.1115
  126loPI   C4A 2010  13.850   2.676   8.092  0.0288 -0.1759  0.0075
  126loPI   C5A 2011  13.894   3.047   7.741  0.1183 -0.3029  0.0783
  126loPI   C6A 2012  14.124   3.032   7.428 -0.0347  0.1501  0.0759
  126loPI   C1B 2013  13.463   2.857   9.311  0.1955 -0.3744 -0.0725
  126loPI   C2B 2014  13.444   2.810   8.824  0.1517  0.3781  0.0457
  126loPI   C3B 2015  13.421   2.943   8.340  0.1340  0.1124  0.0163
  126loPI   C4B 2016  13.324   2.919   7.968  0.1053  0.0221 -0.0164
  127loPI    C1 2017   5.685  17.636  10.337 -0.0692 -0.1195 -0.1292
  127loPI    C2 2018   5.927  17.893  10.526  0.0230 -0.3327  0.0478
  127loPI    C3 2019   5.701  17.640  10.737 -0.2149 -0.2645 -0.1213
  127loPI   PO4 2020   5.555  17.760  10.124  0.0514 -0.2476 -0.1535
  127loPI   GL1 2021   5.546  17.841   9.778 -0.1841  0.2896  0.1708
  127loPI   GL2 2022   5.277  17.636   9.721 -0.3769 -0.2646 -0.0629
  127loPI   C1A 2023   5.728  18.059   9.393 -0.0282  0.1410 -0.1338
  127loPI   C2A 2024   5.804  18.120   8.995  0.3884  0.1489 -0.1867
  127loPI   C3A 2025   5.783  18.072   8.491 -0.2772  0.3959 -0.0276
  127loPI   C4A 2026   5.918  18.153   8.046  0.1669  0.0515 -0.3641
  127loPI   C5A 2027   5.957  17.877   7.709 -0.0427 -0.1717 -0.2071
  127loPI   C6A 2028   6.124  17.612   7.367  0.2474 -0.0792  0.2941
  127loPI   C1B 2029   5.256  17.317   9.389 -0.0386  0.3765  0.1013
  127loPI   C2B 2030   5.453  17.179   9.074 -0.2172  0.0280  0.0183
  127loPI   C3B 2031   5.377  17.216   8.661 -0.1144 -0.0268 -0.1033
  127loPI   C4B 2032   5.514  17.137   8.322 -0.0555  0.0505 -0.0804
  128loPI    C1 2033   6.739  10.431  10.368  0.2415 -0.1269 -0.0044
  128loPI    C2 2034   6.966  10.659  10.606 -0.0521  0.3249 -0.1439
  128loPI    C3 2035   6.834  10.304  10.736 -0.0282  0.4673  0.2836
  128loPI   PO4 2036   6.598  10.585  10.099 -0.0534 -0.1476 -0.3427
  128loPI   GL1 2037   6.392  10.650   9.764  0.3549  0.0170 -0.3021
  128loPI   GL2 2038   6.206  10.315   9.915 -0.1955  0.3792  0.1749
  128loPI   C1A 2039   6.414  10.613   9.302 -0.0240 -0.2617 -0.0903
  128loPI   C2A 2040   6.414  10.539   8.913  0.0019  0.4610 -0.1507
  128loPI   C3A 2041   6.403  10.680   8.565  0.1273  0.3723 -0.0094
  128loPI   C4A 2042   6.314  10.544   8.217  0.0022 -0.4653 -0.0046
  128loPI   C5A 2043   6.462  10.734   7.797  0.0059  0.2445  0.1282
  128loPI   C6A 2044   6.321  11.092   7.673  0.1396  0.1525  0.2428
  128loPI   C1B 2045   6.414  10.180   9.627 -0.0213 -0.3446  0.1074
  128loPI   C2B 2046   6.522  10.084   9.194 -0.2812  0.3574  0.2003
  128loPI   C3B 2047   6.579  10.058   8.758  0.1089 -0.0932  0.1338
  128loPI   C4B 2048   6.469  10.125   8.352 -0.1022  0.0426  0.0056
  129loPI    C1 2049   1.615   9.614   9.993  0.0154 -0.0894  0.3978
  129loPI    C2 2050   1.620  10.013  10.018  0.3064 -0.0624  0.0143
  129loPI    C3 2051   1.768   9.792  10.317 -0.1088  0.1021  0.3528
  129loPI   PO4 2052   1.673   9.622   9.674 -0.0657  0.0573  0.0724
  129loPI   GL1 2053   1.547   9.417   9.331 -0.2335 -0.2008  0.3428
  129loPI   GL2 2054   1.335   9.578   9.286 -0.4733 -0.2461  0.1758
  129loPI   C1A 2055   1.836   9.314   8.988 -0.0674  0.4148  0.4763
  129loPI   C2A 2056   1.832   9.262   8.606  0.2134 -0.0109 -0.2711
  129loPI   C3A 2057   1.845   9.218   8.143 -0.0475  0.2395 -0.3277
  129loPI   C4A 2058   1.940   8.864   7.885  0.2399  0.3045 -0.1429
  129loPI   C5A 2059   2.193   8.706   7.558 -0.1341  0.1023 -0.1879
  129loPI   C6A 2060   2.040   8.691   7.130  0.3464  0.0159  0.1044
  129loPI   C1B 2061   1.378   9.462   8.827  0.0929  0.1463  0.1116
  129loPI   C2B 2062   1.409   9.338   8.438 -0.0347  0.1720 -0.2704
  129loPI   C3B 2063   1.384   9.230   7.976  0.2085 -0.1888 -0.0490
  129loPI   C4B 2064   1.384   9.371   7.489  0.4302  0.1056  0.1990
  130loPI    C1 2065  13.541  15.861  10.301  0.0045  0.0546  0.0234
  130loPI    C2 2066  13.258  15.591  10.389  0.0870  0.0464  0.2723
  130loPI    C3 2067  13.308  15.912  10.623  0.1426  0.1586  0.1082
  130loPI   PO4 2068  13.509  15.939  10.040  0.2036 -0.2338 -0.1993
  130loPI   GL1 2069  13.154  16.021   9.740  0.2810  0.1196 -0.1153
  130loPI   GL2 2070  13.190  15.679   9.661 -0.0246  0.1750  0.0294
  130loPI   C1A 2071  12.954  16.098   9.368 -0.0525  0.0169  0.1939
  130loPI   C2A 2072  12.808  16.115   8.848 -0.0455 -0.1517 -0.0867
  130loPI   C3A 2073  12.815  16.076   8.394  0.2137  0.2302 -0.1274
  130loPI   C4A 2074  12.634  15.988   8.010 -0.1024  0.3125  0.1010
  130loPI   C5A 2075  12.504  16.334   7.685  0.1933 -0.0196 -0.1796
  130loPI   C6A 2076  12.153  16.402   7.402  0.0695  0.0984 -0.0571
  130loPI   C1B 2077  13.072  15.568   9.322 -0.0835 -0.5935  0.4854
  130loPI   C2B 2078  12.976  15.677   8.903  0.1686  0.1445  0.3966
  130loPI   C3B 2079  12.884  15.626   8.435  0.0420 -0.0393 -0.1832
  130loPI   C4B 2080  12.825  15.536   7.993  0.0597 -0.2584  0.2888
  131loPI    C1 2081  11.953  16.535  10.438  0.2077 -0.2259 -0.2488
  131loPI    C2 2082  12.130  16.666  10.772 -0.1850  0.2095 -0.2006
  131loPI    C3 2083  12.176  16.285  10.657  0.0992  0.1001  0.2498
  131loPI   PO4 2084  12.057  16.756  10.189 -0.2992 -0.1283  0.4244
  131loPI   GL1 2085  11.776  16.840   9.908 -0.1039 -0.0610 -0.0947
  131loPI   GL2 2086  11.982  17.030   9.661  0.1487  0.1189  0.3129
  131loPI   C1A 2087  11.861  16.609   9.518 -0.0033 -0.0890  0.1399
  131loPI   C2A 2088  11.922  16.526   9.115  0.1651 -0.2520  0.0088
  131loPI   C3A 2089  11.748  16.419   8.664  0.0033  0.0975 -0.3427
  131loPI   C4A 2090  11.694  16.436   8.192  0.1046  0.0730 -0.1946
  131loPI   C5A 2091  11.497  16.627   7.863  0.1084  0.2047  0.0287
  131loPI   C6A 2092  11.478  17.081   7.743  0.2014 -0.2052 -0.1867
  131loPI   C1B 2093  11.808  16.990   9.235 -0.2963  0.1550 -0.1420
  131loPI   C2B 2094  11.587  17.028   8.924  0.3155 -0.0002  0.1703
  131loPI   C3B 2095  11.668  16.952   8.612  0.1848 -0.0520 -0.0441
  131loPI   C4B 2096  11.484  17.031   8.229  0.1252  0.0832 -0.1156
  132loPI    C1 2097  16.113   7.240  10.062  0.1136  0.0850  0.0119
  132loPI    C2 2098  16.362   6.943  10.164 -0.0056 -0.0716 -0.1481
  132loPI    C3 2099  16.080   7.065  10.421  0.1227 -0.0122 -0.0344
  132loPI   PO4 2100  16.202   7.378   9.916 -0.5649  0.0307 -0.1489
  132loPI   GL1 2101  16.432   7.351   9.572 -0.1024 -0.1417  0.0884
  132loPI   GL2 2102  16.261   7.384   9.319  0.0176  0.0713 -0.0864
  132loPI   C1A 2103  16.658   7.029   9.240  0.0629  0.2564  0.4710
  132loPI   C2A 2104  16.908   7.021   8.967  0.2216  0.2356 -0.0498
  132loPI   C3A 2105  16.989   6.975   8.544  0.5879 -0.0251  0.1387
  132loPI   C4A 2106  17.219   7.095   8.201  0.4852 -0.0550 -0.3670
  132loPI   C5A 2107  17.191   6.970   7.745 -0.0326  0.0868 -0.1476
  132loPI   C6A 2108  17.015   6.991   7.243 -0.2757  0.1567  0.0127
  132loPI   C1B 2109  16.274   7.616   8.958  0.0383  0.3724  0.0499
  132loPI   C2B 2110  16.180   7.587   8.557 -0.1484 -0.0619 -0.1926
  132loPI   C3B 2111  16.224   7.478   8.190 -0.1755  0.0630 -0.0036
  132loPI   C4B 2112  16.340   7.282   7.845 -0.0285  0.0786 -0.0478
  133loPI    C1 2113   3.712   7.113  10.303 -0.0255 -0.0917 -0.1262
  133loPI    C2 2114   3.515   7.330  10.576  0.1465 -0.0296 -0.0506
  133loPI    C3 2115   3.835   7.114  10.684 -0.0124 -0.3086 -0.1285
  133loPI   PO4 2116   3.651   7.088  10.091 -0.1791 -0.1174  0.0468
  133loPI   GL1 2117   3.603   7.298   9.729 -0.2353 -0.0569 -0.4361
  133loPI   GL2 2118   3.515   7.630   9.637  0.1855  0.0292  0.0241
  133loPI   C1A 2119   3.721   7.197   9.258 -0.2618  0.1570  0.2388
  133loPI   C2A 2120   3.785   7.090   8.794  0.0523 -0.0324 -0.3272
  133loPI   C3A 2121   3.876   7.176   8.366  0.1066 -0.1276  0.3923
  133loPI   C4A 2122   3.861   7.155   7.947 -0.2060 -0.0874  0.3169
  133loPI   C5A 2123   3.826   7.373   7.651  0.1119  0.1155  0.0963
  133loPI   C6A 2124   3.748   7.449   7.223  0.3771  0.1035  0.2508
  133loPI   C1B 2125   3.654   7.671   9.337 -0.0888 -0.0879 -0.2561
  133loPI   C2B 2126   3.548   7.701   8.933 -0.2653 -0.0530  0.2547
  133loPI   C3B 2127   3.752   7.764   8.484 -0.2247  0.0242  0.1468
  133loPI   C4B 2128   3.740   7.625   8.037 -0.0332 -0.3797 -0.1082
  134loPI    C1 2129   3.987   5.123  10.301 -0.1555  0.0611 -0.2197
  134loPI    C2 2130   4.077   5.461  10.496 -0.1800 -0.0167 -0.0722
  134loPI    C3 2131   4.029   5.119  10.699  0.1506 -0.1736 -0.2496
  134loPI   PO4 2132   3.997   5.196   9.950  0.1823  0.0621 -0.1200
  134loPI   GL1 2133   4.085   5.306   9.510  0.4185 -0.1281  0.3592
  134loPI   GL2 2134   4.429   5.396   9.626 -0.3673 -0.1322  0.3557
  134loPI   C1A 2135   4.097   5.121   9.102 -0.0664  0.0187  0.0435
  134loPI   C2A 2136   4.086   5.117   8.701  0.0469  0.1292  0.2874
  134loPI   C3A 2137   4.389   5.251   8.228  0.0742 -0.0691 -0.3860
  134loPI   C4A 2138   4.488   5.169   7.862 -0.0325 -0.2241  0.2713
  134loPI   C5A 2139   4.673   4.793   7.608  0.0113 -0.0353 -0.1377
  134loPI   C6A 2140   4.790   4.458   7.372  0.1539  0.0620  0.1896
  134loPI   C1B 2141   4.414   5.524   9.276 -0.1929 -0.1333 -0.1629
  134loPI   C2B 2142   4.502   5.444   8.783  0.0926  0.2445 -0.1912
  134loPI   C3B 2143   4.726   5.546   8.459  0.3120  0.2798  0.3288
  134loPI   C4B 2144   4.867   5.398   8.157  0.1589 -0.0820 -0.0608
  135loPI    C1 2145  10.779   2.437  10.748  0.1531  0.0235 -0.0501
  135loPI    C2 2146  10.656   2.683  11.039 -0.0874 -0.0534 -0.0849
  135loPI    C3 2147  10.907   2.816  10.758 -0.1570  0.1316 -0.0608
  135loPI   PO4 2148  10.471   2.214  10.614 -0.0035 -0.0298  0.0140
  135loPI   GL1 2149  10.472   2.006  10.262 -0.0050  0.1488 -0.1066
  135loPI   GL2 2150  10.278   1.802  10.032  0.2402  0.3925 -0.1546
  135loPI   C1A 2151  10.527   2.231   9.892  0.0078  0.1328 -0.2363
  135loPI   C2A 2152  10.424   2.393   9.542 -0.2854  0.3643 -0.2610
  135loPI   C3A 2153  10.385   2.351   9.202 -0.2037 -0.1239  0.1034
  135loPI   C4A 2154  10.339   2.453   8.784 -0.1969 -0.2750 -0.2497
  135loPI   C5A 2155  10.342   2.445   8.442 -0.2412  0.0980 -0.0875
  135loPI   C6A 2156  10.283   2.215   8.104  0.0352 -0.2128 -0.0516
  135loPI   C1B 2157  10.410   1.824   9.562  0.0219 -0.3576  0.3441
  135loPI   C2B 2158  10.433   1.829   9.031 -0.1397  0.2039  0.0222
  135loPI   C3B 2159  10.449   1.997   8.632 -0.1321  0.1271  0.1351
  135loPI   C4B 2160  10.643   1.848   8.195 -0.0094 -0.1377  0.0330
  136loPI    C1 2161  16.263   2.718   9.772  0.0799 -0.2796  0.0489
  136loPI    C2 2162  16.473   3.033   9.901  0.0158 -0.3174  0.2484
  136loPI    C3 2163  16.575   2.663  10.016 -0.1057 -0.3429  0.2753
  136loPI   PO4 2164  16.213   2.815   9.476  0.0045 -0.1487 -0.2863
  136loPI   GL1 2165  16.428   2.930   9.084 -0.0948  0.0718  0.1055
  136loPI   GL2 2166  16.353   2.559   8.944  0.1973  0.2267 -0.0051
  136loPI   C1A 2167  16.725   3.066   8.866 -0.2145  0.0706 -0.1211
  136loPI   C2A 2168  16.657   3.021   8.365 -0.2775  0.0789  0.3194
  136loPI   C3A 2169  16.536   3.019   7.937  0.4472  0.0139 -0.1448
  136loPI   C4A 2170  16.416   3.165   7.542  0.2383  0.3560 -0.1913
  136loPI   C5A 2171  16.410   2.904   7.220  0.0963 -0.1004 -0.1108
  136loPI   C6A 2172  16.667   2.532   6.931  0.1890 -0.1565  0.0098
  136loPI   C1B 2173  16.335   2.667   8.569  0.0459  0.0607  0.0737
  136loPI   C2B 2174  16.148   2.446   8.235 -0.1273  0.4345 -0.0533
  136loPI   C3B 2175  15.948   2.216   7.881 -0.3195 -0.1742 -0.3089
  136loPI   C4B 2176  15.721   2.348   7.598  0.0396  0.0791  0.1536
  137loPI    C1 2177  12.327   2.133  10.591 -0.0151  0.0158 -0.0091
  137loPI    C2 2178  12.069   1.910  10.800  0.1448 -0.2589 -0.1004
  137loPI    C3 2179  12.058   2.309  10.830 -0.0029 -0.2846  0.2308
  137loPI   PO4 2180  12.275   2.072  10.307 -0.2614  0.1633 -0.0260
  137loPI   GL1 2181  12.360   2.122   9.946 -0.1257  0.0860  0.0784
  137loPI   GL2 2182  12.507   1.926   9.835 -0.2761 -0.2524  0.0691
  137loPI   C1A 2183  12.308   2.372   9.583 -0.1340 -0.0792 -0.2964
  137loPI   C2A 2184  12.159   2.293   9.110  0.1912  0.3600 -0.0770
  137loPI   C3A 2185  12.170   2.311   8.713 -0.2383  0.1758  0.1339
  137loPI   C4A 2186  12.115   2.332   8.275  0.2307  0.2078  0.0606
  137loPI   C5A 2187  12.103   2.317   7.861  0.4981 -0.2107  0.4633
  137loPI   C6A 2188  12.198   2.429   7.430  0.4281 -0.0374 -0.0807
  137loPI   C1B 2189  12.365   1.872   9.447  0.5080 -0.2723  0.1398
  137loPI   C2B 2190  12.247   1.797   9.009  0.2024 -0.0122 -0.1001
  137loPI   C3B 2191  12.246   1.798   8.517 -0.0258 -0.2464 -0.1525
  137loPI   C4B 2192  12.173   1.701   8.049 -0.2840 -0.1084  0.3878
  138loPI    C1 2193   7.168  15.162  10.270 -0.0324  0.0493  0.0337
  138loPI    C2 2194   6.908  14.934  10.067 -0.0873  0.1299  0.0133
  138loPI    C3 2195   6.834  15.033  10.448 -0.0635  0.1137  0.0222
  138loPI   PO4 2196   7.228  15.412  10.087  0.2970 -0.2201  0.1139
  138loPI   GL1 2197   7.199  15.723   9.790 -0.3447  0.1000  0.1817
  138loPI   GL2 2198   7.368  15.555   9.649  0.1664 -0.0116 -0.0356
  138loPI   C1A 2199   7.265  16.003   9.464 -0.0614 -0.1277 -0.2400
  138loPI   C2A 2200   7.178  16.059   9.079 -0.0954  0.0317 -0.2279
  138loPI   C3A 2201   7.227  16.106   8.651  0.5329 -0.0085 -0.1065
  138loPI   C4A 2202   7.217  16.080   8.176 -0.0994 -0.0483 -0.2172
  138loPI   C5A 2203   7.054  16.337   7.892 -0.2673  0.0392  0.0955
  138loPI   C6A 2204   7.008  16.818   7.973  0.4767  0.0093 -0.0765
  138loPI   C1B 2205   7.328  15.506   9.253 -0.3594 -0.0369 -0.0110
  138loPI   C2B 2206   7.345  15.635   8.841 -0.0248  0.1513  0.0807
  138loPI   C3B 2207   7.337  15.619   8.306  0.4271 -0.1362 -0.0012
  138loPI   C4B 2208   7.323  15.627   7.935 -0.0228  0.1575  0.1168
  139loPI    C1 2209  17.723   6.023   9.931  0.0409  0.1165 -0.0991
  139loPI    C2 2210  17.751   6.119  10.318 -0.1405  0.1733 -0.0993
  139loPI    C3 2211  17.971   5.819  10.171 -0.2762 -0.0320  0.1091
  139loPI   PO4 2212  17.775   6.266   9.783 -0.1059  0.0998 -0.0070
  139loPI   GL1 2213  17.828   6.624   9.525  0.0437  0.0274  0.3051
  139loPI   GL2 2214  17.884   6.470   9.318  0.2084  0.3641  0.0687
  139loPI   C1A 2215  17.865   7.020   9.280 -0.0704 -0.1195 -0.2484
  139loPI   C2A 2216  17.771   7.287   9.040 -0.0522  0.0558  0.1589
  139loPI   C3A 2217  17.970   7.185   8.650 -0.0515  0.0103  0.1865
  139loPI   C4A 2218  18.296   7.459   8.638  0.0005  0.0689 -0.1937
  139loPI   C5A 2219  18.532   7.674   8.811 -0.0913 -0.2761  0.0056
  139loPI   C6A 2220  18.838   7.798   9.098 -0.1098 -0.0314  0.0791
  139loPI   C1B 2221  17.899   6.668   8.960  0.0552  0.0429  0.1166
  139loPI   C2B 2222  17.989   6.677   8.577 -0.1088 -0.0306  0.0599
  139loPI   C3B 2223  17.893   6.965   8.201 -0.3723 -0.2070  0.1000
  139loPI   C4B 2224  17.798   6.743   7.811  0.2445  0.1569 -0.0019
  140loPI    C1 2225   3.017   0.328  10.267 -0.6481 -0.3797  0.0140
  140loPI    C2 2226   2.790   0.387  10.591 -0.0436 -0.0723  0.4001
  140loPI    C3 2227   3.049   0.082  10.581 -0.1016 -0.1161  0.1765
  140loPI   PO4 2228   2.951   0.481  10.103  0.1521  0.0113 -0.1216
  140loPI   GL1 2229   2.733   0.546   9.729 -0.4926  0.0724  0.0586
  140loPI   GL2 2230   2.475   0.734   9.701  0.0407  0.0241  0.0280
  140loPI   C1A 2231   3.017   0.407   9.435 -0.2501 -0.2747 -0.3499
  140loPI   C2A 2232   3.091   0.498   9.059  0.0591  0.1045 -0.4080
  140loPI   C3A 2233   3.222   0.564   8.704 -0.2246 -0.0886 -0.0713
  140loPI   C4A 2234   3.180   0.614   8.216  0.0687  0.0310 -0.2856
  140loPI   C5A 2235   2.830   0.740   7.852  0.0047  0.0311  0.1800
  140loPI   C6A 2236   2.628   0.763   7.508  0.3954 -0.1064 -0.0947
  140loPI   C1B 2237   2.518   0.716   9.324  0.2934 -0.0370 -0.3693
  140loPI   C2B 2238   2.605   0.705   9.019 -0.0608 -0.2082 -0.1977
  140loPI   C3B 2239   2.622   0.718   8.662 -0.2611 -0.1484 -0.3205
  140loPI   C4B 2240   2.692   0.813   8.312 -0.1750  0.2216 -0.1630
  141loPI    C1 2241   4.855  13.939  10.365  0.2366 -0.0270 -0.2259
  141loPI    C2 2242   5.222  14.082  10.292  0.2838 -0.0726 -0.0794
  141loPI    C3 2243   5.086  14.059  10.668  0.1705 -0.1530 -0.1246
  141loPI   PO4 2244   4.830  13.603  10.218  0.0183 -0.4374 -0.1024
  141loPI   GL1 2245   5.057  13.755   9.908  0.1038 -0.0805  0.0457
  141loPI   GL2 2246   5.243  13.552   9.946 -0.0621 -0.0291  0.0075
  141loPI   C1A 2247   4.915  13.470   9.539 -0.0289  0.4391 -0.1494
  141loPI   C2A 2248   4.741  13.479   9.190 -0.1986  0.4076  0.2501
  141loPI   C3A 2249   4.789  13.456   8.696 -0.0187 -0.2045  0.1399
  141loPI   C4A 2250   4.884  13.596   8.222 -0.1208  0.0081 -0.1378
  141loPI   C5A 2251   5.125  13.677   7.949  0.1949  0.0257  0.0848
  141loPI   C6A 2252   5.407  14.007   7.694 -0.2118 -0.2343 -0.0779
  141loPI   C1B 2253   5.407  13.286   9.689 -0.0061 -0.2057 -0.1854
  141loPI   C2B 2254   5.365  13.366   9.241  0.0226 -0.1339  0.2369
  141loPI   C3B 2255   5.331  13.347   8.766 -0.1344 -0.0323  0.1020
  141loPI   C4B 2256   5.288  13.418   8.442  0.1903 -0.0744  0.0905
  142loPI    C1 2257   7.566   4.187  10.673 -0.0915  0.1315 -0.1816
  142loPI    C2 2258   7.194   4.299  10.578 -0.1936 -0.1059 -0.0692
  142loPI    C3 2259   7.354   4.412  10.927 -0.0597  0.2177 -0.2310
  142loPI   PO4 2260   7.653   4.209  10.267 -0.2103 -0.0681  0.1114
  142loPI   GL1 2261   7.381   4.448  10.069  0.4717  0.0747 -0.1345
  142loPI   GL2 2262   7.129   4.612  10.153 -0.1467 -0.3066 -0.1430
  142loPI   C1A 2263   7.536   4.457   9.696 -0.1157  0.0362 -0.2757
  142loPI   C2A 2264   7.537   4.418   9.263  0.0492 -0.1281  0.0328
  142loPI   C3A 2265   7.570   4.408   8.891 -0.3034 -0.1226  0.1944
  142loPI   C4A 2266   7.593   4.290   8.385 -0.0579 -0.0516  0.0233
  142loPI   C5A 2267   7.987   4.465   8.030 -0.1106 -0.1069 -0.1800
  142loPI   C6A 2268   8.429   4.555   7.961 -0.0969  0.1992  0.1703
  142loPI   C1B 2269   6.967   4.593   9.752 -0.3312  0.0803  0.1039
  142loPI   C2B 2270   7.020   4.557   9.358  0.2672 -0.1111  0.1950
  142loPI   C3B 2271   7.030   4.489   9.017  0.0381 -0.1311  0.1711
  142loPI   C4B 2272   7.168   4.500   8.592  0.2286 -0.1225  0.3330
  143loPI    C1 2273  13.938  16.799  10.162  0.0787 -0.0868  0.3032
  143loPI    C2 2274  13.792  16.733  10.528  0.0411 -0.0525  0.2943
  143loPI    C3 2275  14.071  17.014  10.471  0.1700 -0.1736  0.3251
  143loPI   PO4 2276  13.742  16.747   9.975  0.0518  0.1950 -0.2902
  143loPI   GL1 2277  13.576  16.689   9.542  0.0893  0.2852  0.2126
  143loPI   GL2 2278  13.279  16.563   9.408  0.1184  0.2294  0.0122
  143loPI   C1A 2279  13.656  16.850   9.155 -0.0312  0.0405 -0.0545
  143loPI   C2A 2280  13.543  16.794   8.770 -0.0421  0.1998 -0.1990
  143loPI   C3A 2281  13.491  16.839   8.229 -0.0952  0.0404 -0.1457
  143loPI   C4A 2282  13.412  16.896   7.884 -0.2444 -0.2118 -0.1224
  143loPI   C5A 2283  13.326  16.977   7.465 -0.1187 -0.1267 -0.1425
  143loPI   C6A 2284  13.303  17.080   7.029 -0.1782 -0.0124  0.1610
  143loPI   C1B 2285  13.263  16.439   9.141  0.1465 -0.4542 -0.1758
  143loPI   C2B 2286  13.207  16.454   8.760 -0.1669 -0.3091  0.1531
  143loPI   C3B 2287  13.114  16.510   8.398  0.0160  0.1946 -0.1849
  143loPI   C4B 2288  13.062  16.563   7.918  0.1536  0.1240 -0.1887
  144loPI    C1 2289  11.550   1.684  10.513 -0.1878  0.0978 -0.0535
  144loPI    C2 2290  11.287   1.674  10.814 -0.1606  0.3041 -0.0213
  144loPI    C3 2291  11.665   1.555  10.873 -0.2915 -0.1838 -0.1182
  144loPI   PO4 2292  11.366   1.769  10.314 -0.1330 -0.1903  0.0046
  144loPI   GL1 2293  11.107   2.113  10.050 -0.1079  0.1336  0.0433
  144loPI   GL2 2294  11.453   2.146   9.998  0.3555 -0.0026 -0.1037
  144loPI   C1A 2295  10.916   2.228   9.629 -0.0405 -0.3916 -0.2680
  144loPI   C2A 2296  10.872   2.282   9.252 -0.4121 -0.1299  0.0405
  144loPI   C3A 2297  10.790   2.284   8.861  0.2695  0.0973 -0.0211
  144loPI   C4A 2298  10.831   2.253   8.442 -0.0794 -0.1848 -0.4670
  144loPI   C5A 2299  10.768   2.308   8.028 -0.3821  0.0026 -0.2507
  144loPI   C6A 2300  10.623   2.167   7.675  0.2197 -0.0356  0.0900
  144loPI   C1B 2301  11.409   2.041   9.550  0.0735  0.2433 -0.1459
  144loPI   C2B 2302  11.261   2.065   9.059 -0.0132  0.1557 -0.1996
  144loPI   C3B 2303  11.262   2.062   8.618  0.3428  0.0723  0.0178
  144loPI   C4B 2304  11.219   2.060   8.132  0.2843  0.1397  0.1460
  145loPI    C1 2305  11.010  10.895  10.648 -0.1584 -0.1138  0.0190
  145loPI    C2 2306  10.856  10.639  10.914 -0.0858  0.0539  0.2251
  145loPI    C3 2307  10.727  11.018  10.903 -0.1815  0.0152 -0.0676
  145loPI   PO4 2308  10.996  10.685  10.422 -0.1639 -0.5719 -0.1721
  145loPI   GL1 2309  10.697  10.782  10.119  0.1083  0.1456  0.0748
  145loPI   GL2 2310  10.335  10.688  10.029  0.0788  0.2186 -0.0565
  145loPI   C1A 2311  10.665  10.634   9.702 -0.1094 -0.0787 -0.0898
  145loPI   C2A 2312  10.716  10.772   9.314 -0.0576 -0.1851  0.2291
  145loPI   C3A 2313  10.673  10.603   8.845  0.0709  0.2232 -0.0773
  145loPI   C4A 2314  10.642  10.610   8.363  0.0240  0.1853  0.2440
  145loPI   C5A 2315  10.916  10.800   8.025  0.0910 -0.0739 -0.0176
  145loPI   C6A 2316  11.173  11.082   7.750  0.0671  0.0099 -0.1962
  145loPI   C1B 2317  10.171  10.892   9.630 -0.3016  0.2112 -0.0170
  145loPI   C2B 2318  10.226  10.815   9.132  0.1789 -0.0456 -0.2505
  145loPI   C3B 2319  10.107  10.792   8.657 -0.0671  0.0918 -0.0246
  145loPI   C4B 2320  10.134  10.701   8.235  0.1590 -0.1835  0.1222
  146loPI    C1 2321  13.728   7.294  10.491 -0.1026 -0.0226  0.0118
  146loPI    C2 2322  13.850   6.955  10.316  0.0394 -0.0563  0.1738
  146loPI    C3 2323  13.795   6.968  10.712 -0.0346  0.0905  0.1596
  146loPI   PO4 2324  13.515   7.391  10.323 -0.1717  0.2612  0.1541
  146loPI   GL1 2325  13.126   7.283  10.101 -0.0061  0.1696  0.2229
  146loPI   GL2 2326  12.987   7.001  10.131 -0.1443  0.0407  0.2258
  146loPI   C1A 2327  13.245   7.363   9.684  0.0389  0.1588  0.4309
  146loPI   C2A 2328  13.198   7.311   9.213  0.1697 -0.1444 -0.1248
  146loPI   C3A 2329  13.138   7.324   8.795  0.1350  0.1435  0.1745
  146loPI   C4A 2330  13.025   7.195   8.467 -0.1569 -0.1525  0.0748
  146loPI   C5A 2331  13.056   7.099   8.001  0.1183  0.2421 -0.1415
  146loPI   C6A 2332  13.458   7.043   7.773 -0.0147 -0.1534  0.4880
  146loPI   C1B 2333  13.057   6.760   9.765 -0.1610 -0.2451  0.0724
  146loPI   C2B 2334  12.888   6.460   9.448 -0.1015 -0.2958  0.4244
  146loPI   C3B 2335  12.727   6.437   8.997 -0.2669  0.1322 -0.0756
  146loPI   C4B 2336  12.772   6.389   8.669  0.0488  0.0719  0.2779
  147loPI    C1 2337   7.600   0.423  10.685 -0.0082  0.0433 -0.1100
  147loPI    C2 2338   7.327   0.522  10.960  0.2099  0.1608  0.0680
  147loPI    C3 2339   7.702   0.659  10.992  0.2872  0.0143 -0.1822
  147loPI   PO4 2340   7.438   0.384  10.446 -0.0199  0.0963 -0.1733
  147loPI   GL1 2341   7.511   0.167  10.074 -0.1679 -0.0142  0.2835
  147loPI   GL2 2342   7.566   0.580  10.001  0.3628 -0.1271 -0.0651
  147loPI   C1A 2343   7.443  -0.093   9.838  0.3904  0.3354  0.0989
  147loPI   C2A 2344   7.586  -0.099   9.386  0.0125 -0.2682 -0.0302
  147loPI   C3A 2345   7.407   0.061   8.959 -0.1427 -0.3609  0.0292
  147loPI   C4A 2346   7.485   0.076   8.532  0.1198  0.0820  0.1404
  147loPI   C5A 2347   7.739   0.028   8.136  0.0730  0.3525  0.1350
  147loPI   C6A 2348   8.095   0.232   7.882 -0.1268  0.3489 -0.2586
  147loPI   C1B 2349   7.353   0.453   9.546 -0.1912 -0.1737  0.4773
  147loPI   C2B 2350   7.398   0.549   9.123 -0.0378  0.4102 -0.2220
  147loPI   C3B 2351   7.392   0.579   8.832 -0.2802  0.2246 -0.0251
  147loPI   C4B 2352   7.504   0.669   8.453  0.1751 -0.2098  0.0926
  148loPI    C1 2353  15.611   3.218   9.864  0.2261  0.0618  0.0747
  148loPI    C2 2354  15.783   2.859   9.894 -0.0128 -0.0492  0.1397
  148loPI    C3 2355  16.009   3.186   9.851  0.2008 -0.2214 -0.0745
  148loPI   PO4 2356  15.393   3.104   9.656 -0.1664  0.3124  0.0421
  148loPI   GL1 2357  15.286   3.189   9.301 -0.1248 -0.1979  0.1318
  148loPI   GL2 2358  15.163   3.406   9.229  0.0369 -0.2620 -0.4386
  148loPI   C1A 2359  15.573   3.199   8.958  0.1771 -0.3586  0.2651
  148loPI   C2A 2360  15.598   3.164   8.486 -0.0006  0.0955 -0.1384
  148loPI   C3A 2361  15.652   3.100   8.044 -0.3931 -0.0973 -0.2609
  148loPI   C4A 2362  15.586   2.842   7.654 -0.0154  0.1555 -0.2447
  148loPI   C5A 2363  15.358   2.570   7.302 -0.1460  0.0596 -0.2757
  148loPI   C6A 2364  15.675   2.337   7.019 -0.0520  0.2543  0.0445
  148loPI   C1B 2365  15.188   3.454   8.790 -0.0443 -0.0359 -0.1962
  148loPI   C2B 2366  15.257   3.576   8.449 -0.2913  0.3706  0.0622
  148loPI   C3B 2367  15.336   3.451   8.093  0.0977 -0.3247 -0.1330
  148loPI   C4B 2368  14.992   3.542   7.774 -0.3507 -0.0003  0.2728
  149loPI    C1 2369   6.198   6.465  10.639  0.0704 -0.0379 -0.0515
  149loPI    C2 2370   6.247   6.750  10.916  0.0900 -0.2217  0.1369
  149loPI    C3 2371   5.880   6.661  10.784  0.0848 -0.1032  0.0696
  149loPI   PO4 2372   6.328   6.586  10.428 -0.4442  0.1468 -0.2961
  149loPI   GL1 2373   6.545   6.727  10.233 -0.0765  0.1078  0.0160
  149loPI   GL2 2374   6.421   7.047   9.952  0.2704 -0.1247 -0.1283
  149loPI   C1A 2375   6.695   6.653   9.816 -0.3311  0.0739 -0.1391
  149loPI   C2A 2376   6.738   6.651   9.512 -0.3953  0.0207 -0.0245
  149loPI   C3A 2377   6.703   6.679   9.084  0.2191  0.0660  0.1248
  149loPI   C4A 2378   6.750   6.708   8.660 -0.2165  0.1380 -0.3611
  149loPI   C5A 2379   6.763   6.549   8.254  0.1290 -0.4970  0.0537
  149loPI   C6A 2380   7.085   6.788   7.870  0.0042 -0.0158 -0.0102
  149loPI   C1B 2381   6.504   7.078   9.424  0.2520 -0.1850  0.1430
  149loPI   C2B 2382   6.657   7.186   8.952  0.1153 -0.4818 -0.0831
  149loPI   C3B 2383   6.744   7.202   8.535  0.0522 -0.2874  0.0842
  149loPI   C4B 2384   6.701   7.061   8.133 -0.1185  0.0215 -0.2685
  150loPI    C1 2385   9.809   8.171  10.920 -0.1852  0.0317  0.1611
  150loPI    C2 2386   9.756   8.492  10.688 -0.4218 -0.0366  0.1177
  150loPI    C3 2387   9.794   8.536  11.084  0.1669  0.0972  0.0560
  150loPI   PO4 2388   9.943   8.010  10.800 -0.0346 -0.1562 -0.0981
  150loPI   GL1 2389  10.020   8.080  10.362 -0.1973  0.0178 -0.2288
  150loPI   GL2 2390   9.676   8.056  10.345  0.0420 -0.0930  0.0939
  150loPI   C1A 2391  10.203   7.847  10.082 -0.1396 -0.0933 -0.1640
  150loPI   C2A 2392  10.257   7.796   9.613 -0.2887 -0.1029  0.2213
  150loPI   C3A 2393  10.224   7.831   9.109  0.1198 -0.4638  0.0503
  150loPI   C4A 2394  10.149   7.741   8.636 -0.2604  0.0293  0.2838
  150loPI   C5A 2395  10.243   7.747   8.226 -0.3275  0.2125  0.2271
  150loPI   C6A 2396  10.550   7.744   8.004  0.0413 -0.1361  0.1085
  150loPI   C1B 2397   9.734   7.863   9.966 -0.1948  0.1760 -0.0502
  150loPI   C2B 2398   9.714   7.921   9.639  0.3111 -0.0807 -0.0171
  150loPI   C3B 2399   9.765   7.968   9.174  0.0134 -0.4677 -0.2973
  150loPI   C4B 2400   9.719   7.963   8.788 -0.0950 -0.1733  0.1157
  151loPI    C1 2401  14.570  14.578  10.393 -0.1109  0.1228  0.1553
  151loPI    C2 2402  14.207  14.698  10.509 -0.0487  0.0783  0.4021
  151loPI    C3 2403  14.533  14.870  10.664  0.0391  0.3951 -0.1119
  151loPI   PO4 2404  14.533  14.521  10.045  0.0380  0.2824 -0.1088
  151loPI   GL1 2405  14.316  14.548   9.625 -0.0759  0.1535 -0.2357
  151loPI   GL2 2406  14.573  14.379   9.558 -0.0789 -0.1162 -0.1962
  151loPI   C1A 2407  13.937  14.538   9.462 -0.1065  0.2062 -0.2950
  151loPI   C2A 2408  13.727  14.359   9.125  0.2788  0.3643  0.0330
  151loPI   C3A 2409  13.600  14.430   8.723  0.2556  0.0082 -0.1989
  151loPI   C4A 2410  13.527  14.288   8.385 -0.4002 -0.0495  0.1676
  151loPI   C5A 2411  13.575  14.373   8.022 -0.0560 -0.0549  0.2375
  151loPI   C6A 2412  13.625  14.427   7.511 -0.2191 -0.2043  0.1202
  151loPI   C1B 2413  14.359  14.442   9.115 -0.0433 -0.2639 -0.0321
  151loPI   C2B 2414  14.114  14.330   8.790 -0.1712  0.2994  0.0810
  151loPI   C3B 2415  14.028  14.250   8.325 -0.0263  0.0325 -0.1265
  151loPI   C4B 2416  13.902  13.970   7.969 -0.3853 -0.3531  0.0373
  152loPI    C1 2417   7.912   9.489  10.646 -0.0002 -0.1675 -0.1565
  152loPI    C2 2418   7.529   9.421  10.739  0.0339 -0.0219  0.1001
  152loPI    C3 2419   7.819   9.289  10.980  0.1451 -0.0891 -0.0685
  152loPI   PO4 2420   7.936   9.476  10.367  0.0892 -0.1239 -0.3639
  152loPI   GL1 2421   7.753   9.546   9.935 -0.1645 -0.1033 -0.0359
  152loPI   GL2 2422   7.714   9.220   9.780 -0.0315 -0.0140  0.3117
  152loPI   C1A 2423   8.053   9.616   9.538  0.2962  0.4707  0.0125
  152loPI   C2A 2424   8.038   9.511   9.104  0.0567  0.0567  0.4034
  152loPI   C3A 2425   7.954   9.592   8.633 -0.2926 -0.0232  0.1432
  152loPI   C4A 2426   8.225   9.486   8.269  0.1953 -0.0057  0.0245
  152loPI   C5A 2427   8.468   9.873   8.070 -0.1232 -0.1839 -0.3028
  152loPI   C6A 2428   8.889  10.108   8.006  0.0230 -0.3998 -0.1940
  152loPI   C1B 2429   7.597   9.296   9.304  0.0404  0.0256  0.1916
  152loPI   C2B 2430   7.658   9.185   8.795 -0.2178 -0.0017  0.1156
  152loPI   C3B 2431   7.645   9.266   8.348 -0.0560 -0.0210 -0.0500
  152loPI   C4B 2432   7.857   9.570   7.965  0.2098  0.2882  0.1509
  153loPI    C1 2433   2.067  15.438  10.438  0.0610  0.1032 -0.1667
  153loPI    C2 2434   2.149  15.820  10.526 -0.0848  0.1407 -0.1904
  153loPI    C3 2435   1.901  15.609  10.759  0.2854 -0.0543  0.0364
  153loPI   PO4 2436   1.971  15.434  10.154 -0.2040  0.1202  0.2432
  153loPI   GL1 2437   1.984  15.454   9.707 -0.0324 -0.0017  0.0978
  153loPI   GL2 2438   1.825  15.314   9.502  0.0328 -0.1000 -0.0825
  153loPI   C1A 2439   2.243  15.511   9.370  0.4373 -0.0961 -0.4039
  153loPI   C2A 2440   2.254  15.456   8.884 -0.0765  0.3040 -0.1082
  153loPI   C3A 2441   2.182  15.528   8.468 -0.0072  0.2815 -0.0741
  153loPI   C4A 2442   2.464  15.376   8.011  0.0430  0.0074 -0.1110
  153loPI   C5A 2443   2.572  15.000   7.810  0.0713 -0.0657 -0.0430
  153loPI   C6A 2444   2.895  14.768   7.513  0.0557 -0.0586 -0.1339
  153loPI   C1B 2445   1.843  15.356   9.052  0.3413 -0.1978  0.0411
  153loPI   C2B 2446   1.870  15.173   8.651  0.0356  0.1121  0.4171
  153loPI   C3B 2447   1.860  15.175   8.217 -0.0060  0.0017  0.1956
  153loPI   C4B 2448   2.077  14.965   7.897 -0.1320 -0.1751 -0.0087
  154loPI    C1 2449  18.486  12.031   9.694  0.2288  0.1231  0.0227
  154loPI    C2 2450  18.692  11.688   9.688 -0.3121 -0.2108 -0.2528
  154loPI    C3 2451  18.590  11.854  10.037  0.0818 -0.2441 -0.1170
  154loPI   PO4 2452  18.594  12.218   9.431  0.1846  0.0982  0.1495
  154loPI   GL1 2453  18.726  12.217   9.066  0.2517 -0.0374 -0.2435
  154loPI   GL2 2454  18.759  12.476   8.914  0.2261  0.1718 -0.1769
  154loPI   C1A 2455  18.741  11.949   8.761  0.1276 -0.0795 -0.2168
  154loPI   C2A 2456  18.777  12.021   8.404  0.0472  0.1003 -0.1500
  154loPI   C3A 2457  18.947  11.963   7.999 -0.1230 -0.5021  0.2890
  154loPI   C4A 2458  19.216  11.952   7.660  0.1346 -0.1650  0.1932
  154loPI   C5A 2459  19.524  11.708   7.449  0.4552 -0.3005  0.1989
  154loPI   C6A 2460  19.619  11.285   7.479  0.1293 -0.0196 -0.1064
  154loPI   C1B 2461  18.550  12.534   8.497  0.3485  0.3608  0.0739
  154loPI   C2B 2462  18.504  12.411   8.053  0.0331  0.1167 -0.0608
  154loPI   C3B 2463  18.214  12.392   7.700  0.0724 -0.1551 -0.3447
  154loPI   C4B 2464  17.930  12.242   7.409  0.0642  0.2399 -0.0848
  155loPI    C1 2465   2.165   6.539  10.189  0.1560 -0.1361 -0.3014
  155loPI    C2 2466   1.804   6.552  10.016 -0.0775  0.0758  0.1843
  155loPI    C3 2467   1.907   6.237  10.239  0.0431  0.0123  0.0403
  155loPI   PO4 2468   2.368   6.509   9.886 -0.1528 -0.1556 -0.3354
  155loPI   GL1 2469   2.296   6.699   9.447  0.2659  0.4793 -0.1784
  155loPI   GL2 2470   2.023   6.821   9.372  0.1646  0.0610  0.2419
  155loPI   C1A 2471   2.382   6.736   8.992  0.2321 -0.0895  0.1905
  155loPI   C2A 2472   2.506   6.606   8.597  0.0648  0.2955  0.0280
  155loPI   C3A 2473   2.618   6.254   8.354  0.2136  0.0468  0.0677
  155loPI   C4A 2474   2.724   6.248   7.937 -0.3224 -0.2447  0.1045
  155loPI   C5A 2475   2.705   6.540   7.578  0.2235 -0.1412  0.1285
  155loPI   C6A 2476   2.464   6.902   7.504  0.0467 -0.0270  0.3311
  155loPI   C1B 2477   1.888   6.896   8.960  0.0564 -0.0730 -0.1332
  155loPI   C2B 2478   1.925   6.793   8.649  0.0044  0.0719  0.3534
  155loPI   C3B 2479   2.133   6.813   8.275 -0.0638  0.1860 -0.2871
  155loPI   C4B 2480   2.548   6.692   8.097 -0.1457  0.1421 -0.0048
  156loPI    C1 2481  15.816  10.019   9.600  0.0242 -0.2243 -0.1955
  156loPI    C2 2482  16.086  10.275   9.454  0.0855 -0.2484 -0.1245
  156loPI    C3 2483  16.176  10.048   9.771 -0.0052 -0.2827 -0.1230
  156loPI   PO4 2484  15.543  10.051   9.535 -0.0402  0.1439  0.0075
  156loPI   GL1 2485  15.579   9.992   9.094 -0.3244  0.0103 -0.1720
  156loPI   GL2 2486  15.788  10.186   9.075 -0.2226 -0.0081  0.2308
  156loPI   C1A 2487  15.632   9.939   8.596  0.4760  0.2638  0.2253
  156loPI   C2A 2488  15.793  10.096   8.181  0.2017 -0.0867  0.0546
  156loPI   C3A 2489  15.897  10.030   7.710 -0.2502  0.0670  0.2453
  156loPI   C4A 2490  15.932   9.889   7.346 -0.4123  0.3382 -0.0760
  156loPI   C5A 2491  16.319   9.782   7.067 -0.1654 -0.0787  0.1419
  156loPI   C6A 2492  16.618   9.980   6.795 -0.1924  0.0217 -0.3091
  156loPI   C1B 2493  15.712  10.422   8.773 -0.1266  0.2964 -0.2122
  156loPI   C2B 2494  15.792  10.598   8.361 -0.0594  0.1734 -0.1526
  156loPI   C3B 2495  15.824  10.530   7.902 -0.1508 -0.0901  0.4087
  156loPI   C4B 2496  15.862  10.453   7.488 -0.2374  0.3252 -0.0137
  157loPI    C1 2497  14.757  16.224  10.173 -0.0035 -0.0807  0.0493
  157loPI    C2 2498  15.087  16.020  10.273  0.0545  0.0345  0.0952
  157loPI    C3 2499  14.725  15.867  10.349  0.0924 -0.2513 -0.2698
  157loPI   PO4 2500  14.758  16.354   9.899  0.2386 -0.2421  0.0686
  157loPI   GL1 2501  14.571  16.342   9.442 -0.0257 -0.0495 -0.1320
  157loPI   GL2 2502  14.345  16.171   9.501  0.0238 -0.5353 -0.3584
  157loPI   C1A 2503  14.693  16.153   9.159  0.0076  0.2667  0.0936
  157loPI   C2A 2504  14.441  16.201   8.812  0.2461 -0.0846  0.1935
  157loPI   C3A 2505  14.296  16.132   8.372 -0.4667 -0.3056  0.0501
  157loPI   C4A 2506  14.032  16.148   8.032 -0.3530 -0.1614 -0.0903
  157loPI   C5A 2507  13.765  16.096   7.557  0.0878  0.1720 -0.2225
  157loPI   C6A 2508  13.425  15.915   7.500  0.6048 -0.4929 -0.1176
  157loPI   C1B 2509  14.081  15.939   9.105 -0.0472 -0.1405  0.0437
  157loPI   C2B 2510  13.961  15.833   8.838  0.0538  0.0429 -0.2897
  157loPI   C3B 2511  13.856  15.872   8.376  0.0860  0.2154  0.0889
  157loPI   C4B 2512  13.715  15.764   7.908 -0.0627  0.1159  0.0389
  158loPI    C1 2513   9.118   1.792  10.879 -0.0663 -0.1716  0.1738
  158loPI    C2 2514   9.002   2.167  10.958  0.1930 -0.0663  0.0631
  158loPI    C3 2515   8.920   1.874  11.217 -0.4066 -0.0170 -0.0566
  158loPI   PO4 2516   9.058   1.740  10.668 -0.0924  0.0396  0.0258
  158loPI   GL1 2517   9.091   1.642  10.295 -0.0221 -0.4384  0.1678
  158loPI   GL2 2518   9.037   1.869  10.089 -0.2574 -0.0573  0.0205
  158loPI   C1A 2519   9.147   1.435   9.822  0.1378 -0.1803 -0.1393
  158loPI   C2A 2520   9.143   1.347   9.425  0.0150 -0.0647 -0.0418
  158loPI   C3A 2521   9.162   1.449   9.010 -0.0365  0.1148 -0.3731
  158loPI   C4A 2522   8.992   1.453   8.511 -0.0576 -0.1804 -0.0063
  158loPI   C5A 2523   9.148   1.566   8.037 -0.0266 -0.1489 -0.2291
  158loPI   C6A 2524   9.138   1.606   7.666 -0.0324 -0.0017 -0.1150
  158loPI   C1B 2525   9.049   1.877   9.651  0.2064  0.0722 -0.4541
  158loPI   C2B 2526   9.146   1.875   9.258  0.2443  0.1192 -0.0307
  158loPI   C3B 2527   9.009   1.896   8.816 -0.1019 -0.1861  0.1669
  158loPI   C4B 2528   8.919   1.973   8.415 -0.0933 -0.0440 -0.2652
  159loPI    C1 2529   4.438  18.275  10.131 -0.1050 -0.2726 -0.0563
  159loPI    C2 2530   4.755  18.280  10.375  0.0331  0.0122 -0.2362
  159loPI    C3 2531   4.388  18.329  10.524  0.1150  0.1706 -0.0828
  159loPI   PO4 2532   4.482  18.017   9.991 -0.0399 -0.1099  0.1297
  159loPI   GL1 2533   4.616  18.035   9.617 -0.0189  0.2286  0.0144
  159loPI   GL2 2534   4.698  18.314   9.651 -0.3775 -0.1012 -0.0217
  159loPI   C1A 2535   4.733  18.001   9.168 -0.0230 -0.0197  0.0170
  159loPI   C2A 2536   4.911  18.001   8.784 -0.1682  0.5197  0.1612
  159loPI   C3A 2537   4.845  17.874   8.402 -0.0807  0.0544 -0.1176
  159loPI   C4A 2538   5.004  17.971   7.997 -0.0273  0.5139 -0.1404
  159loPI   C5A 2539   4.901  18.070   7.622  0.0670 -0.0802 -0.1639
  159loPI   C6A 2540   4.727  17.926   7.274  0.0367  0.1018  0.1141
  159loPI   C1B 2541   4.885  18.554   9.366 -0.1735 -0.0644 -0.0498
  159loPI   C2B 2542   4.884  18.433   8.983 -0.1418  0.2029  0.3408
  159loPI   C3B 2543   4.887  18.383   8.459 -0.0186 -0.0694  0.4548
  159loPI   C4B 2544   4.778  18.446   8.001 -0.0071 -0.0694 -0.3183
  160loPI    C1 2545  14.879  10.161  10.092  0.0366 -0.0538  0.1750
  160loPI    C2 2546  14.657   9.864   9.941  0.2173 -0.1286  0.0523
  160loPI    C3 2547  14.849   9.814  10.289  0.1629 -0.1174  0.0839
  160loPI   PO4 2548  14.849  10.295   9.839  0.1860 -0.0296  0.4710
  160loPI   GL1 2549  14.745  10.116   9.495 -0.0620  0.0111 -0.1155
  160loPI   GL2 2550  15.055  10.013   9.244 -0.0277  0.1891 -0.2604
  160loPI   C1A 2551  14.680  10.287   9.098 -0.1215 -0.2901 -0.0012
  160loPI   C2A 2552  14.575  10.494   8.753 -0.1477 -0.1960  0.1915
  160loPI   C3A 2553  14.356  10.375   8.364 -0.0836 -0.0600  0.0755
  160loPI   C4A 2554  14.256  10.223   7.989  0.1383 -0.3628  0.0615
  160loPI   C5A 2555  14.208  10.154   7.576  0.2975 -0.1897 -0.1565
  160loPI   C6A 2556  14.492   9.948   7.469  0.2700 -0.1096 -0.0386
  160loPI   C1B 2557  14.928   9.841   8.861 -0.2597  0.0536  0.4426
  160loPI   C2B 2558  14.824  10.004   8.471 -0.2482 -0.0665  0.2613
  160loPI   C3B 2559  14.921   9.891   8.066  0.0080 -0.0035 -0.1161
  160loPI   C4B 2560  14.954   9.974   7.570 -0.0881  0.0432 -0.1611
  161loPI    C1 2561   1.374  16.178   9.925  0.1254 -0.0240  0.1001
  161loPI    C2 2562   1.628  16.284  10.215  0.0325  0.2124  0.0972
  161loPI    C3 2563   1.288  16.094  10.307  0.1158  0.0732  0.1195
  161loPI   PO4 2564   1.479  16.036   9.707 -0.2198  0.1032 -0.1806
  161loPI   GL1 2565   1.808  15.870   9.454  0.0435  0.2484  0.0162
  161loPI   GL2 2566   1.529  15.679   9.338 -0.1539  0.0273 -0.1424
  161loPI   C1A 2567   1.955  15.798   9.041 -0.2465  0.1403  0.0801
  161loPI   C2A 2568   1.723  15.686   8.701 -0.0045  0.1521  0.0408
  161loPI   C3A 2569   1.706  15.660   8.286 -0.0676 -0.0756 -0.0516
  161loPI   C4A 2570   2.003  15.497   7.868 -0.1927  0.0942 -0.3767
  161loPI   C5A 2571   2.303  15.366   7.511  0.2930  0.0326 -0.2070
  161loPI   C6A 2572   2.272  14.848   7.476  0.2928  0.2675  0.0026
  161loPI   C1B 2573   1.303  15.765   9.040  0.2302  0.2757 -0.4367
  161loPI   C2B 2574   1.156  15.736   8.567 -0.1013  0.2451 -0.1332
  161loPI   C3B 2575   1.200  15.738   8.174 -0.1715  0.1219  0.0926
  161loPI   C4B 2576   1.034  15.596   7.843 -0.2972 -0.0720  0.0887
  162loPI    C1 2577   7.611   8.578  10.480 -0.3731 -0.0063 -0.0244
  162loPI    C2 2578   7.431   8.935  10.488 -0.0778  0.1514 -0.2367
  162loPI    C3 2579   7.798   8.892  10.642 -0.1040 -0.0573 -0.2289
  162loPI   PO4 2580   7.617   8.481  10.236 -0.1608 -0.0274 -0.0941
  162loPI   GL1 2581   7.740   8.539   9.798 -0.0360  0.1212 -0.3643
  162loPI   GL2 2582   8.070   8.678   9.720  0.1885 -0.2786  0.3262
  162loPI   C1A 2583   7.634   8.786   9.486 -0.3292  0.1176  0.0290
  162loPI   C2A 2584   7.698   8.683   9.027 -0.0170 -0.0127  0.1573
  162loPI   C3A 2585   7.859   8.745   8.663 -0.0379  0.1723 -0.2055
  162loPI   C4A 2586   7.933   8.821   8.177 -0.1456 -0.0211 -0.0958
  162loPI   C5A 2587   7.630   8.992   7.889  0.0211 -0.0986  0.3545
  162loPI   C6A 2588   7.253   9.234   7.773  0.3066 -0.1058  0.0553
  162loPI   C1B 2589   8.316   8.587   9.370 -0.0962 -0.1855 -0.2077
  162loPI   C2B 2590   8.167   8.543   8.939  0.0103 -0.2256 -0.0980
  162loPI   C3B 2591   8.271   8.545   8.414 -0.1162  0.2431 -0.1895
  162loPI   C4B 2592   8.275   8.394   8.036  0.2517  0.2557  0.0218
  163loPI    C1 2593   9.749  13.247  10.556  0.2784 -0.0434  0.0687
  163loPI    C2 2594   9.935  12.914  10.679 -0.0218 -0.0881  0.4164
  163loPI    C3 2595   9.902  13.228  10.925 -0.0804  0.0569  0.2263
  163loPI   PO4 2596   9.831  13.335  10.286  0.1505 -0.1051 -0.2005
  163loPI   GL1 2597   9.534  13.420   9.871 -0.1567  0.0097 -0.0327
  163loPI   GL2 2598   9.342  13.640   9.815  0.0705 -0.0162  0.1032
  163loPI   C1A 2599   9.688  13.434   9.490 -0.1835 -0.0097 -0.1261
  163loPI   C2A 2600   9.690  13.406   9.045 -0.0571 -0.1953  0.0461
  163loPI   C3A 2601   9.552  13.383   8.627  0.0767 -0.0161  0.2272
  163loPI   C4A 2602   9.580  13.409   8.163 -0.0362 -0.1501 -0.1910
  163loPI   C5A 2603   9.702  13.584   7.711  0.2793  0.1602  0.0965
  163loPI   C6A 2604   9.897  13.855   7.614 -0.0756 -0.3719 -0.0636
  163loPI   C1B 2605   9.163  13.525   9.488  0.0967 -0.3367 -0.0578
  163loPI   C2B 2606   9.167  13.525   8.976  0.1625 -0.1282  0.1018
  163loPI   C3B 2607   9.121  13.523   8.564 -0.0030 -0.1478  0.1153
  163loPI   C4B 2608   8.938  13.584   8.161  0.0448  0.2070  0.1863
  164loPI    C1 2609  17.993   1.071   9.629 -0.0203 -0.2269  0.0950
  164loPI    C2 2610  17.684   1.055   9.882 -0.1330  0.0837 -0.0174
  164loPI    C3 2611  17.925   1.373   9.882  0.2298 -0.1848  0.1137
  164loPI   PO4 2612  17.845   0.942   9.405  0.1585 -0.4434 -0.0384
  164loPI   GL1 2613  17.782   1.083   9.037 -0.1814  0.0042 -0.2565
  164loPI   GL2 2614  17.526   1.047   8.753 -0.2076 -0.0910  0.3079
  164loPI   C1A 2615  17.974   1.016   8.614  0.1452 -0.1561  0.0176
  164loPI   C2A 2616  18.241   1.035   8.415  0.0189  0.2079  0.3004
  164loPI   C3A 2617  18.456   1.340   8.205  0.2583 -0.3620 -0.2790
  164loPI   C4A 2618  18.522   1.335   7.781 -0.2730 -0.4159  0.1891
  164loPI   C5A 2619  18.526   1.619   7.357 -0.1284  0.4790 -0.0174
  164loPI   C6A 2620  18.767   1.839   7.198 -0.1228  0.1923  0.2365
  164loPI   C1B 2621  17.389   1.053   8.261  0.1246 -0.0566  0.2155
  164loPI   C2B 2622  17.509   1.175   7.829 -0.2030  0.1095 -0.3396
  164loPI   C3B 2623  17.582   1.463   7.569  0.0489  0.0412 -0.2780
  164loPI   C4B 2624  17.532   1.568   7.099 -0.0980 -0.0916  0.0269
  165loPI    C1 2625   7.476  18.441  10.367  0.1317 -0.3079  0.0719
  165loPI    C2 2626   7.642  18.789  10.472 -0.3291 -0.0563 -0.0095
  165loPI    C3 2627   7.331  18.645  10.679 -0.0629 -0.4872  0.1013
  165loPI   PO4 2628   7.607  18.292  10.373  0.3220 -0.0334 -0.1108
  165loPI   GL1 2629   7.949  18.293  10.103 -0.2044  0.2171 -0.4053
  165loPI   GL2 2630   8.128  18.090   9.987 -0.2321  0.0032  0.2826
  165loPI   C1A 2631   7.826  18.434   9.741 -0.0884  0.0587  0.1566
  165loPI   C2A 2632   8.046  18.671   9.342 -0.0846 -0.1295  0.1255
  165loPI   C3A 2633   7.885  18.754   8.894 -0.0174 -0.0766 -0.0987
  165loPI   C4A 2634   8.108  18.634   8.504 -0.2165  0.1859  0.1918
  165loPI   C5A 2635   8.277  18.597   8.086 -0.2487 -0.0951 -0.1621
  165loPI   C6A 2636   8.372  18.799   7.612  0.1799 -0.1309 -0.0575
  165loPI   C1B 2637   8.272  18.121   9.602  0.1226 -0.0359  0.3615
  165loPI   C2B 2638   8.044  18.164   9.208 -0.4366  0.0641 -0.2333
  165loPI   C3B 2639   8.063  18.199   8.733 -0.1354 -0.1809 -0.3471
  165loPI   C4B 2640   8.123  18.088   8.338  0.0357  0.1672  0.3344
  166loPI    C1 2641   2.324   5.882  10.237  0.0515  0.0836 -0.0396
  166loPI    C2 2642   2.144   5.565  10.073 -0.0323  0.1068  0.0071
  166loPI    C3 2643   1.970   5.760  10.377 -0.0821  0.3260 -0.1596
  166loPI   PO4 2644   2.349   6.029  10.065  0.0102 -0.1172  0.0199
  166loPI   GL1 2645   2.174   6.132   9.592 -0.2809 -0.0272 -0.1476
  166loPI   GL2 2646   1.880   6.346   9.579 -0.0151 -0.0774 -0.0861
  166loPI   C1A 2647   2.512   6.108   9.376 -0.1243 -0.1578 -0.1692
  166loPI   C2A 2648   2.786   6.082   8.908  0.0806 -0.1086  0.0676
  166loPI   C3A 2649   3.096   6.039   8.607  0.2023  0.0198 -0.2962
  166loPI   C4A 2650   3.142   6.092   8.212 -0.1181 -0.1952  0.2667
  166loPI   C5A 2651   3.276   5.806   7.865 -0.1067  0.2184  0.0244
  166loPI   C6A 2652   3.062   5.462   7.593  0.1727 -0.1551  0.0385
  166loPI   C1B 2653   2.089   6.268   9.142  0.5929 -0.0943  0.1046
  166loPI   C2B 2654   2.105   6.327   8.775  0.1971 -0.1544  0.0435
  166loPI   C3B 2655   2.106   6.324   8.304 -0.0293  0.2145 -0.3162
  166loPI   C4B 2656   2.152   6.448   7.878  0.0745 -0.1524 -0.2188
  167loPI    C1 2657   7.714   7.527  10.713 -0.0082 -0.0454 -0.0768
  167loPI    C2 2658   7.893   7.832  10.899 -0.1508  0.0037 -0.0188
  167loPI    C3 2659   7.621   7.612  11.093 -0.1690 -0.0570 -0.1127
  167loPI   PO4 2660   7.618   7.606  10.513 -0.0442 -0.1065  0.1139
  167loPI   GL1 2661   7.688   7.550  10.128  0.0358 -0.1599 -0.0070
  167loPI   GL2 2662   7.382   7.300  10.176  0.1317  0.1897 -0.3012
  167loPI   C1A 2663   7.852   7.667   9.750 -0.3777 -0.0937  0.3368
  167loPI   C2A 2664   7.931   7.657   9.370  0.2172  0.0696  0.1373
  167loPI   C3A 2665   7.904   7.775   8.864  0.1856  0.1275  0.0010
  167loPI   C4A 2666   7.867   7.648   8.468  0.1473  0.2959 -0.1667
  167loPI   C5A 2667   8.227   7.686   8.138 -0.1835 -0.1405  0.0756
  167loPI   C6A 2668   8.342   7.952   7.774 -0.3418 -0.0835  0.0317
  167loPI   C1B 2669   7.451   7.321   9.741  0.1065  0.2432  0.0144
  167loPI   C2B 2670   7.453   7.304   9.281 -0.0278 -0.2867 -0.1750
  167loPI   C3B 2671   7.593   7.401   8.882  0.1725  0.2303  0.2061
  167loPI   C4B 2672   7.518   7.227   8.425  0.2502  0.0762  0.1206
  168loPI    C1 2673   9.810   6.407  11.097 -0.1095  0.1835 -0.0661
  168loPI    C2 2674   9.867   6.770  11.256 -0.1297  0.1979 -0.0915
  168loPI    C3 2675  10.011   6.445  11.440 -0.1215  0.2177 -0.0628
  168loPI   PO4 2676   9.757   6.524  10.754  0.2721  0.0699 -0.3500
  168loPI   GL1 2677   9.835   6.479  10.333  0.1340 -0.0469  0.3000
  168loPI   GL2 2678   9.943   6.281  10.365 -0.2741  0.1311 -0.4133
  168loPI   C1A 2679   9.615   6.566   9.979  0.0759  0.1455  0.0105
  168loPI   C2A 2680   9.626   6.597   9.580 -0.0515  0.1352  0.1022
  168loPI   C3A 2681   9.601   6.562   9.309 -0.0469  0.3125 -0.1708
  168loPI   C4A 2682   9.457   6.646   8.824 -0.0281 -0.1330  0.0745
  168loPI   C5A 2683   9.505   6.701   8.451  0.1515 -0.0694  0.1082
  168loPI   C6A 2684   9.327   6.708   8.052 -0.0616 -0.2556 -0.1920
  168loPI   C1B 2685  10.108   6.447   9.877  0.1809 -0.1953 -0.1888
  168loPI   C2B 2686  10.113   6.447   9.460  0.0144 -0.0194  0.0714
  168loPI   C3B 2687  10.066   6.470   9.054  0.1859 -0.0044  0.1158
  168loPI   C4B 2688   9.935   6.456   8.601  0.1353 -0.1122  0.3376
  169loPI    C1 2689   1.006  16.974  10.153  0.2262  0.0994 -0.1286
  169loPI    C2 2690   1.251  16.661  10.200  0.1375  0.0124 -0.2396
  169loPI    C3 2691   1.151  16.887  10.515  0.3031  0.0058 -0.1815
  169loPI   PO4 2692   1.080  17.030   9.859 -0.1117  0.0104  0.1230
  169loPI   GL1 2693   1.004  17.001   9.414  0.0038 -0.1357  0.2228
  169loPI   GL2 2694   1.335  17.263   9.343 -0.2833 -0.0204 -0.2304
  169loPI   C1A 2695   0.868  16.967   8.998  0.1527  0.0335 -0.0234
  169loPI   C2A 2696   0.924  16.615   8.726 -0.1159 -0.0779 -0.2281
  169loPI   C3A 2697   1.066  16.332   8.426 -0.1884  0.0815 -0.1772
  169loPI   C4A 2698   0.955  16.248   8.033 -0.2441  0.1615 -0.0890
  169loPI   C5A 2699   0.928  16.018   7.675 -0.1699  0.1088  0.2754
  169loPI   C6A 2700   1.280  15.871   7.446 -0.1380  0.1324  0.3922
  169loPI   C1B 2701   1.268  17.363   8.920  0.2420 -0.3838 -0.1327
  169loPI   C2B 2702   1.323  17.244   8.400 -0.2696  0.3526  0.2469
  169loPI   C3B 2703   1.340  17.311   7.993 -0.0869 -0.2787 -0.0659
  169loPI   C4B 2704   1.183  17.361   7.619  0.0411  0.2205  0.0158
  170loPI    C1 2705  10.802   7.096  10.770 -0.0035 -0.1614  0.1055
  170loPI    C2 2706  10.811   7.284  11.123  0.0443 -0.0302  0.0350
  170loPI    C3 2707  10.627   6.930  11.090 -0.1882  0.0792  0.1319
  170loPI   PO4 2708  10.747   7.403  10.566  0.2503 -0.0277 -0.0337
  170loPI   GL1 2709  10.518   7.374  10.154  0.1837  0.1638 -0.0870
  170loPI   GL2 2710  10.619   7.035  10.261 -0.1944  0.3421  0.1894
  170loPI   C1A 2711  10.427   7.269   9.752 -0.2626  0.1222 -0.2989
  170loPI   C2A 2712  10.297   7.284   9.341  0.2161  0.0038  0.0605
  170loPI   C3A 2713  10.407   7.375   8.914 -0.0039  0.1225 -0.1428
  170loPI   C4A 2714  10.326   7.242   8.566  0.1114  0.0239  0.1388
  170loPI   C5A 2715  10.513   7.082   8.233 -0.1374  0.2504 -0.0213
  170loPI   C6A 2716  10.804   7.038   7.823  0.3209 -0.1053 -0.2677
  170loPI   C1B 2717  10.902   7.027   9.938 -0.0332 -0.0146 -0.0778
  170loPI   C2B 2718  10.922   7.217   9.562 -0.0937  0.1222 -0.0741
  170loPI   C3B 2719  10.844   7.166   9.117  0.0375  0.0769 -0.0726
  170loPI   C4B 2720  10.792   7.064   8.707 -0.0471 -0.3825 -0.2961
  171loPI    C1 2721  15.133  17.352   9.577 -0.2038 -0.0613 -0.1576
  171loPI    C2 2722  14.986  17.020   9.408  0.2306 -0.2403 -0.1971
  171loPI    C3 2723  15.378  17.049   9.485  0.1429  0.1177  0.1485
  171loPI   PO4 2724  15.006  17.525   9.482 -0.1999  0.2509 -0.1287
  171loPI   GL1 2725  14.807  17.422   9.112  0.4000  0.0428  0.0300
  171loPI   GL2 2726  14.583  17.600   9.085 -0.1098  0.3119  0.4635
  171loPI   C1A 2727  15.005  17.514   8.772  0.0684 -0.3184 -0.1580
  171loPI   C2A 2728  14.961  17.405   8.355 -0.0411 -0.2159 -0.0461
  171loPI   C3A 2729  15.255  17.363   8.007  0.0758 -0.4469  0.0450
  171loPI   C4A 2730  15.257  17.018   7.744  0.0061 -0.1706  0.2314
  171loPI   C5A 2731  15.102  16.746   7.490 -0.1056 -0.0638 -0.0026
  171loPI   C6A 2732  14.888  16.565   7.289  0.0836  0.0469  0.3701
  171loPI   C1B 2733  14.462  17.732   8.600 -0.0724  0.0645 -0.0019
  171loPI   C2B 2734  14.420  17.729   8.202  0.2243 -0.1346 -0.3261
  171loPI   C3B 2735  14.113  17.549   7.847  0.0103 -0.1905  0.3257
  171loPI   C4B 2736  13.803  17.241   7.672  0.2675 -0.0204 -0.0463
  172loPI    C1 2737   7.240   4.912  10.917  0.2188 -0.0079  0.2959
  172loPI    C2 2738   7.051   5.264  10.890  0.2059 -0.0341  0.0193
  172loPI    C3 2739   7.349   5.216  11.153  0.1355  0.1495  0.1338
  172loPI   PO4 2740   7.223   4.868  10.528 -0.2943  0.0149  0.1465
  172loPI   GL1 2741   7.451   5.004  10.128 -0.1386 -0.1872  0.0070
  172loPI   GL2 2742   7.706   4.957  10.060  0.1775  0.3375 -0.1765
  172loPI   C1A 2743   7.309   4.916   9.762 -0.1106  0.0748 -0.3856
  172loPI   C2A 2744   7.389   4.966   9.283 -0.1425  0.0457 -0.2702
  172loPI   C3A 2745   7.540   4.867   8.821  0.0366 -0.1753  0.1860
  172loPI   C4A 2746   7.456   4.843   8.374 -0.1028  0.1844 -0.1614
  172loPI   C5A 2747   7.369   4.461   8.022 -0.1195 -0.3330  0.2995
  172loPI   C6A 2748   7.187   4.393   7.651  0.3291  0.0559  0.1340
  172loPI   C1B 2749   7.949   4.792   9.721  0.2531  0.1716  0.2003
  172loPI   C2B 2750   8.032   4.766   9.322 -0.0894  0.1568 -0.0427
  172loPI   C3B 2751   8.052   4.702   8.975  0.2324 -0.1061 -0.2877
  172loPI   C4B 2752   7.989   4.628   8.622 -0.3858 -0.0442  0.1912
  173loPI    C1 2753  15.291   8.283   9.859 -0.0570 -0.4187 -0.1421
  173loPI    C2 2754  15.123   8.115  10.181 -0.1483  0.0171  0.0437
  173loPI    C3 2755  15.440   8.356  10.223 -0.0765 -0.0302 -0.2086
  173loPI   PO4 2756  15.121   8.285   9.728 -0.1988 -0.3838  0.1088
  173loPI   GL1 2757  14.993   8.385   9.371 -0.0738 -0.3120 -0.0956
  173loPI   GL2 2758  14.879   8.121   9.294  0.0838  0.0380  0.2380
  173loPI   C1A 2759  15.150   8.631   9.063 -0.1303  0.3715  0.2377
  173loPI   C2A 2760  15.224   8.680   8.704 -0.2049 -0.1093 -0.0767
  173loPI   C3A 2761  15.021   8.615   8.357 -0.4329 -0.1510  0.0440
  173loPI   C4A 2762  15.079   8.465   7.879  0.0856 -0.0739  0.3756
  173loPI   C5A 2763  15.099   8.374   7.458 -0.1534  0.0729  0.0933
  173loPI   C6A 2764  14.900   8.451   7.098 -0.3353  0.3428  0.0026
  173loPI   C1B 2765  15.117   8.100   9.005  0.0907 -0.5206  0.0538
  173loPI   C2B 2766  15.193   8.174   8.599 -0.2684  0.2846 -0.0682
  173loPI   C3B 2767  15.296   8.092   8.184 -0.0654 -0.1153 -0.0113
  173loPI   C4B 2768  15.237   7.951   7.646 -0.1457  0.0312 -0.3392
  174loPI    C1 2769  14.406   5.964  10.236  0.1051  0.0056  0.0439
  174loPI    C2 2770  14.804   5.928  10.262  0.1092  0.2211  0.3346
  174loPI    C3 2771  14.585   5.965  10.594 -0.1629  0.0348  0.1799
  174loPI   PO4 2772  14.380   6.067  10.024 -0.0323  0.1414  0.2184
  174loPI   GL1 2773  14.454   6.142   9.579  0.0565 -0.1587 -0.2924
  174loPI   GL2 2774  14.079   6.402   9.582  0.0451 -0.0488  0.1252
  174loPI   C1A 2775  14.173   5.885   9.470 -0.0425 -0.1138 -0.1845
  174loPI   C2A 2776  13.905   5.558   9.268  0.3126  0.1284  0.1739
  174loPI   C3A 2777  13.817   5.544   8.884 -0.0198 -0.0009 -0.1390
  174loPI   C4A 2778  13.850   5.503   8.373 -0.3456  0.0684  0.0703
  174loPI   C5A 2779  13.791   5.758   7.946 -0.2320  0.3391 -0.1687
  174loPI   C6A 2780  13.713   5.792   7.576  0.3230  0.2388  0.0107
  174loPI   C1B 2781  14.226   6.311   9.117  0.0300 -0.3470  0.2296
  174loPI   C2B 2782  14.195   6.303   8.705  0.2052  0.1737  0.2107
  174loPI   C3B 2783  14.254   6.302   8.268 -0.0270 -0.0787 -0.0973
  174loPI   C4B 2784  14.334   6.391   7.704  0.4125  0.2486  0.1257
  175loPI    C1 2785  14.723   3.390  10.405 -0.0349  0.0935 -0.1269
  175loPI    C2 2786  15.027   3.164  10.534  0.1611  0.1815 -0.4241
  175loPI    C3 2787  14.994   3.544  10.656 -0.2219 -0.0225  0.1513
  175loPI   PO4 2788  14.670   3.383  10.116 -0.2890 -0.1813 -0.0104
  175loPI   GL1 2789  14.413   3.368   9.802  0.0906  0.2667 -0.0162
  175loPI   GL2 2790  14.599   3.119   9.681  0.2622  0.0902  0.4015
  175loPI   C1A 2791  14.389   3.457   9.336 -0.2505 -0.1418 -0.0806
  175loPI   C2A 2792  14.310   3.491   8.923  0.2160  0.0063  0.1567
  175loPI   C3A 2793  14.187   3.437   8.671 -0.1950 -0.2949 -0.1556
  175loPI   C4A 2794  14.265   3.445   8.224 -0.2372 -0.0502  0.0413
  175loPI   C5A 2795  14.155   3.491   7.844  0.0772  0.0812  0.1518
  175loPI   C6A 2796  14.000   3.482   7.392  0.1359  0.2014 -0.2074
  175loPI   C1B 2797  14.313   2.893   9.420 -0.3483 -0.1446 -0.3024
  175loPI   C2B 2798  14.294   3.001   9.004  0.1711  0.0740  0.1772
  175loPI   C3B 2799  14.282   2.954   8.525  0.0579  0.1880  0.0661
  175loPI   C4B 2800  14.257   2.927   8.136  0.1603  0.1455  0.0706
  176loPI    C1 2801   8.268   7.455  10.999 -0.2713  0.1060  0.1974
  176loPI    C2 2802   8.122   7.227  11.294  0.0883 -0.3193  0.0584
  176loPI    C3 2803   8.509   7.202  11.194  0.0704  0.1478 -0.1570
  176loPI   PO4 2804   8.172   7.405  10.834  0.0236  0.1291 -0.3901
  176loPI   GL1 2805   8.042   7.317  10.409  0.0499  0.0956 -0.2170
  176loPI   GL2 2806   8.465   7.408  10.327  0.1070  0.0062  0.1153
  176loPI   C1A 2807   8.063   7.211   9.985  0.0823 -0.1604  0.0464
  176loPI   C2A 2808   7.993   7.150   9.584 -0.0810  0.2170  0.1792
  176loPI   C3A 2809   7.890   7.121   9.150  0.0738  0.2427 -0.3650
  176loPI   C4A 2810   7.975   7.134   8.740 -0.0983 -0.2318 -0.0155
  176loPI   C5A 2811   8.006   7.221   8.292 -0.0320  0.2185 -0.1253
  176loPI   C6A 2812   7.835   7.385   8.038  0.1439  0.2937 -0.1387
  176loPI   C1B 2813   8.421   7.522   9.793 -0.0974 -0.0561 -0.0333
  176loPI   C2B 2814   8.477   7.485   9.452  0.0964  0.1265  0.0318
  176loPI   C3B 2815   8.365   7.457   9.040 -0.0124 -0.0028  0.0498
  176loPI   C4B 2816   8.380   7.544   8.608  0.0597 -0.1938  0.1463
  177loPI    C1 2817  11.117  15.253  10.527 -0.1269 -0.1502  0.0221
  177loPI    C2 2818  11.058  15.353  10.910  0.1162  0.0723  0.0040
  177loPI    C3 2819  11.416  15.220  10.791  0.1068  0.2161 -0.1892
  177loPI   PO4 2820  10.922  15.124  10.447 -0.2238 -0.2762  0.1019
  177loPI   GL1 2821  10.939  14.906  10.138 -0.0596 -0.0594  0.0591
  177loPI   GL2 2822  10.600  15.003  10.025  0.0964 -0.0134  0.2370
  177loPI   C1A 2823  10.842  14.984   9.617 -0.1606  0.0033  0.0679
  177loPI   C2A 2824  10.738  14.940   9.205 -0.0411 -0.4965 -0.2263
  177loPI   C3A 2825  10.596  15.023   8.826  0.4039 -0.0853  0.1352
  177loPI   C4A 2826  10.589  15.035   8.353  0.1555  0.2406 -0.0381
  177loPI   C5A 2827  10.620  14.961   7.948 -0.3149  0.0023  0.0245
  177loPI   C6A 2828  10.733  14.985   7.574 -0.0327 -0.1227  0.1477
  177loPI   C1B 2829  10.371  15.155   9.744  0.0059  0.1017 -0.0801
  177loPI   C2B 2830  10.266  15.161   9.308 -0.2205 -0.0832 -0.2569
  177loPI   C3B 2831  10.082  15.091   8.903  0.0756 -0.4203  0.0468
  177loPI   C4B 2832  10.090  15.026   8.458 -0.2694 -0.4128  0.1850
  178loPI    C1 2833   3.930   1.096  10.398  0.2415  0.1188 -0.2462
  178loPI    C2 2834   3.628   1.357  10.374  0.0786 -0.0439 -0.0116
  178loPI    C3 2835   3.761   1.238  10.731  0.3260 -0.0845 -0.1151
  178loPI   PO4 2836   4.051   1.171  10.170  0.0164  0.3186  0.1242
  178loPI   GL1 2837   4.047   1.185   9.782  0.0280 -0.0739 -0.3002
  178loPI   GL2 2838   4.026   1.323   9.467 -0.0139 -0.2907  0.3680
  178loPI   C1A 2839   4.470   1.147   9.477  0.1795  0.0575 -0.0974
  178loPI   C2A 2840   4.598   1.134   9.045 -0.0900 -0.1510  0.0172
  178loPI   C3A 2841   4.624   1.060   8.600  0.0105 -0.1193  0.0071
  178loPI   C4A 2842   4.547   0.998   8.203  0.2368  0.1688 -0.5184
  178loPI   C5A 2843   4.306   0.704   8.009 -0.3025  0.2878 -0.1393
  178loPI   C6A 2844   4.024   0.808   7.702 -0.1108  0.2252  0.0551
  178loPI   C1B 2845   4.120   1.289   9.027  0.3506 -0.1996  0.1242
  178loPI   C2B 2846   4.129   1.287   8.576  0.1261 -0.0302  0.0512
  178loPI   C3B 2847   4.043   1.303   8.146  0.0776 -0.0985 -0.3126
  178loPI   C4B 2848   4.272   1.245   7.812 -0.5265  0.0412 -0.0041
  179loPI    C1 2849  15.487   2.125   9.854 -0.1164  0.1300 -0.1119
  179loPI    C2 2850  15.486   1.753  10.000  0.0347 -0.0532 -0.5603
  179loPI    C3 2851  15.762   2.015  10.122 -0.2118 -0.0103 -0.0708
  179loPI   PO4 2852  15.473   2.107   9.556 -0.1569  0.0361 -0.0087
  179loPI   GL1 2853  15.128   2.063   9.262 -0.0046  0.0230  0.0578
  179loPI   GL2 2854  15.115   2.431   9.266 -0.2810  0.0079  0.2223
  179loPI   C1A 2855  15.264   1.762   8.962 -0.2684  0.2556 -0.0197
  179loPI   C2A 2856  15.018   1.745   8.591 -0.2345 -0.2226 -0.0614
  179loPI   C3A 2857  14.908   1.806   8.300 -0.1720  0.2557  0.1169
  179loPI   C4A 2858  14.866   1.752   7.889  0.1507  0.3264 -0.1444
  179loPI   C5A 2859  14.847   1.805   7.397 -0.0590 -0.1340 -0.2882
  179loPI   C6A 2860  14.749   1.877   6.905  0.4044 -0.0299 -0.0139
  179loPI   C1B 2861  14.923   2.526   8.827 -0.0762 -0.0927 -0.0323
  179loPI   C2B 2862  14.736   2.693   8.433 -0.0305  0.3297 -0.0090
  179loPI   C3B 2863  14.722   2.777   7.996 -0.0348  0.4711 -0.1687
  179loPI   C4B 2864  14.624   3.110   7.622  0.0835 -0.0353 -0.1165
  180loPI    C1 2865   7.680  17.818  10.491 -0.2329  0.2097 -0.0805
  180loPI    C2 2866   7.979  18.032  10.649 -0.2466  0.2902 -0.1628
  180loPI    C3 2867   7.792  17.755  10.870  0.1309 -0.0199 -0.2199
  180loPI   PO4 2868   7.757  17.771  10.224 -0.2782  0.0214  0.2844
  180loPI   GL1 2869   7.784  17.690   9.815  0.0725 -0.2439  0.0877
  180loPI   GL2 2870   7.464  17.614   9.794 -0.1811 -0.0430 -0.1014
  180loPI   C1A 2871   7.751  17.822   9.475 -0.1790 -0.3685 -0.0442
  180loPI   C2A 2872   7.723  17.885   8.986  0.0035  0.2122 -0.2827
  180loPI   C3A 2873   7.698  17.822   8.553 -0.1002 -0.1502 -0.2297
  180loPI   C4A 2874   7.796  17.775   8.137 -0.0013  0.1899  0.5184
  180loPI   C5A 2875   7.612  17.964   7.818 -0.1093 -0.2799  0.5733
  180loPI   C6A 2876   7.358  18.211   7.549 -0.2938 -0.1687 -0.0652
  180loPI   C1B 2877   7.339  17.552   9.413  0.2161  0.2099  0.0078
  180loPI   C2B 2878   7.356  17.513   8.986  0.1383  0.1669 -0.1718
  180loPI   C3B 2879   7.318  17.445   8.531 -0.1485 -0.0584 -0.2111
  180loPI   C4B 2880   7.337  17.508   8.081 -0.0996  0.1558 -0.0224
  181loPI    C1 2881  15.666   9.191  10.088  0.1138 -0.1540  0.0531
  181loPI    C2 2882  15.415   8.899  10.197 -0.1729  0.1115  0.1198
  181loPI    C3 2883  15.710   9.012  10.443 -0.0598 -0.1203  0.0929
  181loPI   PO4 2884  15.726   9.169   9.806 -0.1309 -0.1865  0.2007
  181loPI   GL1 2885  15.531   9.268   9.387 -0.4820  0.0668 -0.2014
  181loPI   GL2 2886  15.382   9.597   9.319  0.1371 -0.3177  0.1475
  181loPI   C1A 2887  15.262   9.109   9.076  0.0693  0.1815  0.1105
  181loPI   C2A 2888  15.216   9.182   8.658 -0.0178 -0.0466  0.0928
  181loPI   C3A 2889  15.252   9.212   8.212  0.1770  0.1102 -0.0260
  181loPI   C4A 2890  14.990   9.028   7.954  0.4677  0.5350  0.0065
  181loPI   C5A 2891  14.784   8.792   7.516  0.0976 -0.0021 -0.3093
  181loPI   C6A 2892  14.520   8.271   7.362 -0.1863 -0.0276 -0.0150
  181loPI   C1B 2893  15.335   9.611   8.923  0.0845  0.0139  0.1943
  181loPI   C2B 2894  15.225   9.663   8.455 -0.0883  0.0742  0.2262
  181loPI   C3B 2895  15.321   9.690   7.977  0.0936 -0.1072 -0.1109
  181loPI   C4B 2896  15.500   9.787   7.499  0.4363 -0.2107 -0.2970
  182loPI    C1 2897   8.977   5.040  10.878 -0.1577 -0.0680  0.0679
  182loPI    C2 2898   8.615   5.201  10.828 -0.0444  0.1912  0.0650
  182loPI    C3 2899   8.889   5.391  11.049 -0.0738 -0.2503  0.4972
  182loPI   PO4 2900   9.007   5.005  10.555  0.1649  0.2358 -0.0725
  182loPI   GL1 2901   8.852   5.181  10.261 -0.1076  0.0698  0.2391
  182loPI   GL2 2902   9.047   5.265  10.129 -0.1722 -0.0043  0.1954
  182loPI   C1A 2903   8.534   5.539  10.105 -0.0855 -0.2311 -0.0304
  182loPI   C2A 2904   8.357   5.682   9.607  0.2216  0.2541  0.3823
  182loPI   C3A 2905   8.305   5.684   9.173  0.0271  0.1775  0.0528
  182loPI   C4A 2906   8.251   5.569   8.716  0.0979  0.0131  0.1158
  182loPI   C5A 2907   8.207   5.427   8.307  0.0107 -0.3319  0.0883
  182loPI   C6A 2908   7.834   5.343   8.093  0.1318 -0.2778 -0.1824
  182loPI   C1B 2909   8.837   5.444   9.651  0.3903  0.3280 -0.0999
  182loPI   C2B 2910   8.742   5.382   9.293 -0.0838  0.3455  0.0121
  182loPI   C3B 2911   8.808   5.500   8.834 -0.1108 -0.0478  0.2437
  182loPI   C4B 2912   8.727   5.355   8.420  0.3684  0.1406  0.1123
  183loPI    C1 2913  12.583  12.539  10.446  0.0106 -0.1374  0.1905
  183loPI    C2 2914  12.716  12.907  10.531 -0.0054 -0.1177  0.1307
  183loPI    C3 2915  12.559  12.680  10.820 -0.3435  0.0657  0.0969
  183loPI   PO4 2916  12.551  12.508  10.168  0.1229 -0.1490  0.3380
  183loPI   GL1 2917  12.836  12.308   9.917 -0.0884 -0.2053 -0.2877
  183loPI   GL2 2918  13.072  12.368   9.718  0.3771 -0.4149 -0.0858
  183loPI   C1A 2919  12.632  12.467   9.520  0.2122  0.3221  0.1664
  183loPI   C2A 2920  12.602  12.447   9.141  0.1444 -0.2128 -0.0240
  183loPI   C3A 2921  12.626  12.306   8.730 -0.0304  0.0014 -0.4747
  183loPI   C4A 2922  12.462  12.409   8.376 -0.2825 -0.0348  0.1352
  183loPI   C5A 2923  12.399  12.489   7.922 -0.0597 -0.1953 -0.1421
  183loPI   C6A 2924  12.283  12.552   7.535 -0.0965 -0.0183 -0.0846
  183loPI   C1B 2925  13.064  12.650   9.382 -0.4415 -0.1427  0.3490
  183loPI   C2B 2926  13.032  12.724   8.879  0.1298 -0.0429 -0.1971
  183loPI   C3B 2927  12.871  12.673   8.442 -0.0455  0.1483  0.0756
  183loPI   C4B 2928  12.883  12.612   8.099 -0.1455 -0.2163  0.0883
  184loPI    C1 2929  17.382   0.807   9.467 -0.1534 -0.2958 -0.1010
  184loPI    C2 2930  17.138   1.012   9.708  0.2277 -0.0431  0.0803
  184loPI    C3 2931  17.360   0.714   9.855  0.4517  0.1030  0.0419
  184loPI   PO4 2932  17.334   0.708   9.361  0.0700 -0.0349 -0.1376
  184loPI   GL1 2933  17.496   0.614   8.998 -0.4913 -0.0522  0.1746
  184loPI   GL2 2934  17.764   0.563   8.905  0.4407  0.0612  0.3471
  184loPI   C1A 2935  17.219   0.641   8.620 -0.1444  0.1510  0.0074
  184loPI   C2A 2936  17.254   0.502   8.286 -0.0237  0.0565  0.0257
  184loPI   C3A 2937  17.492   0.546   7.963  0.1650  0.2680 -0.0848
  184loPI   C4A 2938  17.801   0.592   7.686  0.2616 -0.1747 -0.0358
  184loPI   C5A 2939  17.938   0.361   7.416  0.0405 -0.1949 -0.0094
  184loPI   C6A 2940  18.065   0.002   7.383  0.1134 -0.0763 -0.1583
  184loPI   C1B 2941  17.712   0.644   8.457  0.3889  0.1116  0.1587
  184loPI   C2B 2942  17.846   0.909   8.142 -0.2051 -0.1356 -0.2160
  184loPI   C3B 2943  18.146   1.086   7.921  0.2632 -0.1222 -0.0626
  184loPI   C4B 2944  18.132   1.242   7.505  0.2744  0.1202  0.1094
  185loPI    C1 2945  17.885   4.642   9.845 -0.1125 -0.2580  0.1875
  185loPI    C2 2946  18.239   4.465   9.903  0.0938  0.0795 -0.0069
  185loPI    C3 2947  18.173   4.832  10.046 -0.1737  0.0266  0.0110
  185loPI   PO4 2948  17.829   4.538   9.567  0.2163 -0.1328 -0.1167
  185loPI   GL1 2949  17.572   4.375   9.190 -0.1656 -0.1904  0.0219
  185loPI   GL2 2950  17.902   4.225   9.084  0.2090 -0.0479  0.2451
  185loPI   C1A 2951  17.647   4.274   8.676 -0.2877 -0.1243  0.1025
  185loPI   C2A 2952  17.796   4.365   8.295 -0.0084  0.0353  0.0085
  185loPI   C3A 2953  17.812   4.453   7.884  0.0025 -0.0261 -0.0107
  185loPI   C4A 2954  18.127   4.638   7.639 -0.0440  0.0765  0.0087
  185loPI   C5A 2955  18.176   4.911   7.340  0.2100  0.3094  0.2875
  185loPI   C6A 2956  18.257   5.323   7.359  0.2104  0.0088  0.2397
  185loPI   C1B 2957  18.182   4.130   8.802  0.1835 -0.3098 -0.1940
  185loPI   C2B 2958  18.310   4.260   8.407  0.0018  0.0637  0.2925
  185loPI   C3B 2959  18.338   4.383   8.015 -0.2086 -0.2171  0.1954
  185loPI   C4B 2960  18.699   4.406   7.625  0.0182  0.1493 -0.0961
  186loPI    C1 2961  14.336   8.388  10.104  0.2503 -0.1503  0.0230
  186loPI    C2 2962  14.441   8.182   9.778  0.0295 -0.0433 -0.1186
  186loPI    C3 2963  14.722   8.358  10.002  0.1790 -0.0744 -0.2789
  186loPI   PO4 2964  14.164   8.535  10.050 -0.0147 -0.0335 -0.1289
  186loPI   GL1 2965  13.927   8.679   9.709 -0.0525  0.4972  0.0603
  186loPI   GL2 2966  14.156   8.872   9.588 -0.1408 -0.0230  0.2702
  186loPI   C1A 2967  13.791   8.672   9.250  0.0101 -0.0537  0.2140
  186loPI   C2A 2968  13.749   8.634   8.749  0.2737 -0.1556 -0.3922
  186loPI   C3A 2969  13.762   8.544   8.369  0.1579  0.4118  0.2555
  186loPI   C4A 2970  13.835   8.576   7.884  0.1254  0.2497  0.1744
  186loPI   C5A 2971  14.026   8.548   7.473 -0.0984  0.1878  0.2705
  186loPI   C6A 2972  14.372   8.817   7.287  0.1612  0.0964 -0.0829
  186loPI   C1B 2973  14.250   8.820   9.010 -0.2759  0.2049 -0.1497
  186loPI   C2B 2974  14.102   8.982   8.672  0.1882 -0.0131 -0.0815
  186loPI   C3B 2975  14.097   8.833   8.208 -0.0536  0.2133 -0.3201
  186loPI   C4B 2976  14.143   8.990   7.842  0.0973  0.2355  0.0617
  187loPI    C1 2977   4.879  11.516  10.251  0.0728 -0.3015  0.0640
  187loPI    C2 2978   5.137  11.473  10.554 -0.0131 -0.2327  0.1473
  187loPI    C3 2979   4.754  11.365  10.599 -0.0279 -0.2152  0.0658
  187loPI   PO4 2980   4.993  11.434  10.018 -0.0945  0.1582 -0.1180
  187loPI   GL1 2981   4.964  11.590   9.651 -0.2807  0.4539  0.0067
  187loPI   GL2 2982   5.269  11.443   9.539 -0.3173 -0.1014  0.0258
  187loPI   C1A 2983   4.831  11.788   9.279 -0.2714  0.0183 -0.2052
  187loPI   C2A 2984   4.792  11.693   8.845 -0.1792 -0.0161  0.0020
  187loPI   C3A 2985   4.831  11.697   8.379 -0.1296 -0.1893 -0.3676
  187loPI   C4A 2986   4.900  11.553   7.956  0.4688 -0.2640 -0.2351
  187loPI   C5A 2987   4.919  11.401   7.526 -0.0437 -0.2438  0.2681
  187loPI   C6A 2988   5.107  11.707   7.152  0.0059  0.2474 -0.3056
  187loPI   C1B 2989   5.365  11.483   9.142  0.1531  0.1459  0.0925
  187loPI   C2B 2990   5.197  11.517   8.656  0.0631  0.1297 -0.0675
  187loPI   C3B 2991   5.262  11.423   8.234 -0.3013  0.1864 -0.1967
  187loPI   C4B 2992   5.384  11.373   7.866 -0.1447  0.1501  0.0560
  188loPI    C1 2993   0.582   6.172  10.048  0.1440  0.3779  0.0338
  188loPI    C2 2994   0.523   6.256  10.435  0.2211  0.1744  0.0909
  188loPI    C3 2995   0.658   5.895  10.326  0.1584  0.2156 -0.1296
  188loPI   PO4 2996   0.368   6.352   9.902  0.0140 -0.0647 -0.1664
  188loPI   GL1 2997   0.346   6.277   9.419  0.0287  0.3891  0.0242
  188loPI   GL2 2998   0.238   6.039   9.589 -0.1277 -0.0920 -0.0075
  188loPI   C1A 2999   0.469   6.428   9.072 -0.1011  0.1569  0.1990
  188loPI   C2A 3000   0.629   6.268   8.709  0.1496  0.0616 -0.2349
  188loPI   C3A 3001   0.821   6.379   8.409 -0.1195  0.2883 -0.0632
  188loPI   C4A 3002   0.729   6.390   8.001  0.0769 -0.2496  0.0054
  188loPI   C5A 3003   0.815   6.577   7.694 -0.0457  0.2554  0.0011
  188loPI   C6A 3004   0.767   6.818   7.266 -0.0362  0.2955  0.0231
  188loPI   C1B 3005   0.199   5.891   9.138  0.0526  0.0080  0.0603
  188loPI   C2B 3006   0.234   5.893   8.771 -0.2707  0.2727  0.2114
  188loPI   C3B 3007   0.324   5.934   8.405  0.2691 -0.1489  0.2045
  188loPI   C4B 3008   0.404   6.067   8.118  0.3374  0.1083 -0.1274
  189loPI    C1 3009  16.439   7.755  10.125  0.1429  0.2074 -0.1932
  189loPI    C2 3010  16.808   7.673  10.254  0.1230  0.0247 -0.2491
  189loPI    C3 3011  16.507   7.423  10.338  0.0253  0.1358 -0.2657
  189loPI   PO4 3012  16.577   7.837   9.867 -0.0930  0.0774  0.0088
  189loPI   GL1 3013  16.845   7.750   9.443 -0.0364  0.0858  0.2303
  189loPI   GL2 3014  16.646   8.003   9.295  0.1832  0.0906 -0.0998
  189loPI   C1A 3015  16.772   7.529   9.114 -0.0370  0.0508  0.1261
  189loPI   C2A 3016  16.772   7.411   8.679 -0.1409 -0.3826 -0.2447
  189loPI   C3A 3017  16.730   7.332   8.234 -0.0412 -0.3787 -0.0288
  189loPI   C4A 3018  16.668   7.651   7.895  0.1592 -0.2440  0.2288
  189loPI   C5A 3019  16.876   7.801   7.659  0.0174  0.2162  0.2712
  189loPI   C6A 3020  17.324   7.840   7.483  0.2455  0.0645  0.2890
  189loPI   C1B 3021  16.656   7.962   8.767  0.1934 -0.1311 -0.0329
  189loPI   C2B 3022  16.490   7.878   8.325 -0.0301  0.0605  0.0951
  189loPI   C3B 3023  16.220   7.863   7.911  0.0640 -0.3404  0.0471
  189loPI   C4B 3024  16.022   7.564   7.650 -0.4380  0.0448 -0.0265
  190loPI    C1 3025  17.072   4.882   9.779 -0.0280  0.1251 -0.0285
  190loPI    C2 3026  17.116   4.765  10.159 -0.0729  0.0177 -0.0561
  190loPI    C3 3027  17.426   4.748   9.907 -0.0561  0.0413 -0.0373
  190loPI   PO4 3028  16.990   4.747   9.665 -0.0503  0.0758 -0.1718
  190loPI   GL1 3029  16.839   4.731   9.296  0.1278  0.1908 -0.0852
  190loPI   GL2 3030  16.983   4.489   9.146 -0.4598  0.0145 -0.2355
  190loPI   C1A 3031  16.750   4.678   8.768 -0.2301 -0.2486 -0.0481
  190loPI   C2A 3032  16.847   4.523   8.377 -0.2642  0.1602 -0.1471
  190loPI   C3A 3033  16.806   4.426   8.018 -0.3757  0.2575 -0.2129
  190loPI   C4A 3034  16.916   4.208   7.608 -0.1655  0.0010 -0.0001
  190loPI   C5A 3035  17.106   4.357   7.204  0.1794 -0.2413 -0.0624
  190loPI   C6A 3036  17.534   4.482   6.900  0.4551 -0.0675 -0.3962
  190loPI   C1B 3037  17.222   4.601   8.859 -0.1070  0.1297  0.0056
  190loPI   C2B 3038  17.360   4.618   8.438  0.2779  0.4032  0.1518
  190loPI   C3B 3039  17.310   4.544   7.900 -0.3037  0.0125  0.0771
  190loPI   C4B 3040  17.168   4.750   7.489 -0.0349 -0.0555 -0.1748
  191loPI    C1 3041  16.806   1.371   9.643 -0.0610 -0.1760  0.1049
  191loPI    C2 3042  16.604   1.072   9.814 -0.2861 -0.0096  0.1342
  191loPI    C3 3043  16.836   1.310  10.037 -0.1806 -0.1040  0.1256
  191loPI   PO4 3044  16.995   1.358   9.394  0.1242  0.3282  0.0088
  191loPI   GL1 3045  17.298   1.188   9.169 -0.0891 -0.0442  0.1023
  191loPI   GL2 3046  17.019   1.112   8.878  0.2613 -0.1399 -0.1058
  191loPI   C1A 3047  17.221   1.564   8.820 -0.1300  0.0145  0.0732
  191loPI   C2A 3048  17.293   1.751   8.383 -0.4614 -0.1589 -0.0362
  191loPI   C3A 3049  17.512   1.790   7.985  0.1088 -0.0645  0.0900
  191loPI   C4A 3050  17.485   1.948   7.598 -0.0146  0.2416  0.2594
  191loPI   C5A 3051  17.220   1.935   7.228  0.1165  0.1580  0.1528
  191loPI   C6A 3052  17.130   2.222   6.876  0.0771  0.2139  0.1459
  191loPI   C1B 3053  17.013   1.338   8.452  0.1647 -0.1513  0.1049
  191loPI   C2B 3054  17.134   1.398   8.026  0.1520  0.0524  0.2318
  191loPI   C3B 3055  17.082   1.612   7.667  0.1534 -0.1955  0.2869
  191loPI   C4B 3056  16.772   1.612   7.293 -0.1775  0.0095 -0.1549
  192loPI    C1 3057   5.786   2.727  10.652  0.2632  0.1680 -0.0301
  192loPI    C2 3058   5.701   3.118  10.661 -0.0102  0.1074  0.1635
  192loPI    C3 3059   5.818   2.931  10.995  0.0227  0.0025  0.0937
  192loPI   PO4 3060   5.848   2.773  10.310 -0.2789  0.2074 -0.2513
  192loPI   GL1 3061   5.986   2.752   9.904 -0.2125 -0.3155  0.0900
  192loPI   GL2 3062   6.011   3.085   9.766  0.1771 -0.1846 -0.0529
  192loPI   C1A 3063   6.071   2.580   9.518  0.1544 -0.0311  0.0660
  192loPI   C2A 3064   6.189   2.510   9.107  0.2092  0.3004  0.4190
  192loPI   C3A 3065   6.104   2.496   8.695 -0.1121 -0.0103  0.0159
  192loPI   C4A 3066   6.119   2.570   8.236  0.2930  0.1248  0.0360
  192loPI   C5A 3067   6.280   2.404   7.789  0.3146  0.1997 -0.1276
  192loPI   C6A 3068   6.589   2.034   7.662 -0.0758  0.1887 -0.2860
  192loPI   C1B 3069   6.064   3.079   9.352  0.2062 -0.3132 -0.0426
  192loPI   C2B 3070   6.038   3.077   8.972  0.1974 -0.1727  0.2719
  192loPI   C3B 3071   5.947   3.033   8.484 -0.2224 -0.0728  0.2000
  192loPI   C4B 3072   5.994   3.055   8.017  0.0416  0.0639 -0.3976
  193loPI    C1 3073  16.506   9.647   9.976 -0.1520 -0.0558 -0.1315
  193loPI    C2 3074  16.416   9.319  10.187 -0.1691  0.1204  0.1414
  193loPI    C3 3075  16.793   9.453  10.176 -0.1441  0.0388 -0.0504
  193loPI   PO4 3076  16.424   9.626   9.661  0.1843 -0.2127 -0.1505
  193loPI   GL1 3077  16.718   9.669   9.296  0.2259 -0.1897 -0.1516
  193loPI   GL2 3078  16.925   9.334   9.275  0.0727  0.2173 -0.7635
  193loPI   C1A 3079  16.684   9.751   8.842 -0.0059  0.0050  0.0443
  193loPI   C2A 3080  16.741   9.632   8.505 -0.0210 -0.4079  0.2384
  193loPI   C3A 3081  16.928   9.620   8.103  0.0435  0.0448 -0.0938
  193loPI   C4A 3082  16.993   9.572   7.670 -0.0081 -0.1264  0.0962
  193loPI   C5A 3083  17.424   9.428   7.432 -0.4764 -0.0987 -0.1119
  193loPI   C6A 3084  17.818   9.151   7.185 -0.1831  0.1807 -0.1099
  193loPI   C1B 3085  17.032   9.351   8.842  0.0101  0.1480  0.1973
  193loPI   C2B 3086  17.213   9.518   8.500  0.1675  0.1906 -0.0801
  193loPI   C3B 3087  17.194   9.949   8.382  0.1253 -0.2665  0.1438
  193loPI   C4B 3088  16.855  10.162   8.162  0.1416 -0.0036  0.3682
  194loPI    C1 3089  13.175   8.243  10.775 -0.2577  0.1077 -0.2687
  194loPI    C2 3090  13.384   8.520  10.974 -0.2120  0.0243 -0.1999
  194loPI    C3 3091  13.571   8.268  10.726 -0.1944 -0.2088  0.0463
  194loPI   PO4 3092  13.004   8.289  10.540  0.0687 -0.0564 -0.1283
  194loPI   GL1 3093  13.084   8.473  10.130 -0.2921 -0.3753  0.0221
  194loPI   GL2 3094  12.873   8.705  10.198 -0.0285 -0.0221 -0.0309
  194loPI   C1A 3095  12.942   8.490   9.697  0.1861  0.0325 -0.1680
  194loPI   C2A 3096  12.918   8.468   9.372 -0.0844  0.3020  0.0597
  194loPI   C3A 3097  12.919   8.439   8.977 -0.2722  0.1076 -0.3636
  194loPI   C4A 3098  12.825   8.280   8.550 -0.1429  0.0253  0.0546
  194loPI   C5A 3099  12.902   8.381   8.094 -0.0078 -0.3163  0.3547
  194loPI   C6A 3100  13.104   8.096   7.792  0.0248  0.1762 -0.2183
  194loPI   C1B 3101  12.529   8.570   9.911  0.1065  0.1123  0.1249
  194loPI   C2B 3102  12.503   8.634   9.563 -0.0951  0.1429 -0.3551
  194loPI   C3B 3103  12.481   8.628   9.196  0.1426 -0.0037 -0.1846
  194loPI   C4B 3104  12.441   8.590   8.730  0.0866  0.2745 -0.1758
  195loPI    C1 3105  14.665   8.772  10.316 -0.1779  0.1694  0.2613
  195loPI    C2 3106  14.964   9.018  10.417 -0.1530  0.1705  0.1856
  195loPI    C3 3107  15.034   8.627  10.373 -0.2046  0.1408  0.3624
  195loPI   PO4 3108  14.534   8.901  10.039 -0.3065  0.2393  0.0504
  195loPI   GL1 3109  14.570   8.631   9.603  0.0633 -0.2727 -0.1705
  195loPI   GL2 3110  14.669   8.855   9.293  0.0909  0.1375  0.0026
  195loPI   C1A 3111  14.231   8.454   9.418  0.2249  0.1544  0.1135
  195loPI   C2A 3112  14.097   8.243   8.997  0.1473 -0.1811 -0.1229
  195loPI   C3A 3113  14.212   8.469   8.617 -0.1773 -0.0583 -0.0982
  195loPI   C4A 3114  14.233   8.332   8.207  0.0610 -0.0857 -0.1199
  195loPI   C5A 3115  14.035   8.169   7.764 -0.1759 -0.0162 -0.0279
  195loPI   C6A 3116  13.926   8.067   7.266  0.0209  0.2404  0.0858
  195loPI   C1B 3117  14.750   8.859   8.825  0.4194 -0.1684 -0.3379
  195loPI   C2B 3118  14.547   8.793   8.460 -0.1692 -0.2063  0.1818
  195loPI   C3B 3119  14.619   8.657   8.096  0.3374  0.0771 -0.0243
  195loPI   C4B 3120  14.404   8.582   7.770 -0.0444 -0.0949  0.1581
  196loPI    C1 3121   2.767   3.908  10.242 -0.1946  0.1537 -0.0700
  196loPI    C2 3122   2.719   4.217  10.491 -0.0835  0.0455  0.0880
  196loPI    C3 3123   2.599   3.851  10.601  0.1161 -0.0322  0.0501
  196loPI   PO4 3124   2.791   4.037  10.019  0.2474 -0.2751 -0.1032
  196loPI   GL1 3125   3.072   4.138   9.679  0.0437 -0.2365 -0.1437
  196loPI   GL2 3126   3.362   4.342   9.613  0.0747 -0.3544 -0.0430
  196loPI   C1A 3127   2.902   4.175   9.126  0.0501 -0.0405  0.1237
  196loPI   C2A 3128   3.043   4.017   8.725  0.3099 -0.4368  0.1366
  196loPI   C3A 3129   3.086   4.032   8.292  0.0697 -0.0599  0.0189
  196loPI   C4A 3130   3.053   4.079   7.823  0.1742 -0.0984  0.1138
  196loPI   C5A 3131   3.073   4.362   7.427 -0.1836  0.0815 -0.1299
  196loPI   C6A 3132   3.110   4.424   7.050  0.0379  0.0639  0.3518
  196loPI   C1B 3133   3.333   4.465   9.166  0.1712 -0.1227  0.1981
  196loPI   C2B 3134   3.393   4.404   8.705  0.1068  0.0807  0.0505
  196loPI   C3B 3135   3.523   4.341   8.313  0.1681 -0.2918  0.1617
  196loPI   C4B 3136   3.447   4.342   7.841  0.0405 -0.0027  0.3885
  197loPI    C1 3137   6.021   1.594  10.483 -0.3417  0.0468 -0.1267
  197loPI    C2 3138   6.323   1.510  10.731 -0.0836  0.0403 -0.4363
  197loPI    C3 3139   6.084   1.822  10.806 -0.1944 -0.1367 -0.0240
  197loPI   PO4 3140   6.171   1.527  10.205 -0.1422 -0.0721  0.1412
  197loPI   GL1 3141   6.149   1.579   9.785 -0.2006 -0.0307 -0.1402
  197loPI   GL2 3142   6.404   1.481   9.643 -0.1872 -0.0173 -0.0240
  197loPI   C1A 3143   5.960   1.651   9.253  0.2255 -0.2168 -0.0384
  197loPI   C2A 3144   5.778   1.582   8.819 -0.0067  0.4748  0.2146
  197loPI   C3A 3145   5.781   1.612   8.421 -0.1901  0.2029 -0.3795
  197loPI   C4A 3146   5.870   1.689   7.925  0.2717 -0.2123  0.2141
  197loPI   C5A 3147   5.616   1.931   7.605 -0.2338 -0.2345  0.1729
  197loPI   C6A 3148   5.549   1.964   7.272  0.1953 -0.0567 -0.0402
  197loPI   C1B 3149   6.393   1.382   9.189 -0.0099 -0.0207 -0.1751
  197loPI   C2B 3150   6.340   1.510   8.822  0.0000 -0.3545 -0.0393
  197loPI   C3B 3151   6.312   1.481   8.366 -0.1832  0.0367 -0.1110
  197loPI   C4B 3152   6.411   1.384   8.070  0.2556  0.3901 -0.1159
  198loPI    C1 3153  10.671   0.362  10.451  0.0885  0.0297 -0.0483
  198loPI    C2 3154  10.823   0.512  10.789 -0.1219 -0.1246  0.1183
  198loPI    C3 3155  10.446   0.594  10.687 -0.1040 -0.1952 -0.0065
  198loPI   PO4 3156  10.922   0.363  10.257  0.0954  0.0329 -0.2864
  198loPI   GL1 3157  10.966   0.620   9.936  0.0753  0.0799 -0.3114
  198loPI   GL2 3158  11.142   0.741   9.761 -0.1474 -0.1270  0.1367
  198loPI   C1A 3159  10.800   0.435   9.658  0.1026  0.0853  0.2235
  198loPI   C2A 3160  10.759   0.382   9.208  0.2344 -0.1936 -0.0337
  198loPI   C3A 3161  10.771   0.368   8.770 -0.2306  0.4290  0.1436
  198loPI   C4A 3162  10.661   0.429   8.204  0.1130 -0.2336  0.1264
  198loPI   C5A 3163  10.779   0.358   7.774 -0.4787 -0.1894 -0.1867
  198loPI   C6A 3164  11.134   0.487   7.532 -0.5568 -0.0543 -0.2818
  198loPI   C1B 3165  11.190   0.690   9.396  0.1228  0.3469 -0.2275
  198loPI   C2B 3166  11.140   0.720   8.922 -0.0699  0.3600 -0.1953
  198loPI   C3B 3167  11.028   0.729   8.473  0.1669  0.0675 -0.2384
  198loPI   C4B 3168  10.951   0.811   7.948 -0.1202  0.0856 -0.0329
  199loPI    C1 3169  13.141  10.979  10.457  0.2573 -0.1552  0.0590
  199loPI    C2 3170  12.809  11.065  10.663  0.0643 -0.0220 -0.2990
  199loPI    C3 3171  13.152  10.998  10.857 -0.1290  0.0165  0.0663
  199loPI   PO4 3172  13.172  11.133  10.204 -0.0135  0.2498 -0.0016
  199loPI   GL1 3173  13.235  10.999   9.766  0.1974 -0.1918 -0.0002
  199loPI   GL2 3174  13.450  11.068   9.660  0.3135 -0.0353 -0.4723
  199loPI   C1A 3175  12.978  11.075   9.535 -0.0442  0.2433 -0.0926
  199loPI   C2A 3176  12.865  11.246   9.096 -0.0610 -0.1273 -0.0292
  199loPI   C3A 3177  12.697  11.234   8.617 -0.3735 -0.2218  0.0220
  199loPI   C4A 3178  12.581  11.264   8.184 -0.0208 -0.0353 -0.1047
  199loPI   C5A 3179  12.524  11.392   7.794 -0.2033  0.0933  0.3190
  199loPI   C6A 3180  12.212  11.181   7.496  0.0881  0.2935 -0.0369
  199loPI   C1B 3181  13.341  11.070   9.230 -0.2701 -0.0738 -0.2631
  199loPI   C2B 3182  13.241  11.040   8.866 -0.1416  0.1096  0.1898
  199loPI   C3B 3183  13.150  11.097   8.463 -0.0460  0.4244  0.1772
  199loPI   C4B 3184  13.088  11.141   7.989  0.1620  0.0361 -0.0120
  200loPI    C1 3185  14.265  12.066  10.187  0.0382  0.1305  0.0989
  200loPI    C2 3186  14.550  12.311  10.323  0.1057  0.0745  0.0588
  200loPI    C3 3187  14.525  11.937  10.462  0.1369  0.0360 -0.0376
  200loPI   PO4 3188  14.330  12.030   9.949 -0.0928 -0.1123 -0.4723
  200loPI   GL1 3189  14.138  11.685   9.718  0.2721 -0.0317 -0.1131
  200loPI   GL2 3190  13.812  11.521   9.589  0.1705 -0.1631  0.0180
  200loPI   C1A 3191  14.171  11.758   9.214 -0.1117  0.2027  0.0969
  200loPI   C2A 3192  14.093  11.787   8.887  0.0654 -0.1175  0.0442
  200loPI   C3A 3193  14.017  11.719   8.452 -0.1241 -0.1878  0.1215
  200loPI   C4A 3194  13.975  11.797   8.043  0.1176 -0.2414 -0.2038
  200loPI   C5A 3195  13.777  11.843   7.766 -0.3362 -0.0899  0.1878
  200loPI   C6A 3196  13.591  11.802   7.416  0.3047 -0.0537 -0.1474
  200loPI   C1B 3197  13.704  11.435   9.102  0.0812 -0.3183  0.0746
  200loPI   C2B 3198  13.642  11.407   8.650  0.2286 -0.2679  0.0914
  200loPI   C3B 3199  13.493  11.536   8.214 -0.3332  0.1113 -0.1585
  200loPI   C4B 3200  13.464  11.424   7.832 -0.1359  0.1365  0.0755
  201loPI    C1 3201   7.627  13.535  10.794  0.1302 -0.2331 -0.1440
  201loPI    C2 3202   7.590  13.246  11.068 -0.0633  0.0746  0.1632
  201loPI    C3 3203   7.745  13.601  11.170  0.1127  0.1059 -0.1941
  201loPI   PO4 3204   7.799  13.352  10.490 -0.1141 -0.3536 -0.4860
  201loPI   GL1 3205   7.915  13.515  10.077  0.0587  0.0597  0.1765
  201loPI   GL2 3206   8.120  13.292  10.007  0.0554  0.0093  0.1265
  201loPI   C1A 3207   7.782  13.472   9.638 -0.2130  0.0707  0.4092
  201loPI   C2A 3208   7.703  13.508   9.199  0.1274  0.1982 -0.0434
  201loPI   C3A 3209   7.701  13.617   8.786 -0.0445  0.1752  0.0631
  201loPI   C4A 3210   7.759  13.573   8.372  0.1707  0.1642  0.0238
  201loPI   C5A 3211   7.631  13.476   7.993 -0.0523  0.1205 -0.1194
  201loPI   C6A 3212   7.510  13.635   7.603 -0.0427 -0.1094  0.1178
  201loPI   C1B 3213   8.332  13.327   9.591  0.1619 -0.2037  0.3213
  201loPI   C2B 3214   8.295  13.434   9.094 -0.0684  0.4736 -0.0175
  201loPI   C3B 3215   8.177  13.483   8.683  0.0873  0.2130 -0.1131
  201loPI   C4B 3216   8.174  13.335   8.297 -0.1420  0.0699  0.5000
  202loPI    C1 3217   5.589  11.661  10.782 -0.2441  0.1632  0.0133
  202loPI    C2 3218   5.754  12.009  10.890  0.0105  0.0123  0.1200
  202loPI    C3 3219   5.503  11.821  11.139  0.0390  0.0149  0.1507
  202loPI   PO4 3220   5.559  11.727  10.441 -0.1109  0.0029  0.0463
  202loPI   GL1 3221   5.473  11.749  10.070  0.0460 -0.1527 -0.3972
  202loPI   GL2 3222   5.241  11.861   9.931  0.0687 -0.0524 -0.5211
  202loPI   C1A 3223   5.691  11.756   9.601 -0.1329  0.2768 -0.1423
  202loPI   C2A 3224   5.759  11.809   9.186  0.0915  0.3333 -0.1532
  202loPI   C3A 3225   5.610  11.786   8.782 -0.0271 -0.0248 -0.2914
  202loPI   C4A 3226   5.702  11.767   8.314  0.5292 -0.2782  0.0919
  202loPI   C5A 3227   5.645  11.886   7.921  0.0951 -0.1763 -0.0047
  202loPI   C6A 3228   5.647  12.382   7.866  0.1031  0.0991 -0.3440
  202loPI   C1B 3229   5.294  11.969   9.467 -0.2113  0.1133 -0.1554
  202loPI   C2B 3230   5.244  12.013   9.081  0.1482  0.0348  0.1860
  202loPI   C3B 3231   5.160  12.009   8.602 -0.2666 -0.1652 -0.2218
  202loPI   C4B 3232   5.135  11.995   8.132  0.3034 -0.0206 -0.1620
  203loPI    C1 3233  16.552  16.063   9.842 -0.0765 -0.0857  0.1903
  203loPI    C2 3234  16.808  16.275  10.065 -0.1060  0.0297  0.1148
  203loPI    C3 3235  16.481  16.450   9.913 -0.1251 -0.0670  0.0432
  203loPI   PO4 3236  16.733  15.978   9.647 -0.1718 -0.1960 -0.2905
  203loPI   GL1 3237  16.660  15.955   9.181  0.1424 -0.2453 -0.2978
  203loPI   GL2 3238  16.881  16.130   9.186  0.0139  0.2833  0.0768
  203loPI   C1A 3239  16.298  16.146   8.973 -0.4590 -0.3155 -0.4570
  203loPI   C2A 3240  16.127  16.174   8.617 -0.0144 -0.2885 -0.2406
  203loPI   C3A 3241  16.068  16.252   8.212  0.0370  0.4438  0.2749
  203loPI   C4A 3242  16.020  16.101   7.769  0.3469 -0.0097 -0.0417
  203loPI   C5A 3243  15.855  16.191   7.484 -0.3250  0.1847  0.0232
  203loPI   C6A 3244  15.679  16.096   7.123  0.0282  0.1385  0.0280
  203loPI   C1B 3245  16.703  16.078   8.686  0.0490  0.1085  0.2707
  203loPI   C2B 3246  16.575  16.196   8.301 -0.2146  0.1755 -0.2504
  203loPI   C3B 3247  16.510  16.172   7.884  0.0073  0.0927  0.0170
  203loPI   C4B 3248  16.394  16.207   7.384 -0.0410 -0.0781 -0.0396
  204loPI    C1 3249  10.826  13.891  10.351 -0.0960  0.0797  0.2800
  204loPI    C2 3250  10.532  14.161  10.339 -0.1667  0.0102  0.4241
  204loPI    C3 3251  10.784  14.154  10.650  0.0227  0.1052  0.2747
  204loPI   PO4 3252  10.730  13.642  10.228  0.2054 -0.1800  0.1032
  204loPI   GL1 3253  10.553  13.652   9.748 -0.0474 -0.0916 -0.1048
  204loPI   GL2 3254  10.582  14.027   9.788  0.1311  0.2632  0.0101
  204loPI   C1A 3255  10.624  13.657   9.307 -0.1148  0.2777  0.3987
  204loPI   C2A 3256  10.550  13.635   8.875  0.0238 -0.1380 -0.0549
  204loPI   C3A 3257  10.465  13.551   8.450 -0.1770  0.2776 -0.1162
  204loPI   C4A 3258  10.592  13.550   8.013 -0.2936  0.0551  0.2603
  204loPI   C5A 3259  10.966  13.323   7.835 -0.1475  0.4521  0.0641
  204loPI   C6A 3260  11.308  13.270   7.641 -0.1812 -0.2912  0.1705
  204loPI   C1B 3261  10.577  14.187   9.350 -0.1246  0.2342 -0.0422
  204loPI   C2B 3262  10.428  14.130   8.967 -0.0101  0.3470 -0.0341
  204loPI   C3B 3263  10.380  14.076   8.568 -0.0997 -0.0305  0.1212
  204loPI   C4B 3264  10.429  14.031   8.165 -0.2714 -0.3008  0.0333
  205loPI    C1 3265  18.542  17.623   9.656 -0.0697 -0.1931 -0.0750
  205loPI    C2 3266  18.783  17.666   9.972  0.0810  0.0942 -0.2251
  205loPI    C3 3267  18.486  17.398   9.982  0.1781 -0.0061  0.1000
  205loPI   PO4 3268  18.643  17.743   9.485  0.3476 -0.1409  0.0602
  205loPI   GL1 3269  18.577  17.707   9.099 -0.2000 -0.0686  0.0760
  205loPI   GL2 3270  18.837  17.899   8.904 -0.3129  0.0997 -0.4860
  205loPI   C1A 3271  18.449  17.748   8.704 -0.1219  0.0448 -0.1109
  205loPI   C2A 3272  18.420  17.919   8.304  0.0602 -0.0063  0.0029
  205loPI   C3A 3273  18.538  18.083   7.795  0.3323 -0.1459  0.0901
  205loPI   C4A 3274  18.437  18.342   7.433 -0.3020 -0.1564  0.1193
  205loPI   C5A 3275  18.566  18.703   7.223 -0.1389 -0.3414  0.0854
  205loPI   C6A 3276  18.828  18.930   6.985 -0.1768  0.0267  0.3109
  205loPI   C1B 3277  18.812  18.127   8.586 -0.1464  0.2098 -0.1856
  205loPI   C2B 3278  18.873  18.114   8.141 -0.0307 -0.0395 -0.0779
  205loPI   C3B 3279  19.093  18.105   7.785 -0.1249  0.0519  0.0152
  205loPI   C4B 3280  18.981  18.255   7.388 -0.1586  0.0422  0.1204
  206loPI    C1 3281  15.145   9.146   9.801 -0.1329  0.1449 -0.1195
  206loPI    C2 3282  15.129   8.877   9.506  0.2766 -0.0180  0.0005
  206loPI    C3 3283  15.059   8.764   9.883 -0.0168  0.1431 -0.0032
  206loPI   PO4 3284  15.133   9.370   9.675 -0.0709  0.3990  0.0399
  206loPI   GL1 3285  14.763   9.622   9.384 -0.1024 -0.0345 -0.0691
  206loPI   GL2 3286  14.706   9.339   9.133 -0.1187  0.1451  0.0083
  206loPI   C1A 3287  14.481   9.793   9.094 -0.0820  0.0522 -0.1261
  206loPI   C2A 3288  14.434   9.938   8.742  0.2188  0.1213 -0.0004
  206loPI   C3A 3289  14.311   9.844   8.348  0.2193  0.1248 -0.3899
  206loPI   C4A 3290  14.209   9.642   7.853  0.2865  0.0009  0.1348
  206loPI   C5A 3291  14.231   9.354   7.506 -0.1572 -0.3836  0.1177
  206loPI   C6A 3292  14.631   9.327   7.276 -0.1606 -0.0921  0.0200
  206loPI   C1B 3293  14.494   9.365   8.722 -0.1397  0.3217  0.1710
  206loPI   C2B 3294  14.410   9.318   8.278  0.1968 -0.0719  0.0049
  206loPI   C3B 3295  14.624   9.341   7.863 -0.1996  0.1109 -0.2293
  206loPI   C4B 3296  15.023   9.443   7.644 -0.4475 -0.1485 -0.4030
  207loPI    C1 3297   9.701   1.814  10.848  0.0886 -0.0498  0.2415
  207loPI    C2 3298   9.509   1.535  11.062 -0.1890  0.0059  0.0691
  207loPI    C3 3299   9.568   1.900  11.215  0.0694 -0.1082  0.2483
  207loPI   PO4 3300   9.563   1.827  10.541  0.0423  0.2155  0.1726
  207loPI   GL1 3301   9.533   1.947  10.208 -0.2945 -0.1796 -0.3433
  207loPI   GL2 3302   9.377   2.256  10.026 -0.0357  0.0391  0.1374
  207loPI   C1A 3303   9.625   1.806   9.786  0.0470 -0.2123 -0.0512
  207loPI   C2A 3304   9.543   1.599   9.394 -0.1138  0.1115  0.1378
  207loPI   C3A 3305   9.549   1.759   8.880 -0.0550  0.1227 -0.1267
  207loPI   C4A 3306   9.379   1.881   8.359  0.1059  0.1230  0.2038
  207loPI   C5A 3307   9.076   2.043   7.943  0.2639 -0.0860 -0.3608
  207loPI   C6A 3308   8.747   2.382   7.855 -0.1853  0.2983  0.0224
  207loPI   C1B 3309   9.433   2.191   9.523 -0.3674 -0.1114  0.2424
  207loPI   C2B 3310   9.499   2.216   9.069  0.2827 -0.0658  0.1182
  207loPI   C3B 3311   9.320   2.277   8.680  0.0845  0.0225  0.2486
  207loPI   C4B 3312   9.519   2.315   8.220 -0.1630  0.0189 -0.0602
  208loPI    C1 3313  12.603  14.129  10.384  0.3389  0.0245  0.1741
  208loPI    C2 3314  12.342  14.067  10.681  0.1168 -0.1040 -0.0442
  208loPI    C3 3315  12.714  13.922  10.708  0.1066 -0.0922  0.1806
  208loPI   PO4 3316  12.435  14.139  10.224  0.2260 -0.1499  0.1420
  208loPI   GL1 3317  12.260  14.091   9.821  0.1245 -0.0642 -0.1341
  208loPI   GL2 3318  11.957  14.077   9.726  0.3358  0.0690  0.1502
  208loPI   C1A 3319  12.380  14.037   9.432  0.2535 -0.1050  0.2978
  208loPI   C2A 3320  12.264  13.859   8.973  0.2144 -0.0788 -0.0098
  208loPI   C3A 3321  12.315  13.830   8.504  0.1616 -0.1398 -0.1542
  208loPI   C4A 3322  12.353  13.966   8.141 -0.2194  0.1476  0.0309
  208loPI   C5A 3323  12.533  14.258   7.955 -0.1149 -0.1396  0.1877
  208loPI   C6A 3324  12.651  14.214   7.534 -0.0883 -0.0522  0.0515
  208loPI   C1B 3325  11.876  14.127   9.331 -0.0910 -0.2042  0.1749
  208loPI   C2B 3326  11.792  14.071   8.915  0.2837  0.4480 -0.0740
  208loPI   C3B 3327  11.776  14.076   8.569 -0.2894  0.0267 -0.0719
  208loPI   C4B 3328  11.729  14.026   8.090  0.3964  0.0926  0.0463
  209loPI    C1 3329  10.447  12.878  10.541 -0.4887  0.1374 -0.0159
  209loPI    C2 3330  10.393  13.201  10.771 -0.1832  0.0337  0.2086
  209loPI    C3 3331  10.405  12.837  10.937 -0.0677 -0.0528  0.0146
  209loPI   PO4 3332  10.320  12.855  10.375  0.0679  0.1979  0.4271
  209loPI   GL1 3333  10.357  12.826   9.918 -0.3696 -0.2083  0.0095
  209loPI   GL2 3334  10.494  12.638   9.956 -0.0353  0.3154 -0.1607
  209loPI   C1A 3335  10.297  12.677   9.434 -0.1842 -0.1229  0.2916
  209loPI   C2A 3336  10.205  12.612   8.974 -0.3621 -0.0635 -0.1795
  209loPI   C3A 3337  10.113  12.754   8.580  0.0365 -0.0171 -0.4891
  209loPI   C4A 3338  10.072  12.703   8.214  0.4151 -0.0281 -0.0111
  209loPI   C5A 3339  10.185  12.629   7.778  0.1715 -0.0802 -0.1964
  209loPI   C6A 3340  10.502  12.395   7.640 -0.0610  0.1400  0.0350
  209loPI   C1B 3341  10.801  12.608   9.529  0.0054 -0.1203  0.1623
  209loPI   C2B 3342  10.742  12.522   9.103 -0.3940  0.2405 -0.2245
  209loPI   C3B 3343  10.593  12.616   8.665 -0.1395 -0.1114  0.2262
  209loPI   C4B 3344  10.621  12.533   8.129 -0.0760 -0.1051  0.0694
  210loPI    C1 3345  16.946  13.878   9.728  0.0315  0.1849 -0.0139
  210loPI    C2 3346  16.697  13.676   9.967 -0.1788  0.3650 -0.0782
  210loPI    C3 3347  16.955  13.939  10.123 -0.0417  0.1933 -0.0135
  210loPI   PO4 3348  16.953  13.706   9.497 -0.2209  0.2818 -0.1440
  210loPI   GL1 3349  16.934  13.653   9.196 -0.1547  0.0143  0.0931
  210loPI   GL2 3350  17.079  13.297   9.053 -0.0857 -0.2787 -0.2459
  210loPI   C1A 3351  16.973  13.905   8.859  0.0520  0.1963  0.3776
  210loPI   C2A 3352  17.068  13.784   8.408 -0.0853 -0.1741 -0.1288
  210loPI   C3A 3353  17.115  13.778   7.951  0.0060 -0.0364 -0.0893
  210loPI   C4A 3354  17.218  13.632   7.500 -0.1107  0.0456  0.4411
  210loPI   C5A 3355  17.314  13.775   7.058 -0.2755  0.1785 -0.1217
  210loPI   C6A 3356  17.264  13.856   6.696  0.1227  0.0185 -0.2103
  210loPI   C1B 3357  17.295  13.435   8.623  0.1588 -0.1531  0.0132
  210loPI   C2B 3358  17.400  13.465   8.189 -0.0398 -0.2999 -0.0555
  210loPI   C3B 3359  17.677  13.441   7.786  0.1515 -0.0977 -0.4932
  210loPI   C4B 3360  17.769  13.420   7.374 -0.0785 -0.0829 -0.1058
  211loPI    C1 3361  12.061  12.395  11.009 -0.1467 -0.0769 -0.0855
  211loPI    C2 3362  12.004  12.765  10.869  0.3581  0.0698  0.0761
  211loPI    C3 3363  11.830  12.651  11.211  0.1271  0.1234 -0.0215
  211loPI   PO4 3364  12.173  12.275  10.659  0.3293 -0.1493 -0.0279
  211loPI   GL1 3365  12.126  12.274  10.179  0.0090  0.1929 -0.3022
  211loPI   GL2 3366  12.180  11.977  10.168  0.2757  0.4478 -0.2441
  211loPI   C1A 3367  11.926  12.298   9.789 -0.2413 -0.2146  0.0300
  211loPI   C2A 3368  11.742  12.301   9.346  0.0117 -0.1842  0.2235
  211loPI   C3A 3369  11.624  12.145   9.006  0.2065 -0.0754  0.0080
  211loPI   C4A 3370  11.574  12.317   8.569 -0.0468 -0.0233 -0.0235
  211loPI   C5A 3371  11.586  12.187   8.154 -0.0512 -0.1284  0.2769
  211loPI   C6A 3372  11.723  11.823   8.028 -0.1845  0.0347  0.0330
  211loPI   C1B 3373  11.813  11.822   9.843  0.1589  0.0149 -0.0136
  211loPI   C2B 3374  11.715  11.758   9.393  0.0738  0.2097 -0.0514
  211loPI   C3B 3375  11.730  11.650   8.904  0.1078 -0.1232  0.1557
  211loPI   C4B 3376  11.753  11.792   8.569 -0.0346  0.2128  0.0251
  212loPI    C1 3377  13.989   9.573  10.636 -0.0049 -0.2768 -0.0181
  212loPI    C2 3378  13.698   9.764  10.833  0.0843  0.0599 -0.2037
  212loPI    C3 3379  13.870   9.441  10.995 -0.1747  0.0427  0.0473
  212loPI   PO4 3380  13.922   9.571  10.335 -0.3339 -0.0582 -0.0130
  212loPI   GL1 3381  13.680   9.510   9.957  0.4903  0.0556 -0.0927
  212loPI   GL2 3382  13.654   9.181   9.816 -0.3875  0.1759 -0.3091
  212loPI   C1A 3383  13.639   9.600   9.613  0.1985  0.1524  0.0764
  212loPI   C2A 3384  13.647   9.671   9.215 -0.2793  0.0682 -0.0608
  212loPI   C3A 3385  13.579   9.588   8.917  0.0110  0.0847 -0.1329
  212loPI   C4A 3386  13.488   9.614   8.434 -0.1039 -0.4419 -0.1414
  212loPI   C5A 3387  13.378   9.640   8.033 -0.2032  0.1953  0.1218
  212loPI   C6A 3388  13.067   9.640   7.706  0.1649  0.4200 -0.2828
  212loPI   C1B 3389  13.804   9.202   9.369  0.1169 -0.1220 -0.2101
  212loPI   C2B 3390  13.708   9.115   9.015  0.0878  0.1808 -0.0511
  212loPI   C3B 3391  13.595   9.091   8.565  0.0405  0.1880 -0.0448
  212loPI   C4B 3392  13.551   8.998   8.038  0.3060 -0.1105 -0.1544
  213loPI    C1 3393   8.937   1.256  10.713 -0.1267 -0.0508 -0.1011
  213loPI    C2 3394   8.767   0.989  10.957  0.0343 -0.1032 -0.0451
  213loPI    C3 3395   9.097   1.184  11.072 -0.1753  0.2437 -0.0178
  213loPI   PO4 3396   8.912   1.172  10.515  0.1438  0.2597  0.2228
  213loPI   GL1 3397   8.774   1.287  10.114 -0.0726 -0.2020  0.4112
  213loPI   GL2 3398   8.431   1.166  10.192  0.1091  0.1762 -0.0893
  213loPI   C1A 3399   8.647   1.517   9.701  0.0676  0.3271 -0.1359
  213loPI   C2A 3400   8.723   1.586   9.274  0.1253 -0.1744  0.3128
  213loPI   C3A 3401   8.634   1.477   8.877  0.1404  0.1113  0.1066
  213loPI   C4A 3402   8.516   1.627   8.475  0.2370 -0.0044  0.0453
  213loPI   C5A 3403   8.269   1.506   8.126 -0.2344  0.0402 -0.1602
  213loPI   C6A 3404   8.129   1.588   7.740 -0.2152  0.1566 -0.1722
  213loPI   C1B 3405   8.246   1.251   9.827 -0.2880 -0.1819  0.2235
  213loPI   C2B 3406   8.209   1.143   9.343 -0.0201  0.0414 -0.1251
  213loPI   C3B 3407   8.201   1.225   8.965 -0.0204  0.2812  0.2620
  213loPI   C4B 3408   8.282   1.199   8.530 -0.2510  0.3331  0.0426
  214loPI    C1 3409   2.173  13.033  10.257 -0.1999  0.3091 -0.0589
  214loPI    C2 3410   2.321  13.359  10.435  0.0864  0.2665 -0.2127
  214loPI    C3 3411   2.400  12.996  10.584 -0.0016  0.2518 -0.2011
  214loPI   PO4 3412   2.328  13.084   9.991 -0.2925  0.0698 -0.2351
  214loPI   GL1 3413   2.474  13.168   9.687 -0.3765  0.4815 -0.1116
  214loPI   GL2 3414   2.296  12.837   9.577  0.0938 -0.0839 -0.4070
  214loPI   C1A 3415   2.558  13.252   9.278 -0.3402  0.2045  0.1597
  214loPI   C2A 3416   2.527  13.274   8.899  0.0591  0.0033 -0.0655
  214loPI   C3A 3417   2.564  13.296   8.432  0.1524 -0.1529 -0.1589
  214loPI   C4A 3418   2.557  13.223   7.982 -0.2188  0.2216  0.0923
  214loPI   C5A 3419   2.298  12.935   7.822  0.2545  0.3211  0.0571
  214loPI   C6A 3420   1.961  12.770   7.524  0.0274 -0.2540 -0.0936
  214loPI   C1B 3421   2.166  13.001   9.133 -0.3310 -0.2421 -0.0070
  214loPI   C2B 3422   2.152  12.968   8.690 -0.0636  0.1302 -0.0145
  214loPI   C3B 3423   2.072  13.039   8.252  0.2982 -0.1348 -0.1121
  214loPI   C4B 3424   1.823  12.925   7.961 -0.0672 -0.0439  0.1664
  215loPI    C1 3425  10.360  11.544  10.561  0.0137 -0.0770  0.0699
  215loPI    C2 3426  10.494  11.429  10.920 -0.0287  0.2380  0.1895
  215loPI    C3 3427  10.111  11.534  10.874 -0.0525  0.0838  0.0233
  215loPI   PO4 3428  10.481  11.773  10.514 -0.0752 -0.2799  0.2153
  215loPI   GL1 3429  10.522  11.677  10.062  0.0038 -0.2058  0.4358
  215loPI   GL2 3430  10.133  11.634  10.110  0.1382  0.0082 -0.0596
  215loPI   C1A 3431  10.558  11.800   9.747 -0.3160 -0.2046 -0.1486
  215loPI   C2A 3432  10.477  11.699   9.320 -0.0321  0.0772 -0.1289
  215loPI   C3A 3433  10.450  11.646   8.841  0.2175 -0.4673 -0.0766
  215loPI   C4A 3434  10.271  11.754   8.426 -0.0814 -0.0837  0.3123
  215loPI   C5A 3435  10.280  11.569   8.073 -0.0031 -0.0442 -0.0965
  215loPI   C6A 3436  10.668  11.432   7.818  0.1800 -0.2455 -0.3650
  215loPI   C1B 3437  10.171  11.411   9.667  0.1385 -0.0949 -0.3750
  215loPI   C2B 3438  10.093  11.325   9.277 -0.0685  0.2591 -0.0275
  215loPI   C3B 3439  10.099  11.251   8.848 -0.3759  0.0960  0.1649
  215loPI   C4B 3440  10.012  11.272   8.369 -0.0837  0.0630  0.1512
  216loPI    C1 3441   3.533  17.655  10.264 -0.0692  0.0093  0.0172
  216loPI    C2 3442   3.482  17.371  10.541  0.0519  0.0443  0.0764
  216loPI    C3 3443   3.377  17.749  10.620  0.0628  0.0498  0.0651
  216loPI   PO4 3444   3.579  17.476  10.094  0.0972 -0.0895  0.0206
  216loPI   GL1 3445   3.726  17.277   9.709  0.0754  0.0512 -0.0496
  216loPI   GL2 3446   4.017  17.249   9.676 -0.1515 -0.0489 -0.1268
  216loPI   C1A 3447   3.636  17.350   9.339  0.0724 -0.2943 -0.2070
  216loPI   C2A 3448   3.746  17.481   9.016  0.2283 -0.2027 -0.3838
  216loPI   C3A 3449   3.902  17.628   8.635  0.1102  0.1680 -0.1637
  216loPI   C4A 3450   3.977  17.809   8.226 -0.0196 -0.1263 -0.1133
  216loPI   C5A 3451   3.928  17.899   7.774  0.2696  0.0468 -0.1648
  216loPI   C6A 3452   3.950  17.857   7.356  0.3486  0.1226 -0.1529
  216loPI   C1B 3453   4.132  17.084   9.367 -0.2304 -0.0585 -0.0240
  216loPI   C2B 3454   4.090  17.146   8.948 -0.0006  0.0820  0.2103
  216loPI   C3B 3455   4.140  17.254   8.456  0.0462  0.2104  0.1359
  216loPI   C4B 3456   3.987  17.337   8.054 -0.1036  0.0613 -0.3294
  217loPI    C1 3457  12.794   2.979  10.544  0.1042 -0.1879 -0.2458
  217loPI    C2 3458  13.192   2.956  10.509  0.1140 -0.2509 -0.0987
  217loPI    C3 3459  13.014   2.845  10.850 -0.0357 -0.2866 -0.1874
  217loPI   PO4 3460  12.772   2.937  10.251  0.1132 -0.0458 -0.6246
  217loPI   GL1 3461  12.679   2.964   9.824 -0.0406  0.0623  0.0640
  217loPI   GL2 3462  12.599   3.230   9.847  0.3032  0.1019  0.1255
  217loPI   C1A 3463  12.627   2.703   9.542 -0.2531 -0.2030 -0.1275
  217loPI   C2A 3464  12.547   2.563   9.149 -0.1400 -0.1565 -0.4119
  217loPI   C3A 3465  12.609   2.672   8.713  0.2729  0.0113  0.3275
  217loPI   C4A 3466  12.552   2.658   8.284  0.0395  0.0267 -0.1170
  217loPI   C5A 3467  12.341   2.856   7.940  0.2611 -0.4141 -0.1138
  217loPI   C6A 3468  11.960   2.785   7.716  0.0143 -0.1520 -0.0045
  217loPI   C1B 3469  12.521   3.148   9.346 -0.1190  0.1189 -0.2564
  217loPI   C2B 3470  12.524   3.123   8.959  0.1598  0.0477  0.2217
  217loPI   C3B 3471  12.417   3.222   8.544  0.1470  0.0755  0.2583
  217loPI   C4B 3472  12.395   3.466   8.146 -0.1826 -0.0862  0.1282
  218loPI    C1 3473   9.213  14.942  10.509  0.0070  0.0382 -0.0389
  218loPI    C2 3474   9.300  14.603  10.703 -0.3038  0.0277  0.0866
  218loPI    C3 3475   9.423  14.955  10.849 -0.2238 -0.0088  0.1074
  218loPI   PO4 3476   8.948  14.889  10.446  0.1909  0.0417 -0.1004
  218loPI   GL1 3477   8.751  14.938  10.098 -0.0393 -0.5301 -0.2200
  218loPI   GL2 3478   8.483  14.864   9.977  0.3914  0.3880 -0.0859
  218loPI   C1A 3479   8.995  15.061   9.679  0.0082  0.0343 -0.0711
  218loPI   C2A 3480   8.917  15.151   9.229  0.2402  0.4089 -0.0622
  218loPI   C3A 3481   8.895  15.081   8.879  0.0296 -0.0555 -0.2084
  218loPI   C4A 3482   8.734  15.112   8.440 -0.0498 -0.1026 -0.0279
  218loPI   C5A 3483   8.657  15.185   8.033 -0.0888 -0.0801 -0.3063
  218loPI   C6A 3484   8.687  15.527   7.709  0.1271 -0.1379  0.4698
  218loPI   C1B 3485   8.563  14.870   9.512 -0.0167 -0.2848 -0.1408
  218loPI   C2B 3486   8.481  14.666   9.177 -0.1378  0.2449 -0.2948
  218loPI   C3B 3487   8.399  14.756   8.803  0.1811 -0.0116  0.3412
  218loPI   C4B 3488   8.327  14.725   8.436 -0.1244 -0.4924 -0.0483
  219loPI    C1 3489  12.775   1.071  10.248  0.0876  0.2997  0.1005
  219loPI    C2 3490  12.814   0.931  10.621 -0.0637  0.0826  0.0365
  219loPI    C3 3491  12.874   1.319  10.546  0.0558  0.1110  0.2705
  219loPI   PO4 3492  12.537   1.065  10.212  0.2385 -0.2529 -0.3430
  219loPI   GL1 3493  12.214   1.346   9.961 -0.2954  0.1431  0.0506
  219loPI   GL2 3494  12.035   1.121  10.111 -0.0244 -0.0824 -0.1636
  219loPI   C1A 3495  12.110   1.509   9.663  0.0830  0.0238  0.3495
  219loPI   C2A 3496  11.968   1.363   9.284  0.3503  0.0240 -0.0088
  219loPI   C3A 3497  11.859   1.452   8.874 -0.1460 -0.2518  0.3422
  219loPI   C4A 3498  11.873   1.380   8.372  0.0133 -0.1915 -0.2919
  219loPI   C5A 3499  11.627   1.560   8.026 -0.0244 -0.0913 -0.0465
  219loPI   C6A 3500  11.246   1.458   7.943 -0.2802  0.0148 -0.0600
  219loPI   C1B 3501  12.128   0.970   9.670 -0.3537 -0.0951  0.0703
  219loPI   C2B 3502  12.050   0.901   9.293 -0.1280 -0.0879  0.2401
  219loPI   C3B 3503  11.986   0.924   8.849 -0.0609  0.1356  0.0848
  219loPI   C4B 3504  12.018   0.871   8.398  0.2193  0.1305  0.0029
  220loPI    C1 3505   2.747  13.870  10.170 -0.2594  0.0989 -0.2354
  220loPI    C2 3506   2.556  13.541  10.048 -0.2870  0.0414 -0.0403
  220loPI    C3 3507   2.347  13.854  10.182 -0.2537  0.0714 -0.0586
  220loPI   PO4 3508   2.955  13.946   9.977 -0.0767 -0.3073 -0.4701
  220loPI   GL1 3509   3.220  14.188   9.791 -0.0388  0.0006  0.1971
  220loPI   GL2 3510   2.943  14.284   9.646  0.0528  0.0165  0.3393
  220loPI   C1A 3511   3.308  13.968   9.437 -0.3367  0.0542  0.0412
  220loPI   C2A 3512   3.378  13.976   9.096  0.3428 -0.0945  0.3427
  220loPI   C3A 3513   3.444  14.099   8.779 -0.0242 -0.1730 -0.1368
  220loPI   C4A 3514   3.363  14.038   8.407 -0.0429  0.3439 -0.2422
  220loPI   C5A 3515   3.451  14.019   7.926 -0.0284  0.1280  0.0211
  220loPI   C6A 3516   3.239  13.769   7.636  0.0372  0.2506 -0.2096
  220loPI   C1B 3517   2.953  14.259   9.189  0.0381 -0.0298  0.2189
  220loPI   C2B 3518   2.917  14.251   8.681 -0.0873  0.0620  0.0349
  220loPI   C3B 3519   2.904  14.197   8.288  0.3852  0.3407 -0.1659
  220loPI   C4B 3520   2.905  14.168   7.934  0.1170  0.1007  0.1698
  221loPI    C1 3521  10.567  17.595  10.153 -0.1140  0.1354  0.0476
  221loPI    C2 3522  10.360  17.710  10.475 -0.2367 -0.1433  0.0714
  221loPI    C3 3523  10.273  17.864  10.116 -0.0699  0.2016  0.1746
  221loPI   PO4 3524  10.591  17.314  10.125 -0.1848  0.0285 -0.0997
  221loPI   GL1 3525  10.334  17.228   9.815 -0.5323 -0.2424  0.0882
  221loPI   GL2 3526  10.311  17.541   9.748  0.1159  0.1279  0.0286
  221loPI   C1A 3527  10.354  17.043   9.443  0.2023  0.2396 -0.0653
  221loPI   C2A 3528  10.200  17.060   9.026 -0.0726  0.2299  0.2232
  221loPI   C3A 3529  10.287  17.012   8.654 -0.1481  0.3725  0.0212
  221loPI   C4A 3530  10.281  17.078   8.235  0.2815 -0.2268 -0.0805
  221loPI   C5A 3531  10.529  16.938   7.912 -0.2745  0.3240  0.2107
  221loPI   C6A 3532  10.397  16.615   7.624  0.0350 -0.0383  0.3640
  221loPI   C1B 3533  10.137  17.486   9.282  0.2482 -0.0402 -0.2287
  221loPI   C2B 3534  10.074  17.529   8.912 -0.1451  0.1101 -0.0436
  221loPI   C3B 3535  10.150  17.512   8.510  0.1982  0.1510  0.1652
  221loPI   C4B 3536  10.049  17.517   8.128 -0.3187  0.0959  0.0481
  222loPI    C1 3537   5.159   8.476   9.973 -0.2544 -0.1452 -0.1347
  222loPI    C2 3538   5.176   8.778  10.235  0.1566 -0.1973 -0.0946
  222loPI    C3 3539   4.822   8.626  10.127 -0.0465  0.1949  0.0010
  222loPI   PO4 3540   5.430   8.438   9.990 -0.1877  0.1420 -0.0558
  222loPI   GL1 3541   5.605   8.198   9.849  0.0165  0.2443 -0.3199
  222loPI   GL2 3542   5.519   7.972   9.731  0.0855 -0.0536  0.0865
  222loPI   C1A 3543   5.796   8.233   9.397  0.3944  0.3373  0.1032
  222loPI   C2A 3544   5.873   8.348   9.021 -0.0186 -0.0758  0.1248
  222loPI   C3A 3545   6.064   8.419   8.641 -0.1529 -0.0949 -0.1375
  222loPI   C4A 3546   6.083   8.360   8.252 -0.2391 -0.1259 -0.0428
  222loPI   C5A 3547   6.125   8.376   7.938  0.1522 -0.0933 -0.0655
  222loPI   C6A 3548   6.150   8.709   7.619  0.2197 -0.0015 -0.1139
  222loPI   C1B 3549   5.354   8.087   9.289 -0.2662  0.3903 -0.1551
  222loPI   C2B 3550   5.461   7.990   8.922 -0.0097  0.0057  0.1933
  222loPI   C3B 3551   5.641   8.059   8.394 -0.1451 -0.0030 -0.0947
  222loPI   C4B 3552   5.642   7.999   7.884  0.1318 -0.0628  0.2525
  223loPI    C1 3553  14.067  18.066   9.774  0.2827  0.1053  0.0216
  223loPI    C2 3554  14.184  18.121  10.153  0.1408  0.3247  0.0356
  223loPI    C3 3555  14.306  17.799   9.950  0.0758  0.1143  0.3249
  223loPI   PO4 3556  14.033  18.324   9.553 -0.2942  0.0104 -0.0091
  223loPI   GL1 3557  13.842  18.252   9.223  0.1362  0.3434 -0.3007
  223loPI   GL2 3558  13.905  17.918   9.073  0.3405  0.1121 -0.1550
  223loPI   C1A 3559  13.693  18.343   8.804 -0.1152 -0.0520 -0.0517
  223loPI   C2A 3560  13.721  18.299   8.456 -0.0498  0.0200  0.2186
  223loPI   C3A 3561  13.655  18.261   7.988 -0.1325 -0.2375 -0.1955
  223loPI   C4A 3562  13.453  18.170   7.587 -0.0275  0.1089  0.1019
  223loPI   C5A 3563  13.636  18.014   7.288 -0.0502 -0.1439  0.0525
  223loPI   C6A 3564  13.931  18.130   6.870  0.1080  0.0654 -0.3497
  223loPI   C1B 3565  13.883  17.762   8.648  0.1249  0.0882  0.2337
  223loPI   C2B 3566  13.865  17.780   8.196  0.1326 -0.4679 -0.0521
  223loPI   C3B 3567  13.658  17.703   7.775 -0.2774  0.0775 -0.1583
  223loPI   C4B 3568  13.535  17.490   7.328  0.1726  0.1103  0.1079
  224loPI    C1 3569   6.828  13.095  10.365  0.0097  0.0097 -0.0227
  224loPI    C2 3570   7.085  12.794  10.426  0.0803  0.0773  0.0163
  224loPI    C3 3571   6.755  12.823  10.649  0.0431 -0.0045 -0.0276
  224loPI   PO4 3572   6.735  13.089  10.095 -0.2804  0.4994  0.0171
  224loPI   GL1 3573   6.847  12.783   9.811 -0.0108  0.1668 -0.0786
  224loPI   GL2 3574   6.486  12.887   9.700 -0.4123 -0.2243 -0.0591
  224loPI   C1A 3575   6.914  12.897   9.340 -0.2281 -0.2170 -0.0894
  224loPI   C2A 3576   6.977  12.773   8.966 -0.2417 -0.1422  0.0696
  224loPI   C3A 3577   6.855  12.782   8.547  0.2786  0.3928  0.1861
  224loPI   C4A 3578   7.012  12.846   8.056 -0.0136 -0.3365  0.0895
  224loPI   C5A 3579   6.702  13.060   7.796 -0.1228  0.2095  0.3365
  224loPI   C6A 3580   6.227  12.961   7.651  0.1369 -0.0448  0.3270
  224loPI   C1B 3581   6.413  12.997   9.335 -0.0703  0.3036  0.0965
  224loPI   C2B 3582   6.345  13.009   8.917 -0.2681  0.0084  0.2314
  224loPI   C3B 3583   6.373  12.997   8.586 -0.2343  0.1654 -0.1048
  224loPI   C4B 3584   6.396  13.071   8.138 -0.1124  0.3959  0.4537
  225loPI    C1 3585  16.219   5.291   9.687  0.0583  0.1458  0.0184
  225loPI    C2 3586  16.053   5.071   9.396  0.0840  0.1968 -0.0350
  225loPI    C3 3587  16.016   4.958   9.778  0.0496  0.1299 -0.0580
  225loPI   PO4 3588  16.359   5.496   9.474  0.0900  0.1941  0.0585
  225loPI   GL1 3589  16.375   5.585   9.083  0.1302  0.1461  0.2878
  225loPI   GL2 3590  16.083   5.631   9.081  0.0094  0.1839  0.1073
  225loPI   C1A 3591  16.217   5.523   8.616  0.0420  0.0743  0.2788
  225loPI   C2A 3592  16.238   5.276   8.298  0.1534 -0.2153 -0.0890
  225loPI   C3A 3593  16.246   5.222   7.868  0.3098 -0.0024  0.1674
  225loPI   C4A 3594  16.354   5.223   7.483 -0.1766  0.4364 -0.0958
  225loPI   C5A 3595  16.214   5.391   7.038 -0.3287  0.0583 -0.2759
  225loPI   C6A 3596  16.345   5.684   6.861  0.1571  0.2059 -0.0280
  225loPI   C1B 3597  15.974   5.263   8.922  0.1938  0.0398  0.2036
  225loPI   C2B 3598  15.773   5.224   8.475  0.1292 -0.1022 -0.0942
  225loPI   C3B 3599  15.784   5.309   8.017 -0.0563  0.0236 -0.0207
  225loPI   C4B 3600  15.798   5.311   7.609 -0.0596 -0.0122  0.2933
  226loPI    C1 3601   4.883   1.306  10.293  0.2235 -0.3853 -0.0593
  226loPI    C2 3602   4.946   1.434  10.667  0.1274 -0.1113 -0.1340
  226loPI    C3 3603   4.617   1.224  10.580  0.0455  0.0042 -0.1054
  226loPI   PO4 3604   4.857   1.528  10.147  0.1365  0.1079 -0.1868
  226loPI   GL1 3605   4.793   1.464   9.752 -0.0411  0.2139 -0.0675
  226loPI   GL2 3606   5.113   1.509   9.746 -0.1348 -0.2042  0.3593
  226loPI   C1A 3607   4.916   1.532   9.288 -0.1769 -0.2123  0.0473
  226loPI   C2A 3608   4.910   1.427   8.827  0.1227 -0.0205  0.0192
  226loPI   C3A 3609   4.919   1.403   8.361  0.0572 -0.0650  0.0126
  226loPI   C4A 3610   5.063   1.440   7.933  0.1450 -0.1524  0.0151
  226loPI   C5A 3611   5.430   1.431   7.680 -0.1266  0.2827 -0.1975
  226loPI   C6A 3612   5.831   1.390   7.407  0.0808 -0.0150  0.1407
  226loPI   C1B 3613   5.399   1.344   9.380  0.0728 -0.1781  0.1365
  226loPI   C2B 3614   5.447   1.253   8.979  0.2036 -0.0020 -0.2746
  226loPI   C3B 3615   5.407   1.191   8.582 -0.0898  0.0480  0.0338
  226loPI   C4B 3616   5.454   1.187   8.184 -0.2252  0.2728 -0.2902
  227loPI    C1 3617   8.935  10.277  10.835  0.1114  0.1108 -0.0149
  227loPI    C2 3618   9.288  10.097  10.785  0.0371 -0.0544  0.0481
  227loPI    C3 3619   9.252  10.397  11.047  0.0785 -0.1900  0.2106
  227loPI   PO4 3620   8.897  10.362  10.545 -0.1859  0.2489  0.0156
  227loPI   GL1 3621   9.072  10.606  10.148  0.0072 -0.0518  0.0347
  227loPI   GL2 3622   9.342  10.684   9.965  0.1704  0.0611 -0.2582
  227loPI   C1A 3623   8.772  10.547   9.776  0.1013  0.2204  0.1312
  227loPI   C2A 3624   8.750  10.591   9.326 -0.1064  0.2315 -0.1153
  227loPI   C3A 3625   8.790  10.733   8.938 -0.2120  0.2230 -0.0171
  227loPI   C4A 3626   8.685  10.837   8.486 -0.0049  0.0926 -0.0534
  227loPI   C5A 3627   8.501  11.070   8.064  0.1928  0.0529  0.1605
  227loPI   C6A 3628   8.219  11.456   7.982  0.0829 -0.0065 -0.1092
  227loPI   C1B 3629   9.182  10.680   9.527 -0.1539 -0.0689 -0.0605
  227loPI   C2B 3630   9.325  10.622   9.160  0.0297 -0.0003  0.0299
  227loPI   C3B 3631   9.282  10.672   8.723  0.2443 -0.1149 -0.0727
  227loPI   C4B 3632   9.160  10.576   8.239  0.0821 -0.0752  0.3010
  228loPI    C1 3633  11.143  14.478  10.470 -0.2528  0.0592  0.0171
  228loPI    C2 3634  11.331  14.822  10.391 -0.2238 -0.0056 -0.2045
  228loPI    C3 3635  11.490  14.563  10.650 -0.3571  0.2431  0.1346
  228loPI   PO4 3636  11.090  14.368  10.217 -0.2545 -0.1247 -0.1211
  228loPI   GL1 3637  11.067  13.982   9.919  0.0024 -0.3993  0.1548
  228loPI   GL2 3638  11.138  13.585   9.928 -0.0186  0.0859  0.2710
  228loPI   C1A 3639  10.981  13.943   9.515 -0.0388 -0.1477 -0.0432
  228loPI   C2A 3640  10.929  13.964   9.036 -0.4361  0.0128  0.1510
  228loPI   C3A 3641  10.848  14.001   8.708  0.0636 -0.0121  0.0911
  228loPI   C4A 3642  10.901  13.799   8.355 -0.0734 -0.0047 -0.1078
  228loPI   C5A 3643  10.853  13.996   7.953  0.0110 -0.1233 -0.0621
  228loPI   C6A 3644  10.560  13.976   7.567 -0.0327 -0.1199  0.2428
  228loPI   C1B 3645  11.078  13.458   9.593 -0.0557  0.0556  0.2188
  228loPI   C2B 3646  10.984  13.395   9.213 -0.3134  0.0196 -0.3478
  228loPI   C3B 3647  10.993  13.449   8.775  0.0014 -0.1392  0.3942
  228loPI   C4B 3648  10.952  13.341   8.366  0.2556  0.1144 -0.2702
  229loPI    C1 3649   9.968  10.799  10.568  0.2110 -0.2965  0.0870
  229loPI    C2 3650  10.088  10.763  10.947  0.1593  0.0073  0.1349
  229loPI    C3 3651  10.205  11.078  10.730 -0.0944  0.0170  0.0085
  229loPI   PO4 3652  10.045  10.454  10.438  0.1833  0.0466  0.0731
  229loPI   GL1 3653   9.962  10.363  10.010 -0.2374  0.0836  0.0629
  229loPI   GL2 3654   9.831  10.649  10.048  0.1377  0.2004  0.0626
  229loPI   C1A 3655   9.898  10.034   9.742 -0.0697  0.1562 -0.0378
  229loPI   C2A 3656   9.896   9.960   9.252 -0.0923 -0.1457  0.1422
  229loPI   C3A 3657   9.866   9.815   8.918  0.0562  0.0097 -0.2273
  229loPI   C4A 3658   9.854   9.776   8.443  0.0042  0.1892  0.1478
  229loPI   C5A 3659   9.636   9.579   8.026  0.0948 -0.2320 -0.1188
  229loPI   C6A 3660   9.487   9.316   7.821 -0.0302  0.0489 -0.2885
  229loPI   C1B 3661   9.850  10.523   9.600  0.0241  0.0879 -0.2257
  229loPI   C2B 3662   9.806  10.547   9.248 -0.0902  0.2030 -0.0249
  229loPI   C3B 3663   9.765  10.435   8.791  0.0312  0.0606 -0.0709
  229loPI   C4B 3664   9.741  10.303   8.423 -0.1763  0.0286 -0.1104
  230loPI    C1 3665   9.595   9.724  11.087 -0.1179 -0.1139 -0.0116
  230loPI    C2 3666   9.509  10.062  11.283  0.1361 -0.0185 -0.0612
  230loPI    C3 3667   9.508   9.712  11.477  0.1459  0.0451  0.0547
  230loPI   PO4 3668   9.791   9.836  10.823 -0.2409 -0.1478  0.4851
  230loPI   GL1 3669   9.887   9.593  10.414 -0.1482  0.0009 -0.1351
  230loPI   GL2 3670   9.747  10.009  10.317  0.1032 -0.0739 -0.0178
  230loPI   C1A 3671  10.001   9.459   9.998 -0.0665  0.1342  0.1869
  230loPI   C2A 3672  10.053   9.404   9.576  0.0407 -0.1072 -0.1197
  230loPI   C3A 3673   9.959   9.461   9.226 -0.4387 -0.1783  0.1195
  230loPI   C4A 3674   9.989   9.342   8.895  0.1482  0.0514  0.2565
  230loPI   C5A 3675   9.820   9.278   8.543  0.1472 -0.0162  0.2771
  230loPI   C6A 3676   9.526   9.297   8.395  0.0533 -0.0755 -0.0285
  230loPI   C1B 3677   9.583   9.759  10.053 -0.2759 -0.0701  0.2318
  230loPI   C2B 3678   9.606   9.642   9.632  0.0097 -0.1218 -0.2471
  230loPI   C3B 3679   9.474   9.588   9.290 -0.1115  0.0664 -0.0473
  230loPI   C4B 3680   9.473   9.547   8.881 -0.0097  0.0738 -0.0977
  231loPI    C1 3681  11.619  10.751  10.589  0.1324 -0.3621  0.2766
  231loPI    C2 3682  11.375  10.663  10.892 -0.1512 -0.1037  0.1289
  231loPI    C3 3683  11.504  11.038  10.843 -0.0519 -0.1580 -0.0300
  231loPI   PO4 3684  11.502  10.685  10.356 -0.2602 -0.2409  0.0244
  231loPI   GL1 3685  11.172  10.446  10.060  0.1917 -0.3103  0.0976
  231loPI   GL2 3686  11.205  10.748   9.942 -0.0505 -0.0421 -0.1840
  231loPI   C1A 3687  11.156  10.514   9.483  0.0489 -0.0277 -0.0923
  231loPI   C2A 3688  11.092  10.516   9.081  0.1483  0.1089  0.1761
  231loPI   C3A 3689  11.135  10.391   8.705 -0.2052 -0.2289 -0.3232
  231loPI   C4A 3690  11.220  10.283   8.236  0.0271 -0.3382  0.0930
  231loPI   C5A 3691  10.921  10.257   7.871 -0.0159 -0.0868 -0.4409
  231loPI   C6A 3692  10.837  10.582   7.586 -0.2724  0.1967 -0.0630
  231loPI   C1B 3693  10.974  11.055   9.680 -0.1447  0.0013 -0.0419
  231loPI   C2B 3694  11.042  11.055   9.196 -0.3670  0.3040 -0.1375
  231loPI   C3B 3695  11.007  11.000   8.698  0.1364  0.1382 -0.0582
  231loPI   C4B 3696  10.990  11.177   8.311 -0.2050 -0.1454  0.3341
  232loPI    C1 3697  12.931  11.531  10.387 -0.1142 -0.0269  0.1788
  232loPI    C2 3698  12.867  11.714  10.737  0.0894 -0.0858  0.2479
  232loPI    C3 3699  13.168  11.453  10.699 -0.0520 -0.2275  0.0830
  232loPI   PO4 3700  12.628  11.539  10.346  0.1685 -0.0241  0.0300
  232loPI   GL1 3701  12.371  11.503  10.021 -0.1961 -0.0391  0.1128
  232loPI   GL2 3702  12.120  11.246  10.005 -0.0870 -0.1233  0.1588
  232loPI   C1A 3703  12.373  11.510   9.628  0.0627  0.1356  0.2139
  232loPI   C2A 3704  12.190  11.488   9.224  0.1671  0.1122 -0.1174
  232loPI   C3A 3705  12.190  11.491   8.647  0.0563  0.2501  0.3694
  232loPI   C4A 3706  12.149  11.536   8.208  0.2279 -0.0241 -0.0575
  232loPI   C5A 3707  12.111  11.653   7.727 -0.1023 -0.0763  0.1017
  232loPI   C6A 3708  12.044  11.620   7.315  0.2595 -0.0103 -0.0188
  232loPI   C1B 3709  11.950  11.285   9.599  0.3048  0.0976 -0.0201
  232loPI   C2B 3710  11.874  11.146   9.202  0.2234 -0.4686 -0.0650
  232loPI   C3B 3711  11.808  11.161   8.808 -0.3019  0.2794  0.3185
  232loPI   C4B 3712  11.855  11.149   8.354 -0.1834 -0.0318 -0.0159
  233loPI    C1 3713   2.939  17.877  10.331 -0.0123  0.2182  0.0345
  233loPI    C2 3714   2.969  18.133  10.637 -0.0443  0.1807  0.0690
  233loPI    C3 3715   2.611  17.991  10.530 -0.0121  0.0497  0.1327
  233loPI   PO4 3716   3.103  17.985  10.123 -0.1336 -0.2109  0.0341
  233loPI   GL1 3717   3.342  17.720   9.744 -0.2098  0.4026  0.0182
  233loPI   GL2 3718   3.662  17.882   9.679  0.0360 -0.1848  0.0251
  233loPI   C1A 3719   3.335  17.830   9.303  0.1050 -0.4111 -0.3159
  233loPI   C2A 3720   3.508  17.929   8.862  0.1302 -0.0678  0.1124
  233loPI   C3A 3721   3.547  18.030   8.463 -0.1803  0.1070 -0.0137
  233loPI   C4A 3722   3.538  18.041   8.123 -0.0430 -0.0752 -0.1065
  233loPI   C5A 3723   3.460  17.709   7.654  0.1539 -0.1786 -0.3642
  233loPI   C6A 3724   3.650  17.347   7.564 -0.0943 -0.2063  0.0403
  233loPI   C1B 3725   3.837  17.963   9.280  0.0927 -0.1514  0.0001
  233loPI   C2B 3726   3.999  18.113   8.849  0.5370 -0.2855 -0.1835
  233loPI   C3B 3727   3.917  18.351   8.453 -0.2810 -0.2725  0.1042
  233loPI   C4B 3728   3.985  18.348   7.988 -0.2695 -0.5091  0.0179
  234loPI    C1 3729   6.631  17.128  10.570  0.1389  0.2006  0.0736
  234loPI    C2 3730   6.487  16.777  10.698  0.1524  0.1740  0.0159
  234loPI    C3 3731   6.433  17.107  10.917 -0.2063  0.2091 -0.1181
  234loPI   PO4 3732   6.545  17.131  10.331  0.1777  0.0340 -0.1155
  234loPI   GL1 3733   6.695  17.013   9.933  0.0438  0.0122 -0.1571
  234loPI   GL2 3734   6.901  16.780   9.821 -0.1004 -0.1527 -0.0750
  234loPI   C1A 3735   6.480  16.868   9.565  0.0916  0.0800  0.0804
  234loPI   C2A 3736   6.478  16.889   9.190  0.1406 -0.1037 -0.0745
  234loPI   C3A 3737   6.498  16.842   8.739  0.0195  0.0260  0.4002
  234loPI   C4A 3738   6.515  16.876   8.226  0.1326  0.3663  0.1643
  234loPI   C5A 3739   6.529  16.663   7.823 -0.4071  0.0479 -0.1536
  234loPI   C6A 3740   6.510  16.503   7.362  0.0898  0.1993 -0.0177
  234loPI   C1B 3741   6.944  16.940   9.382  0.2750  0.0525  0.0625
  234loPI   C2B 3742   6.918  17.131   8.988  0.1859  0.1867  0.4484
  234loPI   C3B 3743   6.923  17.096   8.507 -0.4396  0.1750 -0.3863
  234loPI   C4B 3744   6.802  17.295   8.109  0.1503  0.1755 -0.0754
  235loPI    C1 3745   7.011  18.263  10.614 -0.2037  0.1964 -0.2047
  235loPI    C2 3746   6.882  17.976  10.862 -0.1610  0.1763 -0.2059
  235loPI    C3 3747   6.936  18.349  10.998 -0.0520  0.1452 -0.1630
  235loPI   PO4 3748   6.906  18.257  10.435  0.0764 -0.1497  0.0661
  235loPI   GL1 3749   7.069  18.327  10.059  0.1854  0.1160 -0.0286
  235loPI   GL2 3750   7.392  18.176   9.948  0.1164  0.1857 -0.1695
  235loPI   C1A 3751   7.027  18.523   9.695  0.3288  0.2053  0.1755
  235loPI   C2A 3752   7.097  18.589   9.162  0.4242  0.0024  0.2050
  235loPI   C3A 3753   7.079  18.484   8.736  0.1410  0.3168 -0.0509
  235loPI   C4A 3754   7.051  18.406   8.353 -0.1907 -0.1729  0.3084
  235loPI   C5A 3755   7.026  18.295   7.993 -0.0612 -0.1002  0.2423
  235loPI   C6A 3756   6.760  18.304   7.616 -0.0987 -0.2381  0.0857
  235loPI   C1B 3757   7.478  18.284   9.444 -0.1885  0.1857 -0.5003
  235loPI   C2B 3758   7.516  18.393   9.047 -0.1161  0.3274  0.3202
  235loPI   C3B 3759   7.613  18.389   8.600 -0.1866 -0.1330 -0.2641
  235loPI   C4B 3760   7.696  18.309   8.152 -0.3635 -0.3185 -0.3650
  236loPI    C1 3761  15.509  16.117   9.878  0.1255  0.1376 -0.3080
  236loPI    C2 3762  15.658  16.103  10.249 -0.2114  0.0265 -0.1732
  236loPI    C3 3763  15.790  15.848   9.971 -0.0120  0.0601 -0.1108
  236loPI   PO4 3764  15.270  16.133   9.827  0.2367  0.0968  0.3066
  236loPI   GL1 3765  15.114  16.043   9.402 -0.2764  0.0308  0.2442
  236loPI   GL2 3766  15.151  15.739   9.478  0.0639  0.0518 -0.1725
  236loPI   C1A 3767  15.314  15.889   9.027 -0.0347 -0.1410 -0.4064
  236loPI   C2A 3768  15.209  15.731   8.709  0.3274 -0.2306  0.0855
  236loPI   C3A 3769  15.329  15.790   8.387 -0.3203 -0.0455  0.0314
  236loPI   C4A 3770  15.245  15.908   8.059  0.2046 -0.0185  0.2431
  236loPI   C5A 3771  15.346  15.982   7.637 -0.1887 -0.1393  0.0309
  236loPI   C6A 3772  15.452  15.755   7.379 -0.0807  0.0121 -0.3051
  236loPI   C1B 3773  15.029  15.452   9.175 -0.2047  0.0765 -0.1850
  236loPI   C2B 3774  14.902  15.319   8.716 -0.0191  0.1187 -0.0974
  236loPI   C3B 3775  14.621  15.141   8.448  0.1103 -0.1022 -0.1169
  236loPI   C4B 3776  14.322  15.115   8.205  0.0800  0.2103 -0.0549
  237loPI    C1 3777  11.972   4.146  10.627  0.2568  0.0049  0.1097
  237loPI    C2 3778  11.876   3.769  10.722 -0.0804 -0.0060 -0.2466
  237loPI    C3 3779  12.021   4.016  11.002 -0.1293 -0.3135  0.0566
  237loPI   PO4 3780  11.835   4.263  10.551  0.1392 -0.0814 -0.0072
  237loPI   GL1 3781  11.740   4.473  10.164  0.0513  0.0627 -0.1500
  237loPI   GL2 3782  11.431   4.494  10.085 -0.1881 -0.2402  0.1785
  237loPI   C1A 3783  11.907   4.364   9.666  0.0332  0.4452 -0.0089
  237loPI   C2A 3784  11.725   4.217   9.174  0.1084  0.0444 -0.2264
  237loPI   C3A 3785  11.797   4.324   8.812  0.4170  0.1799  0.0498
  237loPI   C4A 3786  11.775   4.285   8.351  0.0660 -0.4140 -0.2054
  237loPI   C5A 3787  11.751   4.143   7.885 -0.1097  0.0776 -0.0164
  237loPI   C6A 3788  11.427   3.859   7.775 -0.1644  0.1606  0.1243
  237loPI   C1B 3789  11.354   4.394   9.552 -0.0281 -0.0852 -0.0011
  237loPI   C2B 3790  11.201   4.392   9.227  0.0296  0.0886 -0.1333
  237loPI   C3B 3791  11.336   4.513   8.830  0.1985 -0.1682  0.2252
  237loPI   C4B 3792  11.242   4.488   8.433  0.1908  0.0487 -0.1898
  238loPI    C1 3793  18.107  12.451   9.981 -0.2157 -0.0467 -0.1592
  238loPI    C2 3794  17.753  12.635  10.008 -0.0736  0.1858  0.2020
  238loPI    C3 3795  17.820  12.300  10.215 -0.0880  0.1312  0.1184
  238loPI   PO4 3796  18.167  12.391   9.668  0.0351  0.1284 -0.0749
  238loPI   GL1 3797  18.044  12.126   9.319 -0.0863  0.0568  0.0649
  238loPI   GL2 3798  18.268  11.885   9.211 -0.0862 -0.2285 -0.2292
  238loPI   C1A 3799  17.803  12.360   9.122 -0.3174 -0.4774  0.3026
  238loPI   C2A 3800  17.635  12.389   8.686  0.2228  0.0996 -0.1697
  238loPI   C3A 3801  17.810  12.352   8.264  0.1845 -0.0566 -0.1799
  238loPI   C4A 3802  18.007  12.023   7.993 -0.0550  0.3812 -0.2014
  238loPI   C5A 3803  18.271  11.791   7.643 -0.1308  0.0680 -0.2460
  238loPI   C6A 3804  18.335  11.314   7.642 -0.1821  0.0574  0.1124
  238loPI   C1B 3805  18.397  11.558   8.698 -0.0050  0.0412 -0.4738
  238loPI   C2B 3806  18.508  11.389   8.374 -0.1429  0.2719 -0.1474
  238loPI   C3B 3807  18.375  10.952   8.188 -0.0946  0.1008 -0.0298
  238loPI   C4B 3808  18.206  10.613   7.895 -0.4156 -0.1177  0.2202
  239loPI    C1 3809  10.583   1.598  10.555 -0.4691 -0.1003  0.0145
  239loPI    C2 3810  10.435   1.689  10.915 -0.0810 -0.0167  0.1583
  239loPI    C3 3811  10.794   1.516  10.885  0.0015  0.2068 -0.2000
  239loPI   PO4 3812  10.351   1.353  10.330  0.0849  0.0522  0.1095
  239loPI   GL1 3813  10.352   1.180   9.969  0.5629  0.1296  0.0976
  239loPI   GL2 3814  10.482   1.401   9.805 -0.0481  0.3201  0.1447
  239loPI   C1A 3815  10.096   0.991   9.675 -0.3367  0.0268 -0.1705
  239loPI   C2A 3816  10.152   1.010   9.216  0.1165 -0.2538  0.3691
  239loPI   C3A 3817  10.132   1.020   8.762  0.0489 -0.3238 -0.0220
  239loPI   C4A 3818  10.124   1.097   8.431 -0.0558 -0.0923  0.2281
  239loPI   C5A 3819   9.976   1.058   7.951  0.1237 -0.0233 -0.2614
  239loPI   C6A 3820  10.035   1.426   7.580 -0.1538  0.1401  0.1043
  239loPI   C1B 3821  10.534   1.402   9.307  0.0058 -0.2843 -0.1033
  239loPI   C2B 3822  10.532   1.386   8.826  0.0831  0.0922 -0.1442
  239loPI   C3B 3823  10.387   1.556   8.503 -0.1235  0.0616 -0.1776
  239loPI   C4B 3824  10.196   1.677   8.040  0.1361  0.2275 -0.1086
  240loPI    C1 3825   0.245  16.220  10.239 -0.0658  0.1532 -0.1544
  240loPI    C2 3826   0.091  15.859  10.167  0.0709  0.0054  0.2662
  240loPI    C3 3827  -0.108  16.119  10.396  0.1449  0.0559  0.2733
  240loPI   PO4 3828   0.275  16.236   9.923  0.1414  0.2718 -0.0874
  240loPI   GL1 3829   0.018  16.342   9.485 -0.0800  0.1078 -0.2787
  240loPI   GL2 3830   0.360  16.257   9.429  0.0805 -0.2920 -0.0186
  240loPI   C1A 3831   0.082  16.186   9.026 -0.3526 -0.2094 -0.3314
  240loPI   C2A 3832   0.301  16.042   8.649  0.2015  0.0659  0.0270
  240loPI   C3A 3833   0.585  15.888   8.324 -0.2060  0.4092 -0.1456
  240loPI   C4A 3834   0.530  15.777   7.896  0.1244  0.0284 -0.0125
  240loPI   C5A 3835   0.380  15.757   7.642  0.2876  0.3017  0.2170
  240loPI   C6A 3836   0.226  15.969   7.290 -0.2399 -0.0829  0.0863
  240loPI   C1B 3837   0.476  16.509   8.964  0.0179  0.2326 -0.0931
  240loPI   C2B 3838   0.549  16.430   8.390  0.0353 -0.0031 -0.0660
  240loPI   C3B 3839   0.584  16.659   8.006 -0.0572 -0.2627  0.2322
  240loPI   C4B 3840   0.587  16.453   7.631 -0.2114  0.1219  0.1544
  241loPI    C1 3841   5.960   7.326  10.263  0.0157  0.0937 -0.2189
  241loPI    C2 3842   5.693   7.564  10.441  0.1079 -0.0662  0.1411
  241loPI    C3 3843   6.060   7.523  10.596  0.2198 -0.1404 -0.1381
  241loPI   PO4 3844   5.941   7.317  10.079 -0.0209 -0.1208 -0.2036
  241loPI   GL1 3845   5.961   7.098   9.805  0.0894  0.3242 -0.2747
  241loPI   GL2 3846   5.777   7.333   9.565  0.0385  0.1006  0.2230
  241loPI   C1A 3847   6.059   6.836   9.502  0.0278 -0.2494  0.0302
  241loPI   C2A 3848   6.144   6.888   8.981 -0.0795 -0.0219 -0.0540
  241loPI   C3A 3849   6.348   6.902   8.554 -0.1454  0.0203 -0.3123
  241loPI   C4A 3850   6.275   6.762   8.116 -0.0177  0.0923 -0.1989
  241loPI   C5A 3851   6.022   6.844   7.640 -0.2887  0.1962  0.0210
  241loPI   C6A 3852   5.630   6.789   7.374  0.0190 -0.0085  0.1616
  241loPI   C1B 3853   6.003   7.324   9.258 -0.3836 -0.1656 -0.0224
  241loPI   C2B 3854   6.194   7.409   8.783 -0.0702  0.1531 -0.0652
  241loPI   C3B 3855   6.240   7.396   8.408 -0.0498 -0.1300  0.2227
  241loPI   C4B 3856   6.304   7.259   7.983  0.2123 -0.0469 -0.4662
  242loPI    C1 3857   9.577   6.008  10.892 -0.1397  0.0785 -0.0978
  242loPI    C2 3858   9.254   5.858  10.709 -0.0914  0.0531 -0.1624
  242loPI    C3 3859   9.330   5.763  11.090 -0.1739  0.0795 -0.1390
  242loPI   PO4 3860   9.742   6.000  10.736  0.1813  0.1067  0.0721
  242loPI   GL1 3861   9.695   5.650  10.501  0.1149  0.0196 -0.3496
  242loPI   GL2 3862   9.578   5.951  10.258 -0.3088  0.0944  0.0402
  242loPI   C1A 3863   9.669   5.550  10.020 -0.2144 -0.2046 -0.3551
  242loPI   C2A 3864   9.765   5.501   9.646  0.2951  0.3079 -0.0571
  242loPI   C3A 3865   9.651   5.514   9.156 -0.0147 -0.0730 -0.0297
  242loPI   C4A 3866   9.621   5.637   8.696 -0.3039  0.0412 -0.0411
  242loPI   C5A 3867   9.420   5.666   8.234 -0.2759  0.2802  0.2168
  242loPI   C6A 3868   9.466   5.709   7.809 -0.1346  0.1618 -0.3333
  242loPI   C1B 3869   9.700   6.080   9.855  0.2390 -0.0154  0.0452
  242loPI   C2B 3870   9.662   6.088   9.436 -0.2056 -0.0925  0.1875
  242loPI   C3B 3871   9.572   6.105   9.018  0.0961 -0.3048 -0.1680
  242loPI   C4B 3872   9.554   6.104   8.587 -0.2900 -0.0202  0.1527
  243loPI    C1 3873  16.719  12.095   9.846  0.0469 -0.1260  0.1329
  243loPI    C2 3874  16.499  11.845  10.068 -0.0351  0.0419  0.2438
  243loPI    C3 3875  16.486  12.238  10.139 -0.1299  0.1075 -0.1171
  243loPI   PO4 3876  16.722  11.963   9.583  0.1732  0.1698 -0.1580
  243loPI   GL1 3877  16.529  12.048   9.189  0.2889 -0.1376  0.1334
  243loPI   GL2 3878  16.364  11.900   9.125 -0.0545  0.1534 -0.2043
  243loPI   C1A 3879  16.471  12.171   8.708  0.3460  0.0842  0.0719
  243loPI   C2A 3880  16.527  12.102   8.333 -0.1686 -0.0691 -0.2457
  243loPI   C3A 3881  16.690  12.183   7.964  0.1765  0.0040 -0.0374
  243loPI   C4A 3882  16.604  12.379   7.656 -0.1427 -0.4782  0.0199
  243loPI   C5A 3883  16.862  12.407   7.263  0.1128  0.2258  0.0545
  243loPI   C6A 3884  17.203  12.465   6.954  0.1666  0.2616 -0.2333
  243loPI   C1B 3885  16.427  11.696   8.806 -0.0708 -0.0537 -0.0875
  243loPI   C2B 3886  16.415  11.613   8.365  0.1026 -0.0532  0.2952
  243loPI   C3B 3887  16.394  11.719   7.940  0.0671  0.0661 -0.2776
  243loPI   C4B 3888  16.512  11.931   7.562  0.1226  0.1583 -0.1963
  244loPI    C1 3889  14.864  11.324   9.756  0.1170 -0.2695 -0.0733
  244loPI    C2 3890  14.601  11.560   9.569  0.0553 -0.1821  0.1213
  244loPI    C3 3891  14.961  11.702   9.668  0.1733 -0.2971 -0.1315
  244loPI   PO4 3892  14.921  11.126   9.706  0.2203  0.2097  0.0923
  244loPI   GL1 3893  15.114  10.776   9.552  0.3460  0.1219 -0.1440
  244loPI   GL2 3894  15.048  10.514   9.449  0.0588  0.1048 -0.0089
  244loPI   C1A 3895  15.386  10.855   9.145  0.0340  0.0972 -0.4117
  244loPI   C2A 3896  15.352  10.768   8.691 -0.1523 -0.0369  0.0466
  244loPI   C3A 3897  15.280  10.772   8.267 -0.1164  0.1433 -0.1714
  244loPI   C4A 3898  15.117  10.729   7.851  0.1156 -0.1955  0.3537
  244loPI   C5A 3899  14.992  10.741   7.434 -0.3487 -0.1889  0.1704
  244loPI   C6A 3900  14.764  10.327   7.243  0.0541 -0.2171 -0.1957
  244loPI   C1B 3901  14.854  10.753   9.129  0.1228 -0.3039 -0.1308
  244loPI   C2B 3902  14.916  10.877   8.652 -0.1889 -0.3430  0.2873
  244loPI   C3B 3903  14.763  10.645   8.271 -0.1799  0.3616  0.2573
  244loPI   C4B 3904  14.738  10.329   7.939  0.2601 -0.3814  0.2284
  245loPI    C1 3905   2.538   8.883  10.070 -0.0993  0.0900 -0.1261
  245loPI    C2 3906   2.729   9.170  10.273 -0.1394  0.0004  0.0398
  245loPI    C3 3907   2.357   9.064  10.377 -0.0811 -0.1937  0.0557
  245loPI   PO4 3908   2.859   8.790   9.944 -0.0373 -0.0693 -0.3633
  245loPI   GL1 3909   2.905   8.633   9.576 -0.1803 -0.2729 -0.1444
  245loPI   GL2 3910   2.762   8.982   9.482 -0.2205  0.0719  0.2990
  245loPI   C1A 3911   3.047   8.500   9.218 -0.0134 -0.0661  0.1829
  245loPI   C2A 3912   3.083   8.421   8.778  0.2433 -0.1023 -0.0729
  245loPI   C3A 3913   3.153   8.304   8.323  0.0495  0.0102 -0.1296
  245loPI   C4A 3914   3.091   8.294   7.927  0.2680 -0.2781 -0.0830
  245loPI   C5A 3915   3.044   8.221   7.408 -0.1237  0.2098  0.1105
  245loPI   C6A 3916   2.878   7.806   7.338 -0.3615  0.1354 -0.2272
  245loPI   C1B 3917   2.991   9.015   9.168  0.1462  0.3307  0.2182
  245loPI   C2B 3918   2.970   9.066   8.645  0.1076 -0.0077  0.1877
  245loPI   C3B 3919   2.933   9.310   8.230  0.1419 -0.1160  0.1502
  245loPI   C4B 3920   3.217   9.419   7.921  0.1400 -0.1591  0.2724
  246loPI    C1 3921  16.678  11.453   9.765 -0.0825  0.3364 -0.0474
  246loPI    C2 3922  16.510  11.341  10.110  0.0254  0.1338 -0.0594
  246loPI    C3 3923  16.907  11.330  10.069  0.0183  0.2407 -0.1614
  246loPI   PO4 3924  16.407  11.274   9.607 -0.0881  0.0162  0.0355
  246loPI   GL1 3925  16.118  11.482   9.307 -0.2742  0.2010  0.1509
  246loPI   GL2 3926  16.257  11.206   9.198  0.1473 -0.0637  0.2157
  246loPI   C1A 3927  15.973  11.563   8.881 -0.3198  0.2576 -0.3086
  246loPI   C2A 3928  16.015  11.347   8.519 -0.3896 -0.1143 -0.0172
  246loPI   C3A 3929  16.000  11.242   8.111  0.0587 -0.2045 -0.1656
  246loPI   C4A 3930  15.800  11.410   7.729  0.0391  0.2284  0.1159
  246loPI   C5A 3931  15.697  11.435   7.361 -0.0031 -0.1876 -0.1819
  246loPI   C6A 3932  15.765  11.489   6.956  0.1839  0.0703  0.0979
  246loPI   C1B 3933  16.543  11.206   8.864  0.1653 -0.0055 -0.0097
  246loPI   C2B 3934  16.642  11.104   8.507  0.1452  0.0485 -0.1893
  246loPI   C3B 3935  16.501  11.229   8.086  0.2020  0.0777  0.0550
  246loPI   C4B 3936  16.412  11.364   7.642  0.0384  0.1403 -0.0588
  247loPI    C1 3937  13.025  10.125  10.503 -0.0515 -0.2062 -0.2976
  247loPI    C2 3938  13.410  10.176  10.600 -0.1083 -0.0260 -0.1602
  247loPI    C3 3939  13.196   9.887  10.775 -0.1234  0.0890  0.0141
  247loPI   PO4 3940  12.978  10.060  10.255 -0.0842 -0.0586 -0.0523
  247loPI   GL1 3941  12.743  10.167   9.920  0.1087 -0.0646 -0.0324
  247loPI   GL2 3942  12.536  10.320   9.883  0.3014 -0.1736  0.0283
  247loPI   C1A 3943  12.693   9.957   9.560 -0.1023  0.0045  0.1607
  247loPI   C2A 3944  12.658   9.977   9.150  0.1436 -0.0391 -0.3722
  247loPI   C3A 3945  12.504   9.805   8.725 -0.0332 -0.0281 -0.0728
  247loPI   C4A 3946  12.291   9.860   8.175 -0.2269 -0.0274  0.1355
  247loPI   C5A 3947  12.020   9.645   7.891  0.1160  0.1375 -0.0318
  247loPI   C6A 3948  11.967   9.220   8.097 -0.0280 -0.2233 -0.0258
  247loPI   C1B 3949  12.490  10.484   9.401  0.1405 -0.2068  0.3817
  247loPI   C2B 3950  12.393  10.405   8.861  0.3199 -0.1181 -0.2610
  247loPI   C3B 3951  12.382  10.472   8.404  0.4139 -0.0974 -0.1850
  247loPI   C4B 3952  12.259  10.517   7.982  0.0612 -0.1413  0.4473
  248loPI    C1 3953  15.978  15.279  10.147  0.0576  0.1660 -0.1162
  248loPI    C2 3954  16.064  15.627  10.324  0.0171 -0.0224  0.2846
  248loPI    C3 3955  16.319  15.320  10.353  0.1389  0.0230 -0.2205
  248loPI   PO4 3956  15.860  15.354   9.866  0.0746  0.3317 -0.0125
  248loPI   GL1 3957  15.579  15.187   9.529 -0.1005  0.0686  0.0440
  248loPI   GL2 3958  15.293  15.042   9.521 -0.0460 -0.3130  0.0332
  248loPI   C1A 3959  15.533  15.387   9.084  0.0780 -0.0792  0.0388
  248loPI   C2A 3960  15.535  15.224   8.717  0.0205  0.1187  0.0876
  248loPI   C3A 3961  15.494  15.316   8.257 -0.0979 -0.2047 -0.0101
  248loPI   C4A 3962  15.385  15.470   7.872 -0.3057  0.0661  0.0554
  248loPI   C5A 3963  15.074  15.509   7.522  0.3526  0.1066 -0.2414
  248loPI   C6A 3964  14.874  15.021   7.399 -0.1145  0.2362 -0.0043
  248loPI   C1B 3965  15.196  14.969   9.042  0.2118 -0.2075 -0.1667
  248loPI   C2B 3966  15.038  14.807   8.614  0.2619  0.1116  0.1483
  248loPI   C3B 3967  15.208  14.757   8.098  0.0355 -0.2295 -0.0426
  248loPI   C4B 3968  15.179  15.021   7.756 -0.0874 -0.3087 -0.2432
  249loPI    C1 3969  14.817   2.544  10.127 -0.2949  0.0011  0.0629
  249loPI    C2 3970  14.722   2.405  10.489  0.3652 -0.1655  0.1859
  249loPI    C3 3971  14.992   2.697  10.452  0.1008  0.0425 -0.1627
  249loPI   PO4 3972  14.637   2.585  10.006 -0.0518 -0.3736  0.1111
  249loPI   GL1 3973  14.570   2.465   9.538 -0.1780 -0.3739 -0.1089
  249loPI   GL2 3974  14.309   2.338   9.684 -0.2846 -0.4056 -0.2532
  249loPI   C1A 3975  14.500   2.556   9.080 -0.0979 -0.0321  0.0863
  249loPI   C2A 3976  14.374   2.523   8.748  0.0598  0.0727  0.3458
  249loPI   C3A 3977  14.269   2.468   8.359 -0.0471 -0.2680 -0.2657
  249loPI   C4A 3978  14.316   2.491   7.897 -0.2890 -0.0553 -0.1360
  249loPI   C5A 3979  14.467   2.677   7.548  0.1295 -0.0494  0.0027
  249loPI   C6A 3980  14.866   2.529   7.285 -0.1023 -0.2460 -0.3492
  249loPI   C1B 3981  14.126   2.093   9.446  0.0283  0.0202  0.0359
  249loPI   C2B 3982  14.031   2.184   9.075  0.0475 -0.0307 -0.0260
  249loPI   C3B 3983  13.912   2.182   8.537  0.0804 -0.3507 -0.0376
  249loPI   C4B 3984  13.901   2.150   8.048 -0.1345  0.4684  0.2278
  250loPI    C1 3985  18.739  13.539   9.729 -0.0294 -0.0719  0.1727
  250loPI    C2 3986  18.666  13.754  10.058 -0.1980  0.0011  0.0887
  250loPI    C3 3987  18.549  13.372  10.039  0.1736 -0.1270  0.2694
  250loPI   PO4 3988  18.717  13.727   9.422 -0.0892  0.2831  0.2362
  250loPI   GL1 3989  18.428  13.551   9.095 -0.0465  0.0187  0.3101
  250loPI   GL2 3990  18.442  13.949   9.024 -0.1234  0.0551 -0.4198
  250loPI   C1A 3991  18.305  13.532   8.664  0.0609 -0.2309 -0.0774
  250loPI   C2A 3992  18.488  13.573   8.239 -0.1168  0.4505  0.0340
  250loPI   C3A 3993  18.651  13.446   7.853  0.2631  0.2056  0.1853
  250loPI   C4A 3994  18.842  13.085   7.778 -0.0236  0.2512  0.1383
  250loPI   C5A 3995  18.807  12.678   7.739 -0.0984  0.1276 -0.2362
  250loPI   C6A 3996  18.727  12.206   7.613 -0.0902  0.0635 -0.1867
  250loPI   C1B 3997  18.724  13.840   8.586 -0.0685  0.1749  0.0848
  250loPI   C2B 3998  19.017  13.814   8.208  0.2563 -0.1243 -0.0127
  250loPI   C3B 3999  19.085  14.071   7.853 -0.0020 -0.2969  0.0010
  250loPI   C4B 4000  19.114  14.143   7.411  0.3518 -0.0561  0.0034
  251loPI    C1 4001   2.826   6.921   9.983  0.0063 -0.1080  0.3850
  251loPI    C2 4002   2.467   7.019  10.129 -0.0445 -0.0064  0.1955
  251loPI    C3 4003   2.539   7.053   9.737  0.1166 -0.1950  0.2075
  251loPI   PO4 4004   2.882   6.669   9.981 -0.2817 -0.3040  0.1380
  251loPI   GL1 4005   3.109   6.456   9.637 -0.0605  0.0007  0.0311
  251loPI   GL2 4006   2.797   6.592   9.522  0.1272  0.1724  0.1461
  251loPI   C1A 4007   3.133   6.220   9.361 -0.0078 -0.1011  0.0395
  251loPI   C2A 4008   3.284   6.235   9.006  0.1557  0.0088 -0.1071
  251loPI   C3A 4009   3.539   6.302   8.605 -0.0389 -0.1152  0.1227
  251loPI   C4A 4010   3.483   6.439   8.167  0.2845  0.1287 -0.0508
  251loPI   C5A 4011   3.517   6.723   7.826  0.1454  0.1557  0.1567
  251loPI   C6A 4012   3.495   7.060   7.390  0.0949 -0.1504 -0.2308
  251loPI   C1B 4013   2.877   6.539   9.085  0.1141 -0.1512 -0.1074
  251loPI   C2B 4014   2.973   6.534   8.660 -0.2255 -0.3488  0.1375
  251loPI   C3B 4015   3.009   6.628   8.134 -0.0507 -0.1243  0.1444
  251loPI   C4B 4016   3.179   6.324   7.769 -0.0181 -0.0736 -0.0774
  252loPI    C1 4017  14.299  13.754  10.252 -0.2207 -0.0329  0.0695
  252loPI    C2 4018  14.080  14.076  10.162 -0.0229  0.0791 -0.0170
  252loPI    C3 4019  14.326  14.084  10.477 -0.0860 -0.0199  0.0351
  252loPI   PO4 4020  14.348  13.631   9.942  0.1288 -0.3133  0.1766
  252loPI   GL1 4021  14.295  13.539   9.570  0.1220  0.2571  0.0933
  252loPI   GL2 4022  14.112  13.260   9.624  0.0934 -0.2720 -0.0851
  252loPI   C1A 4023  14.318  13.484   9.134 -0.1478  0.0828 -0.1157
  252loPI   C2A 4024  14.232  13.351   8.700  0.3114 -0.1523  0.1010
  252loPI   C3A 4025  14.258  13.139   8.385  0.0732 -0.0239  0.3329
  252loPI   C4A 4026  14.280  13.068   7.990 -0.0820 -0.2067 -0.0138
  252loPI   C5A 4027  14.010  13.121   7.702 -0.1834 -0.1747  0.0033
  252loPI   C6A 4028  14.121  13.328   7.351  0.1745 -0.2382  0.1915
  252loPI   C1B 4029  13.843  13.290   9.147 -0.2582 -0.0998 -0.0434
  252loPI   C2B 4030  13.725  13.349   8.802  0.1788 -0.1403 -0.2720
  252loPI   C3B 4031  13.771  13.278   8.395  0.1300  0.0462 -0.0094
  252loPI   C4B 4032  13.693  13.340   8.028  0.1443 -0.5249  0.0882
  253loPI    C1 4033  13.655   8.301  10.190  0.3096 -0.1737  0.0757
  253loPI    C2 4034  13.630   8.686  10.087  0.1003 -0.1779  0.1066
  253loPI    C3 4035  13.835   8.580  10.413 -0.0798 -0.0627  0.2592
  253loPI   PO4 4036  13.485   8.208  10.238  0.2685  0.1443  0.0038
  253loPI   GL1 4037  13.189   7.914  10.050 -0.1086  0.2671  0.1868
  253loPI   GL2 4038  13.449   7.828   9.893 -0.0808  0.2395 -0.1449
  253loPI   C1A 4039  13.013   7.907   9.679 -0.0805 -0.0126  0.1099
  253loPI   C2A 4040  13.007   7.932   9.329  0.0500 -0.5045 -0.0913
  253loPI   C3A 4041  12.982   7.940   8.904 -0.0337 -0.3617 -0.1830
  253loPI   C4A 4042  12.955   7.763   8.458  0.1534 -0.1098 -0.2865
  253loPI   C5A 4043  12.943   7.613   7.948 -0.3005  0.0480 -0.2732
  253loPI   C6A 4044  13.437   7.697   7.727  0.0314 -0.0228 -0.0131
  253loPI   C1B 4045  13.464   7.784   9.402  0.2448 -0.0770 -0.0278
  253loPI   C2B 4046  13.398   7.694   9.041  0.2977 -0.0649  0.1994
  253loPI   C3B 4047  13.554   7.552   8.601  0.0149  0.0943  0.0610
  253loPI   C4B 4048  13.363   7.496   8.207 -0.0609  0.0488 -0.4543
  254loPI    C1 4049   1.967   4.515   9.978 -0.0850  0.0667 -0.0343
  254loPI    C2 4050   2.229   4.655  10.247 -0.1740  0.0985  0.0363
  254loPI    C3 4051   1.838   4.649  10.332 -0.2078  0.1544 -0.1114
  254loPI   PO4 4052   2.139   4.608   9.654 -0.2800  0.0495  0.1609
  254loPI   GL1 4053   2.432   4.440   9.383  0.0726  0.2534 -0.0073
  254loPI   GL2 4054   2.169   4.230   9.263 -0.3715 -0.1272  0.1855
  254loPI   C1A 4055   2.314   4.786   8.984 -0.3582  0.1549  0.0967
  254loPI   C2A 4056   2.332   4.776   8.519 -0.2105  0.2240 -0.3768
  254loPI   C3A 4057   2.447   4.717   8.079 -0.1506 -0.0937  0.0799
  254loPI   C4A 4058   2.349   4.946   7.680  0.0166 -0.2581  0.0504
  254loPI   C5A 4059   2.079   4.802   7.413  0.2568  0.0002  0.1404
  254loPI   C6A 4060   1.795   4.390   7.399 -0.2296 -0.0962 -0.1187
  254loPI   C1B 4061   2.375   4.311   8.911  0.2320 -0.1470 -0.1143
  254loPI   C2B 4062   2.549   4.237   8.466  0.0587 -0.0757 -0.2357
  254loPI   C3B 4063   2.607   4.160   8.006  0.0585 -0.2432  0.2774
  254loPI   C4B 4064   2.604   4.078   7.673 -0.1054  0.0279 -0.1861
  255loPI    C1 4065   1.359   0.124  10.296 -0.0799 -0.0336 -0.0641
  255loPI    C2 4066   1.546  -0.157  10.511 -0.0464 -0.0608 -0.1284
  255loPI    C3 4067   1.633   0.230  10.568 -0.4021 -0.0315  0.2673
  255loPI   PO4 4068   1.444   0.106  10.052  0.1328  0.3334 -0.1085
  255loPI   GL1 4069   1.489  -0.042   9.727  0.2135  0.1083 -0.3013
  255loPI   GL2 4070   1.628  -0.327   9.601  0.0021 -0.0031  0.0764
  255loPI   C1A 4071   1.537   0.116   9.327 -0.2028 -0.1142  0.1651
  255loPI   C2A 4072   1.769   0.196   8.933  0.2011  0.0289 -0.1897
  255loPI   C3A 4073   1.716   0.149   8.477 -0.1164 -0.2044  0.1085
  255loPI   C4A 4074   1.855   0.218   8.124  0.0629 -0.1273 -0.0180
  255loPI   C5A 4075   2.029   0.076   7.731 -0.1219 -0.2077 -0.0522
  255loPI   C6A 4076   1.967   0.053   7.303 -0.3142  0.2106 -0.1093
  255loPI   C1B 4077   1.710  -0.313   9.177 -0.0918  0.0403 -0.2691
  255loPI   C2B 4078   1.781  -0.259   8.712  0.2161  0.0714  0.1164
  255loPI   C3B 4079   1.959  -0.415   8.305 -0.3248 -0.2086 -0.0213
  255loPI   C4B 4080   2.094  -0.355   7.982  0.0585 -0.0645 -0.1576
  256loPI    C1 4081   7.491   6.605  10.943  0.0564  0.0248  0.0640
  256loPI    C2 4082   7.134   6.474  10.818  0.0674  0.0150  0.0430
  256loPI    C3 4083   7.306   6.309  11.139  0.0528  0.0200  0.0534
  256loPI   PO4 4084   7.649   6.574  10.699  0.2201  0.0029  0.0400
  256loPI   GL1 4085   7.561   6.675  10.390 -0.0787  0.0466 -0.1244
  256loPI   GL2 4086   7.749   6.893  10.209  0.1796  0.0053  0.3302
  256loPI   C1A 4087   7.645   6.355  10.035  0.0101  0.1495  0.2338
  256loPI   C2A 4088   7.750   6.348   9.620  0.0223 -0.2476 -0.1195
  256loPI   C3A 4089   7.690   6.283   9.165 -0.1516 -0.1422  0.4547
  256loPI   C4A 4090   7.590   6.314   8.757  0.0106  0.0339  0.1933
  256loPI   C5A 4091   7.676   6.278   8.286 -0.1781 -0.1078 -0.1840
  256loPI   C6A 4092   7.894   6.301   7.886  0.1960  0.2067  0.0197
  256loPI   C1B 4093   7.568   6.838   9.902  0.2555  0.1192 -0.0302
  256loPI   C2B 4094   7.645   6.798   9.466  0.0050  0.1695 -0.1871
  256loPI   C3B 4095   7.544   6.827   8.951 -0.1226 -0.2717  0.4063
  256loPI   C4B 4096   7.623   6.759   8.489 -0.1369  0.3303 -0.1022
  257loPI    C1 4097   8.918  13.007  10.600 -0.1062 -0.0734 -0.0185
  257loPI    C2 4098   8.571  12.810  10.626 -0.1243 -0.0346  0.0362
  257loPI    C3 4099   8.610  13.170  10.797 -0.0662 -0.0263  0.0057
  257loPI   PO4 4100   8.988  12.910  10.260  0.0121 -0.1974 -0.3326
  257loPI   GL1 4101   9.335  12.889   9.934  0.2351 -0.1961  0.3841
  257loPI   GL2 4102   9.432  12.564   9.763 -0.1624 -0.2198 -0.1431
  257loPI   C1A 4103   9.301  13.088   9.542 -0.1548  0.1225 -0.0861
  257loPI   C2A 4104   9.269  13.010   9.150  0.0208  0.0131 -0.2878
  257loPI   C3A 4105   9.158  12.971   8.740 -0.1263  0.2377  0.1904
  257loPI   C4A 4106   9.101  13.110   8.344  0.4060  0.2427  0.0402
  257loPI   C5A 4107   9.103  13.061   7.932  0.0003 -0.1404 -0.1997
  257loPI   C6A 4108   9.492  13.109   7.688  0.0705  0.0928 -0.0656
  257loPI   C1B 4109   9.451  12.534   9.314 -0.1206 -0.1670  0.0042
  257loPI   C2B 4110   9.364  12.560   8.948 -0.1654 -0.0039 -0.2283
  257loPI   C3B 4111   9.255  12.507   8.610 -0.1405  0.1288  0.1057
  257loPI   C4B 4112   9.251  12.509   8.208 -0.1872 -0.0639  0.0774
  258loPI    C1 4113   4.139  12.480  10.494 -0.4812 -0.0152 -0.1257
  258loPI    C2 4114   3.985  12.716  10.778 -0.0704  0.0904  0.0174
  258loPI    C3 4115   4.272  12.454  10.870 -0.0318  0.0254 -0.2759
  258loPI   PO4 4116   4.212  12.713  10.295 -0.0668  0.0150  0.0467
  258loPI   GL1 4117   4.478  12.575  10.001  0.2738  0.0134 -0.0181
  258loPI   GL2 4118   4.360  12.359   9.775  0.2755 -0.1929  0.5192
  258loPI   C1A 4119   4.693  12.711   9.623  0.1411  0.3290  0.1459
  258loPI   C2A 4120   4.714  12.687   9.160  0.2885  0.0916  0.0353
  258loPI   C3A 4121   4.539  12.722   8.715 -0.0497  0.0156 -0.3084
  258loPI   C4A 4122   4.541  12.745   8.298 -0.2787  0.0987  0.1509
  258loPI   C5A 4123   4.575  12.755   7.864  0.1017  0.2068 -0.0439
  258loPI   C6A 4124   4.494  12.391   7.613 -0.0906  0.1171 -0.3891
  258loPI   C1B 4125   4.319  12.410   9.285 -0.1959  0.2509 -0.0206
  258loPI   C2B 4126   4.236  12.357   8.833 -0.2213  0.2271 -0.0957
  258loPI   C3B 4127   4.205  12.355   8.331 -0.1820  0.0890 -0.0786
  258loPI   C4B 4128   4.129  12.361   7.975  0.1610 -0.2136  0.2039
  259loPI    C1 4129   0.899  11.044  10.075 -0.0460  0.0320 -0.0018
  259loPI    C2 4130   0.590  10.969  10.318  0.0256 -0.1911  0.0218
  259loPI    C3 4131   0.889  11.205  10.442 -0.1388  0.0339 -0.0051
  259loPI   PO4 4132   0.809  11.092   9.817  0.0264 -0.1631 -0.0312
  259loPI   GL1 4133   0.926  11.250   9.384  0.1840  0.0142 -0.1937
  259loPI   GL2 4134   0.752  11.566   9.346  0.0835 -0.2688  0.1167
  259loPI   C1A 4135   1.071  11.036   9.021 -0.1476  0.0962 -0.1549
  259loPI   C2A 4136   1.166  10.951   8.621 -0.2570  0.1613  0.4064
  259loPI   C3A 4137   1.026  11.092   8.204  0.0918 -0.2320 -0.3343
  259loPI   C4A 4138   0.741  11.064   7.918 -0.0582 -0.0901  0.0508
  259loPI   C5A 4139   0.325  11.156   7.655 -0.0342  0.0397  0.1681
  259loPI   C6A 4140   0.153  11.547   7.456 -0.2120 -0.0169  0.1489
  259loPI   C1B 4141   0.750  11.543   8.986 -0.2375 -0.2373  0.1500
  259loPI   C2B 4142   0.580  11.629   8.572  0.0260  0.0108 -0.0256
  259loPI   C3B 4143   0.429  11.958   8.405 -0.3732  0.1730  0.1179
  259loPI   C4B 4144   0.370  12.331   8.588  0.4052 -0.1820  0.0929
  260loPI    C1 4145  16.206   1.907   9.524  0.0956 -0.0332 -0.0758
  260loPI    C2 4146  16.343   2.258   9.658 -0.0698  0.0907 -0.2254
  260loPI    C3 4147  16.145   2.240   9.311 -0.3724 -0.0931 -0.0479
  260loPI   PO4 4148  15.930   1.840   9.620  0.1825  0.1031 -0.2965
  260loPI   GL1 4149  15.735   1.900   9.171 -0.2976 -0.2244 -0.2255
  260loPI   GL2 4150  15.842   1.462   9.185 -0.4117 -0.2495  0.1857
  260loPI   C1A 4151  15.854   2.045   8.879 -0.0263  0.1720  0.0421
  260loPI   C2A 4152  15.905   2.022   8.406 -0.0257  0.0675 -0.0774
  260loPI   C3A 4153  15.848   1.626   8.101 -0.0605  0.0803  0.2141
  260loPI   C4A 4154  15.911   1.329   7.738  0.4392  0.1705 -0.1401
  260loPI   C5A 4155  16.287   1.376   7.416 -0.2317 -0.2064 -0.3148
  260loPI   C6A 4156  16.646   1.117   7.154  0.2636 -0.0370  0.1423
  260loPI   C1B 4157  15.719   1.516   8.805  0.3527 -0.2163  0.4386
  260loPI   C2B 4158  15.507   1.744   8.446 -0.1176  0.0596 -0.2048
  260loPI   C3B 4159  15.360   1.851   8.097 -0.0124  0.0265 -0.1059
  260loPI   C4B 4160  15.313   2.041   7.848 -0.2106  0.0072 -0.0316
  261loPI    C1 4161  10.831  10.125  10.931 -0.0300  0.0923  0.1480
  261loPI    C2 4162  11.174   9.924  10.898 -0.1222 -0.0023 -0.2914
  261loPI    C3 4163  11.160  10.259  11.116  0.1281 -0.2507  0.1216
  261loPI   PO4 4164  10.657  10.204  10.654  0.1771  0.2990 -0.0877
  261loPI   GL1 4165  10.764  10.188  10.250 -0.0662  0.1966  0.1061
  261loPI   GL2 4166  10.482  10.262  10.126  0.2155 -0.0406  0.0771
  261loPI   C1A 4167  10.851  10.183   9.820 -0.2534 -0.0545  0.0994
  261loPI   C2A 4168  10.825  10.208   9.329  0.1270  0.1390  0.3981
  261loPI   C3A 4169  10.755  10.082   8.819  0.0397 -0.0641  0.0208
  261loPI   C4A 4170  10.726   9.884   8.381  0.0361 -0.0164  0.2127
  261loPI   C5A 4171  10.498  10.071   8.122  0.1649  0.0569  0.0393
  261loPI   C6A 4172  10.457  10.398   7.832 -0.0461 -0.0616  0.0143
  261loPI   C1B 4173  10.331  10.279   9.664 -0.0235  0.0981  0.2202
  261loPI   C2B 4174  10.262  10.292   9.305 -0.0770 -0.0006 -0.0236
  261loPI   C3B 4175  10.263  10.302   8.909  0.0299 -0.2901  0.0044
  261loPI   C4B 4176  10.237  10.055   8.547  0.0530 -0.2370  0.0746
  262loPI    C1 4177   8.707   7.834  11.143 -0.0842 -0.0443 -0.2884
  262loPI    C2 4178   8.628   7.606  11.462  0.2898 -0.1517 -0.2671
  262loPI    C3 4179   8.607   8.005  11.491  0.0862 -0.1674 -0.1774
  262loPI   PO4 4180   8.818   7.648  10.953 -0.0465 -0.2071  0.0481
  262loPI   GL1 4181   8.865   7.510  10.536  0.1401 -0.2306  0.0447
  262loPI   GL2 4182   8.929   7.175  10.370  0.0897  0.2206  0.2088
  262loPI   C1A 4183   8.829   7.769  10.114 -0.1352 -0.2903  0.2588
  262loPI   C2A 4184   8.783   7.868   9.675  0.0842  0.0323  0.2796
  262loPI   C3A 4185   8.789   7.818   9.274 -0.0813  0.1272  0.2341
  262loPI   C4A 4186   8.796   7.830   8.874 -0.0321 -0.0792  0.0599
  262loPI   C5A 4187   8.783   7.816   8.428 -0.1376  0.1406  0.0541
  262loPI   C6A 4188   8.771   7.803   7.955  0.1820  0.0460 -0.1014
  262loPI   C1B 4189   9.024   7.324   9.981  0.1547  0.0370  0.0979
  262loPI   C2B 4190   8.958   7.403   9.569 -0.0237  0.4267 -0.2480
  262loPI   C3B 4191   8.889   7.364   9.157  0.0310  0.1025  0.5554
  262loPI   C4B 4192   8.892   7.365   8.682  0.3671  0.0173  0.0121
  263loPI    C1 4193  14.595   7.953  10.262  0.2099  0.1833 -0.0118
  263loPI    C2 4194  14.573   7.871  10.653 -0.0850  0.0884 -0.0454
  263loPI    C3 4195  14.683   8.236  10.531 -0.1306  0.1611  0.1285
  263loPI   PO4 4196  14.375   7.894  10.170  0.0491 -0.0859  0.0212
  263loPI   GL1 4197  14.166   7.723   9.783 -0.0883  0.1206  0.2822
  263loPI   GL2 4198  14.262   7.395   9.718  0.0087  0.3754  0.1449
  263loPI   C1A 4199  13.972   7.826   9.409  0.2160  0.1197 -0.0755
  263loPI   C2A 4200  13.913   7.778   8.991  0.2241  0.1258 -0.0771
  263loPI   C3A 4201  14.035   7.438   8.657  0.2356 -0.1691 -0.2353
  263loPI   C4A 4202  13.913   7.259   8.301 -0.2438  0.1985 -0.0409
  263loPI   C5A 4203  13.848   7.357   7.830  0.2178 -0.4747  0.0759
  263loPI   C6A 4204  13.922   7.665   7.613  0.0213  0.0862  0.2946
  263loPI   C1B 4205  14.318   7.475   9.265 -0.0113  0.1190  0.2914
  263loPI   C2B 4206  14.424   7.873   9.059  0.0618  0.1572  0.4146
  263loPI   C3B 4207  14.256   7.910   8.655 -0.1085 -0.2161 -0.4193
  263loPI   C4B 4208  13.852   8.003   8.538  0.0535 -0.0822 -0.1818
  264loPI    C1 4209   5.842   9.005  10.495  0.2446  0.0001  0.1072
  264loPI    C2 4210   5.632   8.672  10.427  0.3121 -0.0237  0.0114
  264loPI    C3 4211   5.469   8.973  10.635  0.1661 -0.0219 -0.1040
  264loPI   PO4 4212   6.007   9.038  10.174  0.5052  0.0344 -0.1969
  264loPI   GL1 4213   6.129   8.963   9.748 -0.1918 -0.1267 -0.0633
  264loPI   GL2 4214   6.124   9.375   9.795 -0.0774  0.0755  0.2217
  264loPI   C1A 4215   6.187   9.136   9.331 -0.1476  0.1857  0.2086
  264loPI   C2A 4216   6.242   9.331   8.911 -0.1967 -0.2515  0.0267
  264loPI   C3A 4217   6.251   9.315   8.487 -0.1809  0.0240  0.1450
  264loPI   C4A 4218   6.301   9.209   8.073 -0.5925  0.1815 -0.1159
  264loPI   C5A 4219   6.370   9.384   7.643 -0.0618  0.0811  0.0287
  264loPI   C6A 4220   6.595   9.767   7.567  0.2087  0.0581  0.0002
  264loPI   C1B 4221   6.073   9.808   9.497  0.1035 -0.0667  0.0575
  264loPI   C2B 4222   6.140   9.862   8.986 -0.0275  0.3625 -0.1717
  264loPI   C3B 4223   6.137   9.835   8.590 -0.0503 -0.1417  0.2792
  264loPI   C4B 4224   6.154   9.682   8.152 -0.2387  0.2211 -0.0331
  265loPI    C1 4225   4.385   4.266  10.331  0.1852  0.2881  0.0553
  265loPI    C2 4226   4.750   4.119  10.261  0.1099  0.1167  0.0173
  265loPI    C3 4227   4.650   4.239  10.629  0.2330  0.2465  0.0091
  265loPI   PO4 4228   4.321   4.374  10.143  0.2775 -0.1802 -0.1182
  265loPI   GL1 4229   4.559   4.411   9.786  0.2174  0.1078 -0.1927
  265loPI   GL2 4230   4.802   4.571   9.762 -0.1009 -0.0343  0.0048
  265loPI   C1A 4231   4.689   4.317   9.313 -0.3830  0.0753 -0.0914
  265loPI   C2A 4232   4.793   4.365   8.873  0.2444 -0.1118 -0.1158
  265loPI   C3A 4233   4.919   4.335   8.369  0.4763  0.1289 -0.0436
  265loPI   C4A 4234   4.965   4.341   7.901 -0.0566 -0.1720 -0.1983
  265loPI   C5A 4235   5.089   4.092   7.495 -0.2573  0.1579 -0.0200
  265loPI   C6A 4236   4.948   4.172   7.051 -0.1207  0.1157 -0.0130
  265loPI   C1B 4237   5.066   4.631   9.500 -0.1731 -0.0425 -0.0662
  265loPI   C2B 4238   5.128   4.684   9.087  0.1067 -0.2371  0.0679
  265loPI   C3B 4239   5.210   4.615   8.684  0.2290  0.1412 -0.2119
  265loPI   C4B 4240   5.259   4.695   8.285 -0.0230 -0.0154 -0.1947
  266loPI    C1 4241   1.598   1.489  10.268 -0.0943  0.2932  0.1290
  266loPI    C2 4242   1.669   1.152  10.472  0.0656  0.2428 -0.0070
  266loPI    C3 4243   1.306   1.221  10.320 -0.0337  0.2454  0.2265
  266loPI   PO4 4244   1.678   1.509   9.998 -0.3379  0.1814  0.1994
  266loPI   GL1 4245   1.430   1.626   9.708  0.1706  0.1923 -0.0139
  266loPI   GL2 4246   1.136   1.599   9.680 -0.2210 -0.1800 -0.0827
  266loPI   C1A 4247   1.531   1.695   9.264 -0.0381 -0.0705  0.0311
  266loPI   C2A 4248   1.550   1.804   8.879 -0.0098  0.1903 -0.2121
  266loPI   C3A 4249   1.623   1.807   8.478 -0.0456 -0.1347  0.1919
  266loPI   C4A 4250   1.450   1.669   8.124  0.0842 -0.0238 -0.1833
  266loPI   C5A 4251   1.425   1.518   7.642  0.1635  0.2805  0.1212
  266loPI   C6A 4252   1.748   1.331   7.387  0.0596  0.0501  0.0384
  266loPI   C1B 4253   1.004   1.631   9.302 -0.3526  0.0452  0.1404
  266loPI   C2B 4254   1.155   1.526   8.966 -0.0723 -0.1650  0.1751
  266loPI   C3B 4255   1.042   1.292   8.673 -0.1349 -0.0766 -0.1251
  266loPI   C4B 4256   1.100   1.396   8.283  0.0861 -0.1343 -0.0327
  267loPI    C1 4257  14.379   9.458  10.069  0.0534  0.1307  0.1893
  267loPI    C2 4258  14.763   9.359  10.121 -0.0024 -0.1915  0.0137
  267loPI    C3 4259  14.485   9.219  10.372 -0.0417 -0.2116 -0.0408
  267loPI   PO4 4260  14.247   9.341   9.833  0.2010  0.2543 -0.0782
  267loPI   GL1 4261  14.249   9.519   9.496 -0.5949  0.0795  0.1514
  267loPI   GL2 4262  14.140   9.828   9.484 -0.2504 -0.1842 -0.2547
  267loPI   C1A 4263  14.168   9.354   9.100 -0.0694  0.0720  0.0627
  267loPI   C2A 4264  14.025   9.483   8.647 -0.0899  0.1113 -0.2030
  267loPI   C3A 4265  13.890   9.307   8.160  0.1296 -0.2270  0.2291
  267loPI   C4A 4266  13.718   9.311   7.704 -0.0175  0.0622  0.0212
  267loPI   C5A 4267  13.297   9.273   7.458  0.0617  0.2421 -0.0222
  267loPI   C6A 4268  13.023   9.563   7.202  0.1409 -0.0895 -0.1178
  267loPI   C1B 4269  14.042   9.950   9.073 -0.0001 -0.0493  0.0027
  267loPI   C2B 4270  13.954   9.990   8.676  0.0890 -0.0993 -0.0556
  267loPI   C3B 4271  13.813   9.902   8.164 -0.0458 -0.2225  0.0088
  267loPI   C4B 4272  13.816   9.951   7.730  0.2084  0.2430  0.1091
  268loPI    C1 4273  14.609   1.088  10.007  0.1859 -0.0546 -0.0897
  268loPI    C2 4274  14.925   0.886  10.147 -0.0339 -0.5353 -0.2625
  268loPI    C3 4275  14.605   0.941  10.379  0.1378 -0.1160 -0.1143
  268loPI   PO4 4276  14.629   1.032   9.731 -0.1769  0.1201 -0.2271
  268loPI   GL1 4277  14.388   0.887   9.539  0.2725 -0.0245 -0.0175
  268loPI   GL2 4278  14.365   1.166   9.305  0.0009 -0.1459 -0.2173
  268loPI   C1A 4279  14.447   0.700   9.139 -0.2200 -0.1727  0.2885
  268loPI   C2A 4280  14.456   0.642   8.741  0.0722 -0.0144  0.0203
  268loPI   C3A 4281  14.340   0.674   8.366  0.0037 -0.1711  0.4416
  268loPI   C4A 4282  14.268   0.686   7.986 -0.1098  0.0918  0.0491
  268loPI   C5A 4283  14.071   0.649   7.645 -0.2347  0.3938 -0.1524
  268loPI   C6A 4284  14.218   0.407   7.250 -0.1424 -0.1404 -0.1585
  268loPI   C1B 4285  14.260   1.200   8.915  0.0334  0.2859  0.0888
  268loPI   C2B 4286  14.254   1.187   8.374 -0.0872 -0.1630 -0.0865
  268loPI   C3B 4287  14.161   1.215   7.911  0.2111  0.4359  0.1405
  268loPI   C4B 4288  13.953   1.139   7.635  0.0004 -0.3451  0.3540
  269loPI    C1 4289   2.901  16.918  10.176 -0.1513  0.1700 -0.1616
  269loPI    C2 4290   2.830  17.143  10.499 -0.3772  0.2049 -0.2340
  269loPI    C3 4291   2.783  16.746  10.518  0.1238  0.1452 -0.0761
  269loPI   PO4 4292   2.791  17.061   9.993 -0.0738  0.1073 -0.5808
  269loPI   GL1 4293   3.180  17.232   9.689 -0.0413  0.0016  0.0436
  269loPI   GL2 4294   3.321  17.002   9.451 -0.0063  0.0793 -0.0351
  269loPI   C1A 4295   3.059  17.471   9.406  0.0207  0.3531 -0.1066
  269loPI   C2A 4296   3.046  17.586   8.995  0.3616 -0.0944 -0.0195
  269loPI   C3A 4297   3.136  17.637   8.475 -0.1701  0.0607 -0.0761
  269loPI   C4A 4298   3.158  17.669   8.031  0.1787  0.0436 -0.1834
  269loPI   C5A 4299   2.759  17.599   7.634 -0.1266  0.1779  0.2347
  269loPI   C6A 4300   2.377  17.422   7.718  0.2221 -0.1541 -0.0045
  269loPI   C1B 4301   3.321  17.178   9.073  0.3668  0.1732  0.2206
  269loPI   C2B 4302   3.246  17.200   8.705 -0.0083 -0.0009  0.3576
  269loPI   C3B 4303   3.527  17.280   8.579 -0.2374  0.1978  0.1959
  269loPI   C4B 4304   3.584  17.525   8.254  0.0913 -0.1311 -0.3457
  270loPI    C1 4305   0.985  15.415   9.921  0.1076 -0.0325  0.1936
  270loPI    C2 4306   1.134  15.623  10.228  0.0951  0.0126  0.1691
  270loPI    C3 4307   1.054  15.807   9.882  0.1992 -0.0566  0.1075
  270loPI   PO4 4308   1.125  15.177   9.894 -0.2065 -0.0654  0.0894
  270loPI   GL1 4309   1.235  14.913   9.572  0.0798  0.0338  0.1573
  270loPI   GL2 4310   1.540  14.816   9.404 -0.0768  0.0605  0.0856
  270loPI   C1A 4311   1.274  15.206   9.130 -0.0217  0.0385 -0.1209
  270loPI   C2A 4312   1.390  15.208   8.718 -0.1887 -0.4700 -0.1017
  270loPI   C3A 4313   1.375  15.255   8.185 -0.0524  0.0973 -0.3812
  270loPI   C4A 4314   1.515  15.248   7.775 -0.2615  0.0306  0.2163
  270loPI   C5A 4315   1.663  15.525   7.503 -0.0454 -0.0503  0.4060
  270loPI   C6A 4316   1.587  15.603   7.070  0.3679  0.2280  0.2183
  270loPI   C1B 4317   1.621  14.853   8.973 -0.1667 -0.0629 -0.1985
  270loPI   C2B 4318   1.509  14.816   8.469  0.0672  0.2822  0.0296
  270loPI   C3B 4319   1.465  14.715   7.980 -0.1632  0.2398  0.0661
  270loPI   C4B 4320   1.515  14.767   7.569 -0.0327 -0.1718  0.1677
  271loPI    C1 4321   4.413   0.674  10.761  0.1322 -0.0439  0.1792
  271loPI    C2 4322   4.197   0.930  10.979 -0.0432  0.0929 -0.1483
  271loPI    C3 4323   4.461   0.688  11.158 -0.2540  0.1305  0.2235
  271loPI   PO4 4324   4.390   0.762  10.516  0.0873 -0.0059 -0.3124
  271loPI   GL1 4325   4.589   0.848  10.130 -0.0783 -0.3231 -0.0838
  271loPI   GL2 4326   4.759   0.940   9.999 -0.3461 -0.1820 -0.0833
  271loPI   C1A 4327   4.550   0.628   9.724 -0.0616 -0.0204 -0.0074
  271loPI   C2A 4328   4.634   0.649   9.291  0.2365  0.0996 -0.2412
  271loPI   C3A 4329   4.662   0.608   8.853  0.0633 -0.1954 -0.0354
  271loPI   C4A 4330   4.696   0.487   8.457  0.0970 -0.1664  0.1406
  271loPI   C5A 4331   4.786   0.475   7.974  0.2356  0.2625  0.0220
  271loPI   C6A 4332   4.917   0.506   7.496  0.0302  0.0103 -0.1106
  271loPI   C1B 4333   4.913   0.997   9.565  0.1003 -0.2310 -0.0386
  271loPI   C2B 4334   5.030   1.018   9.184  0.1662 -0.1357 -0.0867
  271loPI   C3B 4335   5.072   0.882   8.695  0.1107  0.0880  0.0238
  271loPI   C4B 4336   5.059   0.912   8.242  0.1767 -0.0586  0.1795
  272loPI    C1 4337   0.397  14.423   9.612  0.1156  0.1173  0.0536
  272loPI    C2 4338   0.560  14.233   9.924 -0.0068  0.1852  0.1597
  272loPI    C3 4339   0.170  14.191   9.845  0.0885 -0.1021 -0.1858
  272loPI   PO4 4340   0.493  14.573   9.544 -0.0280 -0.2928  0.0481
  272loPI   GL1 4341   0.922  14.628   9.262 -0.1158  0.2677  0.0945
  272loPI   GL2 4342   0.737  14.945   9.204 -0.1004 -0.1805  0.1761
  272loPI   C1A 4343   1.088  14.784   8.937 -0.3048 -0.1675  0.0845
  272loPI   C2A 4344   0.876  15.115   8.740 -0.0362 -0.0607  0.0007
  272loPI   C3A 4345   0.911  15.328   8.406  0.1373 -0.1792  0.1629
  272loPI   C4A 4346   0.622  15.361   8.140 -0.0736  0.3280 -0.1496
  272loPI   C5A 4347   0.338  15.269   7.866  0.2622  0.1972  0.3306
  272loPI   C6A 4348  -0.030  15.493   7.710  0.0782  0.0093 -0.1358
  272loPI   C1B 4349   0.620  14.672   8.813 -0.0782 -0.1635 -0.0747
  272loPI   C2B 4350   0.564  14.324   8.555 -0.1857 -0.1118 -0.1711
  272loPI   C3B 4351   0.572  13.848   8.423 -0.2487 -0.4979 -0.0995
  272loPI   C4B 4352   0.605  13.583   8.310 -0.2645  0.0917 -0.2001
  273loPI    C1 4353   3.212  10.750  10.069 -0.1093 -0.1937 -0.1150
  273loPI    C2 4354   2.961  10.954  10.303 -0.0606  0.0074 -0.2360
  273loPI    C3 4355   3.309  10.825  10.450  0.0595  0.3081 -0.2493
  273loPI   PO4 4356   3.265  10.884   9.832 -0.4238 -0.2119  0.0312
  273loPI   GL1 4357   3.286  10.573   9.475 -0.1875  0.1262 -0.2666
  273loPI   GL2 4358   2.917  10.735   9.379 -0.1965  0.0505 -0.1460
  273loPI   C1A 4359   3.491  10.716   9.094 -0.2318 -0.1000 -0.0356
  273loPI   C2A 4360   3.657  10.667   8.643 -0.0955  0.0554  0.4621
  273loPI   C3A 4361   3.583  10.644   8.114  0.1915  0.2612  0.1093
  273loPI   C4A 4362   3.499  10.615   7.640 -0.0192  0.0177  0.2053
  273loPI   C5A 4363   3.442  10.249   7.410  0.0670 -0.2722  0.0311
  273loPI   C6A 4364   3.306   9.886   7.220 -0.0740  0.0180  0.0775
  273loPI   C1B 4365   3.016  10.563   9.033 -0.3112  0.0353  0.0805
  273loPI   C2B 4366   3.199  10.684   8.606  0.1717 -0.2907 -0.4511
  273loPI   C3B 4367   3.076  10.805   8.226  0.0324  0.1236  0.0925
  273loPI   C4B 4368   3.117  10.924   7.792 -0.2063  0.0895  0.4530
  274loPI    C1 4369   7.275   7.172  10.674  0.0669 -0.0139 -0.0690
  274loPI    C2 4370   7.658   7.057  10.681  0.0899  0.0291 -0.4265
  274loPI    C3 4371   7.467   7.135  11.023  0.4028  0.0197 -0.2452
  274loPI   PO4 4372   7.183   6.955  10.604 -0.0947 -0.1095 -0.1834
  274loPI   GL1 4373   7.062   6.652  10.168 -0.3093  0.0741  0.1825
  274loPI   GL2 4374   7.007   7.008   9.960 -0.1030 -0.0425  0.3999
  274loPI   C1A 4375   7.220   6.462   9.785 -0.2054  0.0030 -0.0697
  274loPI   C2A 4376   7.259   6.501   9.351  0.0521 -0.2925 -0.2091
  274loPI   C3A 4377   7.208   6.519   8.908  0.1821  0.0469  0.2123
  274loPI   C4A 4378   7.176   6.361   8.479 -0.1903  0.0187  0.0294
  274loPI   C5A 4379   7.125   6.241   8.118 -0.0908  0.0800  0.0373
  274loPI   C6A 4380   7.360   6.296   7.833 -0.0073 -0.0366 -0.0500
  274loPI   C1B 4381   7.154   6.945   9.562  0.1300 -0.1672 -0.0324
  274loPI   C2B 4382   7.079   6.966   9.193  0.1073 -0.4454 -0.2061
  274loPI   C3B 4383   7.160   7.052   8.785 -0.4297  0.1480 -0.6846
  274loPI   C4B 4384   7.141   6.879   8.361  0.1033  0.1785  0.1808
  275loPI    C1 4385   1.806   2.066  10.664 -0.0931 -0.1233 -0.0080
  275loPI    C2 4386   2.145   2.041  10.874 -0.0871  0.0337  0.0020
  275loPI    C3 4387   1.793   2.011  11.060 -0.0836  0.3063  0.0566
  275loPI   PO4 4388   1.839   1.925  10.455 -0.3071 -0.0912 -0.0950
  275loPI   GL1 4389   2.000   1.977  10.071  0.2597  0.1862  0.0456
  275loPI   GL2 4390   2.196   1.820   9.921 -0.0005 -0.1512  0.1433
  275loPI   C1A 4391   1.848   1.945   9.579 -0.1459 -0.2362  0.0281
  275loPI   C2A 4392   1.880   2.052   9.195  0.2336  0.0625  0.0359
  275loPI   C3A 4393   1.996   2.065   8.774 -0.0427  0.2724 -0.0702
  275loPI   C4A 4394   2.023   2.134   8.312 -0.0748 -0.1515  0.1036
  275loPI   C5A 4395   1.889   1.874   7.976 -0.3245 -0.3510 -0.1403
  275loPI   C6A 4396   1.607   1.995   7.729 -0.0239  0.1489  0.0209
  275loPI   C1B 4397   2.467   1.747   9.500  0.2580  0.1597 -0.2058
  275loPI   C2B 4398   2.416   1.857   9.061  0.3120  0.1292  0.4417
  275loPI   C3B 4399   2.414   1.871   8.630 -0.0235 -0.0214 -0.1689
  275loPI   C4B 4400   2.486   1.985   8.170  0.0276 -0.0773 -0.0519
  276loPI    C1 4401  13.370   0.202  10.188 -0.1461  0.0274  0.0049
  276loPI    C2 4402  13.387  -0.172  10.046 -0.1805  0.0203  0.0195
  276loPI    C3 4403  13.339  -0.109  10.438  0.2955  0.0386  0.0808
  276loPI   PO4 4404  13.274   0.287   9.946  0.1202  0.1206 -0.0893
  276loPI   GL1 4405  13.025   0.088   9.633  0.0844  0.1459  0.0446
  276loPI   GL2 4406  12.811   0.273   9.710 -0.0885  0.4813  0.4098
  276loPI   C1A 4407  13.127   0.020   9.202 -0.4087 -0.0518 -0.2162
  276loPI   C2A 4408  13.046   0.057   8.690  0.1160 -0.0696  0.2632
  276loPI   C3A 4409  12.993   0.049   8.284 -0.1564 -0.1816  0.0919
  276loPI   C4A 4410  13.139  -0.081   7.910 -0.0181 -0.1953  0.0279
  276loPI   C5A 4411  13.205   0.147   7.482  0.1732  0.0785 -0.3543
  276loPI   C6A 4412  13.429   0.205   7.139 -0.1134  0.1329 -0.2840
  276loPI   C1B 4413  12.663   0.164   9.290 -0.1476  0.1754 -0.1921
  276loPI   C2B 4414  12.510   0.237   8.800 -0.0397  0.0692 -0.0652
  276loPI   C3B 4415  12.534   0.232   8.363 -0.0756  0.1068  0.3399
  276loPI   C4B 4416  12.387   0.343   7.822 -0.1434 -0.0278 -0.2549
  277loPI    C1 4417  13.078  16.188  10.283  0.0797 -0.1749  0.0310
  277loPI    C2 4418  12.866  16.140  10.619  0.0508 -0.0814  0.0266
  277loPI    C3 4419  13.125  16.443  10.588  0.1207 -0.1436 -0.0015
  277loPI   PO4 4420  12.864  16.261  10.077  0.2293 -0.0207  0.1066
  277loPI   GL1 4421  12.912  16.559   9.734  0.2591  0.2599  0.2121
  277loPI   GL2 4422  12.587  16.728   9.871 -0.1308 -0.3572 -0.1067
  277loPI   C1A 4423  12.828  16.615   9.180 -0.1519 -0.2864 -0.0945
  277loPI   C2A 4424  12.723  16.655   8.735  0.1233  0.0558  0.1914
  277loPI   C3A 4425  12.568  16.561   8.226  0.0137 -0.0909 -0.1756
  277loPI   C4A 4426  12.582  16.801   7.819  0.0061 -0.2710  0.0955
  277loPI   C5A 4427  12.296  16.892   7.454  0.3458 -0.0089 -0.5893
  277loPI   C6A 4428  12.216  16.869   7.050  0.1442  0.2385  0.1701
  277loPI   C1B 4429  12.433  16.759   9.521  0.2837  0.1934 -0.1261
  277loPI   C2B 4430  12.375  16.837   9.090 -0.0633  0.0819  0.0846
  277loPI   C3B 4431  12.173  16.890   8.777 -0.3144 -0.0780  0.3629
  277loPI   C4B 4432  12.108  16.804   8.353 -0.1763 -0.0638 -0.0238
  278loPI    C1 4433   8.543   4.379  10.708 -0.0705  0.0529  0.1415
  278loPI    C2 4434   8.898   4.539  10.799 -0.0401  0.1581 -0.1517
  278loPI    C3 4435   8.785   4.194  10.966  0.2214  0.0990 -0.0937
  278loPI   PO4 4436   8.553   4.343  10.375  0.2006 -0.4648  0.1778
  278loPI   GL1 4437   8.856   4.375  10.078 -0.0829  0.1804  0.1570
  278loPI   GL2 4438   8.953   4.645  10.221 -0.1099  0.3625  0.2091
  278loPI   C1A 4439   8.937   4.371   9.768  0.1409  0.0707  0.0837
  278loPI   C2A 4440   9.003   4.392   9.361  0.4072  0.0247 -0.0555
  278loPI   C3A 4441   9.056   4.418   8.950 -0.3598 -0.0893  0.0218
  278loPI   C4A 4442   8.967   4.332   8.556 -0.0993  0.2073 -0.1635
  278loPI   C5A 4443   9.014   4.417   8.032 -0.3602  0.2702 -0.1739
  278loPI   C6A 4444   8.938   4.868   7.841  0.0831 -0.0207 -0.1357
  278loPI   C1B 4445   8.941   4.863   9.786 -0.2323 -0.0835  0.1960
  278loPI   C2B 4446   8.861   4.851   9.400 -0.4352  0.2085  0.1808
  278loPI   C3B 4447   8.905   4.956   9.025  0.0766  0.1221  0.0219
  278loPI   C4B 4448   8.881   4.849   8.623 -0.1680  0.2495  0.1621
  279loPI    C1 4449  14.030  16.334  10.282  0.1066 -0.2111 -0.1846
  279loPI    C2 4450  13.992  15.978  10.460 -0.0976 -0.0554  0.0917
  279loPI    C3 4451  14.294  16.221  10.561  0.0311 -0.1403 -0.0834
  279loPI   PO4 4452  13.885  16.281  10.034 -0.0186 -0.1837 -0.1155
  279loPI   GL1 4453  13.760  16.157   9.680 -0.3416 -0.1277 -0.0010
  279loPI   GL2 4454  13.913  15.918   9.566 -0.0375 -0.0314  0.0880
  279loPI   C1A 4455  13.539  16.053   9.357 -0.2240  0.1836 -0.3148
  279loPI   C2A 4456  13.307  15.973   9.033  0.0594 -0.2610  0.3939
  279loPI   C3A 4457  13.295  15.981   8.576  0.0361 -0.0605  0.0018
  279loPI   C4A 4458  13.394  15.996   8.205 -0.0450 -0.2175  0.1656
  279loPI   C5A 4459  13.164  16.034   7.964  0.1747  0.2521 -0.0558
  279loPI   C6A 4460  12.963  16.230   7.567 -0.0512 -0.2482 -0.2120
  279loPI   C1B 4461  13.621  15.586   9.379  0.1987  0.1097  0.0471
  279loPI   C2B 4462  13.447  15.493   8.972  0.0404  0.0791  0.0386
  279loPI   C3B 4463  13.479  15.507   8.608  0.4569 -0.2826 -0.0185
  279loPI   C4B 4464  13.423  15.375   8.121 -0.1172 -0.1581 -0.2353
  280loPI    C1 4465   7.096   1.022  10.244  0.0639  0.4659  0.0688
  280loPI    C2 4466   7.153   0.808  10.577 -0.1105  0.1183 -0.1188
  280loPI    C3 4467   6.895   1.114  10.577 -0.0122  0.2035  0.0973
  280loPI   PO4 4468   7.260   1.067  10.109 -0.0717  0.0099  0.0506
  280loPI   GL1 4469   7.375   0.947   9.624 -0.0126 -0.2679 -0.1333
  280loPI   GL2 4470   7.047   0.820   9.731 -0.0763 -0.1395 -0.4112
  280loPI   C1A 4471   7.362   1.050   9.282  0.0089 -0.0351 -0.1120
  280loPI   C2A 4472   7.311   1.060   8.800  0.4018  0.1022  0.0425
  280loPI   C3A 4473   7.403   1.167   8.389  0.0775  0.1413  0.1695
  280loPI   C4A 4474   7.401   1.165   7.926  0.1892  0.2273 -0.1370
  280loPI   C5A 4475   7.118   1.239   7.593  0.2827  0.1272 -0.1886
  280loPI   C6A 4476   6.905   1.267   7.197  0.1842 -0.3434  0.2213
  280loPI   C1B 4477   6.965   0.702   9.346 -0.1985 -0.1331  0.0290
  280loPI   C2B 4478   6.894   0.763   8.907  0.0095 -0.0880 -0.3354
  280loPI   C3B 4479   6.954   0.805   8.458 -0.2799  0.1251 -0.0427
  280loPI   C4B 4480   7.135   0.757   8.061  0.0747 -0.0687 -0.1865
  281loPI    C1 4481  11.228  12.235  10.674  0.2330  0.0480 -0.1003
  281loPI    C2 4482  11.318  11.856  10.763 -0.1924 -0.0188  0.0710
  281loPI    C3 4483  11.486  12.155  10.968  0.1163 -0.1119 -0.0401
  281loPI   PO4 4484  11.232  12.360  10.435 -0.4421  0.0877  0.1436
  281loPI   GL1 4485  11.064  12.291  10.038  0.0013 -0.3104 -0.0664
  281loPI   GL2 4486  10.854  12.227   9.907  0.3305  0.2287  0.0331
  281loPI   C1A 4487  11.326  12.044   9.685 -0.0955  0.2100  0.2444
  281loPI   C2A 4488  11.301  11.871   9.194  0.1422 -0.5285 -0.2206
  281loPI   C3A 4489  11.241  11.890   8.752 -0.3542 -0.1152 -0.0200
  281loPI   C4A 4490  11.268  11.892   8.352 -0.0679 -0.0450 -0.0704
  281loPI   C5A 4491  11.197  12.007   7.899  0.0056  0.2153  0.0724
  281loPI   C6A 4492  11.024  12.349   7.803  0.1910  0.0180 -0.2296
  281loPI   C1B 4493  10.938  12.112   9.465  0.0010  0.1189 -0.0708
  281loPI   C2B 4494  10.796  12.007   9.044 -0.3451  0.0695  0.3598
  281loPI   C3B 4495  10.765  12.068   8.536  0.0827  0.1286  0.2256
  281loPI   C4B 4496  10.586  12.073   8.143  0.1545 -0.0561 -0.0126
  282loPI    C1 4497   2.769   2.431  10.488  0.0173  0.0550  0.0618
  282loPI    C2 4498   2.510   2.411  10.793  0.0477 -0.1979  0.0733
  282loPI    C3 4499   2.804   2.142  10.762  0.0412 -0.1782 -0.1843
  282loPI   PO4 4500   2.564   2.601  10.219 -0.4652 -0.1554  0.1700
  282loPI   GL1 4501   2.630   2.750   9.773 -0.0060 -0.2997 -0.3580
  282loPI   GL2 4502   2.363   2.858   9.725  0.2096  0.1524 -0.2487
  282loPI   C1A 4503   2.788   2.629   9.393 -0.4843  0.4593 -0.1785
  282loPI   C2A 4504   2.708   2.657   8.976 -0.1547 -0.2250 -0.1215
  282loPI   C3A 4505   2.817   2.727   8.583  0.0859  0.0893 -0.0875
  282loPI   C4A 4506   2.902   2.622   8.180  0.0177 -0.2275 -0.1217
  282loPI   C5A 4507   2.952   2.774   7.813  0.2681  0.0479  0.3221
  282loPI   C6A 4508   2.637   2.869   7.584 -0.1461 -0.0282 -0.0383
  282loPI   C1B 4509   2.446   2.953   9.331 -0.3131  0.0813 -0.0166
  282loPI   C2B 4510   2.268   2.926   8.907 -0.2108  0.2069  0.0854
  282loPI   C3B 4511   2.322   2.949   8.532  0.1526  0.0478  0.2212
  282loPI   C4B 4512   2.446   2.845   8.043 -0.0918 -0.0029 -0.1513
  283loPI    C1 4513  11.737  10.158  11.029 -0.1629 -0.0415 -0.0855
  283loPI    C2 4514  11.515  10.043  11.341 -0.0440  0.2004  0.0920
  283loPI    C3 4515  11.747  10.367  11.370  0.0101  0.1942 -0.2320
  283loPI   PO4 4516  11.621  10.140  10.788 -0.4244  0.0502 -0.1529
  283loPI   GL1 4517  11.626   9.988  10.434  0.0058 -0.0682  0.4105
  283loPI   GL2 4518  11.634  10.218  10.261  0.1044  0.0758 -0.2120
  283loPI   C1A 4519  11.453   9.529  10.224  0.3793 -0.0394  0.2624
  283loPI   C2A 4520  11.399   9.510   9.741 -0.2384  0.0485 -0.0895
  283loPI   C3A 4521  11.300   9.500   9.322  0.2964  0.0644  0.0989
  283loPI   C4A 4522  11.348   9.407   8.923  0.2211 -0.0823 -0.0799
  283loPI   C5A 4523  11.285   9.381   8.399 -0.1823 -0.2425 -0.2334
  283loPI   C6A 4524  11.079   9.692   8.013 -0.3281 -0.3506  0.1374
  283loPI   C1B 4525  11.533  10.346   9.781  0.0880  0.0336 -0.0779
  283loPI   C2B 4526  11.675  10.414   9.411 -0.1552  0.0667 -0.2405
  283loPI   C3B 4527  11.608  10.391   9.013 -0.0547 -0.1702 -0.0820
  283loPI   C4B 4528  11.566  10.258   8.608  0.0360 -0.0067  0.1006
  284loPI    C1 4529   4.054  13.152  10.604  0.0525 -0.1684  0.1441
  284loPI    C2 4530   3.828  13.396  10.826  0.1300  0.2795 -0.2516
  284loPI    C3 4531   4.218  13.359  10.904  0.0978  0.1993 -0.1265
  284loPI   PO4 4532   4.062  13.255  10.376  0.1126 -0.2526  0.2652
  284loPI   GL1 4533   4.240  13.301   9.924  0.0625  0.2071  0.1037
  284loPI   GL2 4534   4.198  13.006   9.840  0.0284  0.0885  0.0612
  284loPI   C1A 4535   3.984  13.297   9.498  0.0002 -0.0968  0.0066
  284loPI   C2A 4536   3.999  13.397   9.147  0.1340 -0.0121  0.0216
  284loPI   C3A 4537   3.933  13.318   8.687 -0.0809  0.0529 -0.1558
  284loPI   C4A 4538   4.005  13.389   8.330 -0.0654  0.0852  0.1589
  284loPI   C5A 4539   4.092  13.434   7.851  0.0003  0.2241 -0.2169
  284loPI   C6A 4540   4.321  13.155   7.608 -0.1459 -0.1298 -0.5187
  284loPI   C1B 4541   4.169  12.828   9.425  0.2047 -0.0748  0.1977
  284loPI   C2B 4542   4.043  12.800   8.861 -0.2864 -0.1131 -0.0871
  284loPI   C3B 4543   3.997  12.907   8.386 -0.3669  0.1255 -0.1983
  284loPI   C4B 4544   4.078  12.892   7.993 -0.1795 -0.0136 -0.2607
  285loPI    C1 4545  12.446  14.959  10.483 -0.2370  0.1610  0.1962
  285loPI    C2 4546  12.476  14.563  10.525 -0.1814  0.1407 -0.0233
  285loPI    C3 4547  12.640  14.806  10.797 -0.0456  0.0144  0.0089
  285loPI   PO4 4548  12.419  14.971  10.168 -0.1173  0.0092 -0.1496
  285loPI   GL1 4549  12.108  15.051   9.812  0.2186  0.1333 -0.2891
  285loPI   GL2 4550  11.845  15.285   9.815 -0.5147 -0.2936  0.1123
  285loPI   C1A 4551  12.183  15.092   9.395 -0.2527 -0.1055  0.1613
  285loPI   C2A 4552  12.266  15.039   8.964 -0.2872  0.1348  0.0205
  285loPI   C3A 4553  12.160  14.954   8.545  0.2100  0.3179  0.0316
  285loPI   C4A 4554  12.019  14.827   8.231  0.0514 -0.1569  0.2900
  285loPI   C5A 4555  12.004  14.596   7.856 -0.1692 -0.1324 -0.1964
  285loPI   C6A 4556  12.081  14.464   7.413 -0.0644 -0.2093 -0.0244
  285loPI   C1B 4557  11.692  15.175   9.425  0.3788 -0.2403  0.1187
  285loPI   C2B 4558  11.577  15.208   9.026  0.1265  0.1600  0.0711
  285loPI   C3B 4559  11.539  15.117   8.601  0.2118 -0.1694  0.1113
  285loPI   C4B 4560  11.546  14.980   8.190 -0.1420 -0.3133  0.0786
  286loPI    C1 4561   1.317   0.824   9.978  0.0643 -0.1899 -0.0162
  286loPI    C2 4562   1.368   0.495   9.755 -0.1183 -0.1650 -0.0968
  286loPI    C3 4563   1.611   0.567  10.064 -0.0798 -0.3779 -0.0761
  286loPI   PO4 4564   1.357   1.103   9.700  0.1186  0.1234 -0.0389
  286loPI   GL1 4565   1.075   1.116   9.357 -0.0468  0.0005  0.1681
  286loPI   GL2 4566   0.793   1.222   9.407 -0.1679 -0.2545  0.0505
  286loPI   C1A 4567   1.134   0.951   9.017 -0.0606  0.2246 -0.0331
  286loPI   C2A 4568   1.232   0.833   8.578  0.1153  0.1090 -0.5160
  286loPI   C3A 4569   1.282   0.907   8.165  0.1612 -0.2451  0.1729
  286loPI   C4A 4570   1.115   1.065   7.865 -0.1330  0.2562 -0.0224
  286loPI   C5A 4571   0.951   1.384   7.514 -0.1436  0.3506  0.0485
  286loPI   C6A 4572   0.793   1.585   7.133  0.0412 -0.0118  0.2802
  286loPI   C1B 4573   0.667   1.210   9.039 -0.3182 -0.0970 -0.0523
  286loPI   C2B 4574   0.656   0.932   8.759  0.2743 -0.0951 -0.0112
  286loPI   C3B 4575   0.770   0.933   8.402  0.1917  0.0073  0.2668
  286loPI   C4B 4576   0.612   1.070   7.973 -0.4544  0.0977 -0.1576
  287loPI    C1 4577  12.779   0.437  10.416  0.1738  0.0115 -0.2359
  287loPI    C2 4578  13.066   0.262  10.633 -0.1016 -0.1082  0.0381
  287loPI    C3 4579  12.788   0.487  10.813 -0.1184  0.0969 -0.2378
  287loPI   PO4 4580  12.902   0.545  10.149  0.3377 -0.0103 -0.1339
  287loPI   GL1 4581  13.085   0.886   9.886 -0.1864  0.1354 -0.0490
  287loPI   GL2 4582  13.200   0.679   9.706 -0.1632 -0.2536 -0.1255
  287loPI   C1A 4583  13.076   1.083   9.526  0.1720  0.0011 -0.1806
  287loPI   C2A 4584  12.857   1.079   9.117  0.1782  0.4745  0.1854
  287loPI   C3A 4585  12.862   1.123   8.692 -0.0016 -0.1960  0.1950
  287loPI   C4A 4586  12.678   1.029   8.254 -0.0613 -0.2883 -0.0559
  287loPI   C5A 4587  12.640   0.910   7.828 -0.2395 -0.0863  0.0639
  287loPI   C6A 4588  12.601   0.714   7.404 -0.1767 -0.0922 -0.0313
  287loPI   C1B 4589  12.989   0.616   9.327  0.2196  0.1322  0.1184
  287loPI   C2B 4590  12.989   0.549   8.981  0.1205  0.0955 -0.1681
  287loPI   C3B 4591  12.929   0.553   8.587  0.1146 -0.1482  0.0229
  287loPI   C4B 4592  12.912   0.612   8.171 -0.1568  0.4095  0.2105
  288loPI    C1 4593   7.060  17.389  10.768  0.0707 -0.1218 -0.1836
  288loPI    C2 4594   7.458  17.421  10.747  0.0704 -0.0025 -0.0204
  288loPI    C3 4595   7.254  17.631  11.020 -0.1257  0.1047 -0.2463
  288loPI   PO4 4596   6.979  17.469  10.531 -0.1410  0.1927  0.1667
  288loPI   GL1 4597   6.903  17.431  10.083  0.3172  0.0627 -0.0313
  288loPI   GL2 4598   7.028  17.651   9.985 -0.1990  0.1502  0.0933
  288loPI   C1A 4599   6.907  17.347   9.624  0.0843  0.0925  0.5084
  288loPI   C2A 4600   6.809  17.564   9.237  0.2968 -0.0890  0.0328
  288loPI   C3A 4601   6.899  17.579   8.733  0.0325 -0.2918  0.2231
  288loPI   C4A 4602   6.871  17.711   8.321 -0.0799 -0.1612 -0.1119
  288loPI   C5A 4603   6.998  17.834   7.868 -0.0730 -0.3505  0.0296
  288loPI   C6A 4604   6.934  17.903   7.375  0.0687  0.2090 -0.3625
  288loPI   C1B 4605   7.019  17.915   9.631 -0.0378  0.0834  0.1710
  288loPI   C2B 4606   7.142  17.980   9.179 -0.1213 -0.0225  0.1216
  288loPI   C3B 4607   7.292  18.010   8.748 -0.3571 -0.2478  0.0363
  288loPI   C4B 4608   7.314  17.986   8.291  0.1592 -0.2213 -0.2233
  289loPI    C1 4609  17.190  10.308  10.090  0.0271 -0.0540  0.0360
  289loPI    C2 4610  17.588  10.335  10.125  0.0280 -0.0002 -0.0141
  289loPI    C3 4611  17.361  10.278  10.450  0.0390  0.4471  0.0784
  289loPI   PO4 4612  17.167  10.154   9.824 -0.0948  0.2673  0.0068
  289loPI   GL1 4613  17.101  10.116   9.414  0.0418  0.2054  0.1480
  289loPI   GL2 4614  17.205   9.848   9.330  0.1150 -0.3451  0.1475
  289loPI   C1A 4615  16.964  10.136   8.949 -0.2542 -0.2365 -0.2478
  289loPI   C2A 4616  16.733  10.295   8.652  0.0797  0.0686  0.0251
  289loPI   C3A 4617  16.734  10.627   8.365  0.0204 -0.0266 -0.1814
  289loPI   C4A 4618  16.707  10.675   7.924 -0.2834 -0.1513 -0.0149
  289loPI   C5A 4619  16.646  10.748   7.514 -0.0661 -0.1834  0.1271
  289loPI   C6A 4620  16.678  11.096   7.301  0.2497  0.0573 -0.0883
  289loPI   C1B 4621  17.325   9.785   8.998  0.0511 -0.1670 -0.1224
  289loPI   C2B 4622  17.572   9.757   8.683 -0.1241 -0.0470 -0.0591
  289loPI   C3B 4623  17.799   9.764   8.331 -0.1453  0.1163  0.1059
  289loPI   C4B 4624  17.860   9.783   7.892 -0.2602 -0.1754  0.0139
  290loPI    C1 4625   4.317   3.655  10.747  0.1799 -0.0142 -0.0992
  290loPI    C2 4626   4.312   3.266  10.839  0.1166 -0.0574 -0.2802
  290loPI    C3 4627   4.010   3.502  10.952  0.0638 -0.0994 -0.3330
  290loPI   PO4 4628   4.355   3.810  10.488 -0.2028 -0.3868  0.3595
  290loPI   GL1 4629   4.287   3.856  10.000  0.0730  0.1210 -0.0177
  290loPI   GL2 4630   4.447   3.940   9.811 -0.1915 -0.0602  0.3071
  290loPI   C1A 4631   3.997   3.658   9.591  0.1044 -0.3214  0.2795
  290loPI   C2A 4632   3.948   3.718   9.203  0.3393 -0.1778 -0.1214
  290loPI   C3A 4633   3.944   3.709   8.874  0.3739  0.0268  0.3045
  290loPI   C4A 4634   3.971   3.700   8.568  0.0551 -0.0567  0.0839
  290loPI   C5A 4635   4.052   3.644   8.137  0.0583 -0.1123  0.3338
  290loPI   C6A 4636   4.287   3.602   7.768 -0.1264 -0.0258  0.0059
  290loPI   C1B 4637   4.223   4.076   9.433  0.1499  0.2582  0.0849
  290loPI   C2B 4638   4.280   4.149   9.099  0.0011 -0.1608 -0.0830
  290loPI   C3B 4639   4.388   4.154   8.666  0.0663 -0.2680  0.0273
  290loPI   C4B 4640   4.493   4.166   8.240  0.2658 -0.3718  0.0396
  291loPI    C1 4641   3.593  15.737  10.405  0.2146 -0.0269  0.0122
  291loPI    C2 4642   3.295  16.003  10.401  0.1004 -0.1537 -0.0263
  291loPI    C3 4643   3.647  16.099  10.565  0.1522  0.1184 -0.2891
  291loPI   PO4 4644   3.505  15.663  10.095  0.1478 -0.1598  0.0057
  291loPI   GL1 4645   3.458  15.819   9.660 -0.1345  0.0768  0.0762
  291loPI   GL2 4646   3.639  15.549   9.591 -0.1579  0.4538  0.0748
  291loPI   C1A 4647   3.420  16.077   9.345  0.0050  0.0310 -0.0464
  291loPI   C2A 4648   3.544  15.962   8.924  0.2866 -0.0819  0.0349
  291loPI   C3A 4649   3.511  15.950   8.473 -0.4562  0.0526 -0.3502
  291loPI   C4A 4650   3.399  16.071   8.092 -0.0827  0.2688  0.0573
  291loPI   C5A 4651   3.439  16.010   7.639  0.0536  0.0254  0.2038
  291loPI   C6A 4652   3.384  15.971   7.104  0.2532 -0.2389  0.2040
  291loPI   C1B 4653   3.615  15.549   9.175  0.2091 -0.1179 -0.0823
  291loPI   C2B 4654   3.643  15.431   8.672 -0.0997 -0.2082  0.3164
  291loPI   C3B 4655   3.733  15.290   8.203 -0.2607 -0.2977 -0.0642
  291loPI   C4B 4656   3.961  15.253   7.910  0.2480  0.2067 -0.2197
  292loPI    C1 4657   4.170  10.075  10.018  0.0772 -0.3306  0.0043
  292loPI    C2 4658   4.540  10.216   9.961  0.0243 -0.0961  0.2241
  292loPI    C3 4659   4.486   9.834  10.066  0.2051 -0.1249  0.2166
  292loPI   PO4 4660   4.068  10.177   9.773 -0.0141 -0.4326  0.0403
  292loPI   GL1 4661   4.162   9.971   9.462  0.1901 -0.2049 -0.0532
  292loPI   GL2 4662   4.428   9.742   9.506 -0.2600 -0.3284  0.2538
  292loPI   C1A 4663   4.168   9.887   9.007 -0.0217  0.0701  0.1609
  292loPI   C2A 4664   4.195   9.965   8.601  0.1241 -0.1749  0.3054
  292loPI   C3A 4665   4.217   9.876   8.162  0.2292  0.1177 -0.4835
  292loPI   C4A 4666   4.314   9.934   7.780  0.1853 -0.2681 -0.1821
  292loPI   C5A 4667   4.312  10.151   7.296  0.2275 -0.1419 -0.1019
  292loPI   C6A 4668   4.318  10.401   6.986 -0.0500 -0.2559 -0.1795
  292loPI   C1B 4669   4.637   9.754   9.055  0.2137  0.0492 -0.0572
  292loPI   C2B 4670   4.707   9.823   8.781 -0.2237 -0.0009 -0.5479
  292loPI   C3B 4671   4.701   9.754   8.438  0.2581  0.0151 -0.3711
  292loPI   C4B 4672   4.762   9.798   7.988  0.1885  0.0005  0.0355
  293loPI    C1 4673  15.766  18.795  10.099 -0.0424 -0.0973 -0.1446
  293loPI    C2 4674  15.975  18.533   9.879  0.1140 -0.0329 -0.0739
  293loPI    C3 4675  15.875  18.444  10.256  0.1506  0.0012 -0.0560
  293loPI   PO4 4676  15.645  18.968   9.850 -0.3562  0.2500  0.3240
  293loPI   GL1 4677  15.669  19.111   9.350 -0.2244 -0.0859  0.1973
  293loPI   GL2 4678  15.849  18.895   9.261 -0.3169  0.0229  0.0791
  293loPI   C1A 4679  15.478  19.118   8.881 -0.0640  0.3411 -0.2969
  293loPI   C2A 4680  15.406  19.244   8.524 -0.1866  0.0352 -0.1548
  293loPI   C3A 4681  15.382  19.315   8.114  0.2464 -0.0883  0.2108
  293loPI   C4A 4682  15.511  19.360   7.613 -0.4239  0.0501  0.1034
  293loPI   C5A 4683  15.803  19.167   7.281 -0.1322  0.1069  0.1609
  293loPI   C6A 4684  16.117  19.234   7.073 -0.1831 -0.6690 -0.3907
  293loPI   C1B 4685  15.960  18.990   8.750 -0.0421  0.1344 -0.0695
  293loPI   C2B 4686  15.834  19.023   8.336  0.3687 -0.0170 -0.0759
  293loPI   C3B 4687  15.810  19.142   7.928  0.0731  0.2155 -0.0800
  293loPI   C4B 4688  16.119  18.888   7.642  0.0376 -0.4253  0.0255
  294loPI    C1 4689   3.652   8.145  10.218 -0.1960 -0.0302  0.0190
  294loPI    C2 4690   3.395   8.376  10.418  0.1259  0.1942  0.1813
  294loPI    C3 4691   3.742   8.271  10.586  0.0642 -0.2606  0.0376
  294loPI   PO4 4692   3.442   8.045   9.981 -0.1614  0.1249  0.1824
  294loPI   GL1 4693   3.263   8.217   9.542  0.0506 -0.0805 -0.1636
  294loPI   GL2 4694   3.031   8.011   9.322  0.2942 -0.2719 -0.0501
  294loPI   C1A 4695   3.569   8.156   9.165  0.1452 -0.0206  0.1788
  294loPI   C2A 4696   3.596   8.187   8.793  0.1362 -0.0194  0.0744
  294loPI   C3A 4697   3.665   8.251   8.352  0.0415 -0.0380 -0.2943
  294loPI   C4A 4698   3.633   8.230   7.917  0.0556 -0.1681  0.0846
  294loPI   C5A 4699   3.908   7.923   7.666  0.1073 -0.0322  0.2717
  294loPI   C6A 4700   3.968   7.878   7.232 -0.1624  0.0298  0.2315
  294loPI   C1B 4701   3.059   7.847   8.885  0.2487  0.2130  0.2028
  294loPI   C2B 4702   3.284   7.860   8.448  0.1345 -0.1383  0.2127
  294loPI   C3B 4703   3.273   7.854   7.979  0.0113 -0.1830 -0.2177
  294loPI   C4B 4704   3.393   7.680   7.539 -0.0180 -0.0485 -0.2358
  295loPI    C1 4705  16.290   1.465   9.809  0.1967 -0.1786  0.1312
  295loPI    C2 4706  16.556   1.752   9.887  0.1615 -0.0322 -0.2629
  295loPI    C3 4707  16.179   1.789  10.015  0.0889  0.2321 -0.5407
  295loPI   PO4 4708  16.266   1.361   9.473 -0.0443  0.1282  0.1683
  295loPI   GL1 4709  16.274   1.207   8.977 -0.0268 -0.1119 -0.1208
  295loPI   GL2 4710  16.616   1.368   9.084 -0.3449  0.2537 -0.0361
  295loPI   C1A 4711  16.101   1.095   8.563 -0.2547 -0.3891 -0.0026
  295loPI   C2A 4712  16.220   0.987   8.188  0.1691  0.3191 -0.0215
  295loPI   C3A 4713  16.444   0.878   7.803  0.3940 -0.2009 -0.1907
  295loPI   C4A 4714  16.750   0.675   7.460 -0.0366 -0.1085 -0.0889
  295loPI   C5A 4715  17.009   0.312   7.274 -0.1051  0.1213 -0.1795
  295loPI   C6A 4716  17.030  -0.114   7.392 -0.1986  0.1172  0.0988
  295loPI   C1B 4717  16.756   1.715   8.759 -0.1301 -0.0317  0.0756
  295loPI   C2B 4718  16.711   1.716   8.412  0.1174  0.1467  0.0702
  295loPI   C3B 4719  16.848   1.826   8.047 -0.3477 -0.2824  0.2068
  295loPI   C4B 4720  16.599   1.907   7.664  0.0958  0.0511  0.0366
  296loPI    C1 4721   5.372  16.403  10.588  0.2619 -0.1661 -0.0241
  296loPI    C2 4722   5.541  16.399  10.950  0.0605 -0.0615  0.0725
  296loPI    C3 4723   5.337  16.080  10.822 -0.0743 -0.0077  0.1507
  296loPI   PO4 4724   5.588  16.385  10.383 -0.3411 -0.2714 -0.1442
  296loPI   GL1 4725   5.729  16.552   9.976  0.0347 -0.1671 -0.3750
  296loPI   GL2 4726   5.982  16.714   9.795 -0.0415 -0.0570 -0.1914
  296loPI   C1A 4727   5.418  16.454   9.681 -0.1295  0.2152  0.0299
  296loPI   C2A 4728   5.227  16.372   9.343  0.1363 -0.2754 -0.0995
  296loPI   C3A 4729   5.299  16.386   8.978  0.2828 -0.0160  0.2528
  296loPI   C4A 4730   5.259  16.331   8.419 -0.0470  0.0496 -0.2546
  296loPI   C5A 4731   5.248  16.202   8.006 -0.0785  0.0196 -0.2137
  296loPI   C6A 4732   4.985  16.305   7.657  0.1653 -0.0916  0.0596
  296loPI   C1B 4733   6.023  17.025   9.558  0.1630  0.2056  0.3040
  296loPI   C2B 4734   6.008  17.042   9.131 -0.0372 -0.0772 -0.0628
  296loPI   C3B 4735   5.877  17.053   8.689  0.3295  0.0205  0.4020
  296loPI   C4B 4736   6.000  17.174   8.339  0.0657 -0.2374 -0.2007
  297loPI    C1 4737   5.074   7.439  10.177 -0.0201 -0.1274  0.0521
  297loPI    C2 4738   4.719   7.268  10.107  0.0576 -0.2170 -0.1262
  297loPI    C3 4739   4.982   7.091  10.351 -0.0507 -0.1108  0.0691
  297loPI   PO4 4740   5.007   7.672   9.894 -0.2225 -0.1007 -0.2783
  297loPI   GL1 4741   5.211   7.685   9.550 -0.0366  0.1401  0.1383
  297loPI   GL2 4742   5.022   7.668   9.349  0.0352 -0.1518 -0.1415
  297loPI   C1A 4743   5.517   7.575   9.185  0.0269 -0.1362 -0.1341
  297loPI   C2A 4744   5.607   7.417   8.864  0.0407 -0.0872 -0.2914
  297loPI   C3A 4745   5.720   7.602   8.472 -0.0249  0.0859 -0.2295
  297loPI   C4A 4746   5.756   7.547   8.076 -0.2655 -0.0774  0.1014
  297loPI   C5A 4747   5.835   7.588   7.668 -0.0175  0.1205 -0.1647
  297loPI   C6A 4748   5.933   7.509   7.141 -0.1267  0.1545  0.1517
  297loPI   C1B 4749   5.087   7.676   8.907 -0.3145  0.2117 -0.0325
  297loPI   C2B 4750   5.279   7.761   8.460  0.0153  0.0526 -0.1252
  297loPI   C3B 4751   5.246   7.740   8.009  0.1286  0.3729  0.1819
  297loPI   C4B 4752   5.335   7.449   7.720 -0.0708 -0.1317 -0.1407
  298loPI    C1 4753   9.344   0.695  10.886  0.3643 -0.3220  0.0862
  298loPI    C2 4754   9.581   0.987  11.021  0.1351 -0.1036  0.0258
  298loPI    C3 4755   9.357   0.777  11.277  0.0833 -0.0320  0.0395
  298loPI   PO4 4756   9.194   0.770  10.705 -0.1890  0.1730 -0.0429
  298loPI   GL1 4757   9.098   0.828  10.221  0.2403 -0.1789 -0.1782
  298loPI   GL2 4758   9.276   1.089  10.152  0.2342 -0.0705 -0.0887
  298loPI   C1A 4759   8.912   0.526   9.778 -0.0611 -0.2856 -0.1390
  298loPI   C2A 4760   8.856   0.532   9.400 -0.2460  0.1654 -0.1843
  298loPI   C3A 4761   8.867   0.567   9.023 -0.2432 -0.1608 -0.0708
  298loPI   C4A 4762   8.835   0.492   8.600  0.1504 -0.2119 -0.1902
  298loPI   C5A 4763   8.868   0.616   8.237 -0.4955  0.0823  0.3471
  298loPI   C6A 4764   8.810   0.681   7.874  0.3944 -0.1197 -0.0121
  298loPI   C1B 4765   9.163   0.910   9.695  0.2033  0.0355  0.1114
  298loPI   C2B 4766   9.258   0.909   9.226  0.2642  0.2755  0.0352
  298loPI   C3B 4767   9.193   0.937   8.864  0.1734  0.1370  0.1807
  298loPI   C4B 4768   9.209   0.874   8.482 -0.1928  0.1458 -0.0440
  299loPI    C1 4769   8.453  15.101  10.452 -0.0837 -0.0502 -0.0921
  299loPI    C2 4770   8.716  15.210  10.734 -0.3041 -0.0033  0.0982
  299loPI    C3 4771   8.408  14.972  10.828 -0.5073  0.1952 -0.0517
  299loPI   PO4 4772   8.483  15.302  10.321  0.0222  0.2089 -0.2199
  299loPI   GL1 4773   8.526  15.461  10.024  0.1805  0.2987  0.1103
  299loPI   GL2 4774   8.858  15.501   9.919 -0.2359 -0.2148  0.5213
  299loPI   C1A 4775   8.225  15.247   9.717  0.1525 -0.4464 -0.1507
  299loPI   C2A 4776   8.334  15.146   9.208  0.0325 -0.1311  0.3007
  299loPI   C3A 4777   8.347  15.250   8.799  0.1543 -0.3423  0.0507
  299loPI   C4A 4778   8.199  15.331   8.329 -0.1698 -0.2628  0.0495
  299loPI   C5A 4779   8.186  15.388   7.841 -0.0567  0.3586  0.0596
  299loPI   C6A 4780   8.290  15.430   7.423 -0.0703 -0.3541  0.3311
  299loPI   C1B 4781   8.690  15.535   9.476  0.3509  0.3937 -0.0371
  299loPI   C2B 4782   8.762  15.596   9.062 -0.0297  0.0855  0.5307
  299loPI   C3B 4783   8.675  15.622   8.612 -0.4281  0.1209 -0.1918
  299loPI   C4B 4784   8.573  15.676   8.179 -0.2104 -0.2448  0.0456
  300loPI    C1 4785   8.283   3.127  10.622 -0.2052 -0.1506  0.2824
  300loPI    C2 4786   7.954   3.191  10.404 -0.0184  0.0961  0.0659
  300loPI    C3 4787   8.215   3.488  10.463  0.2699 -0.1517  0.0603
  300loPI   PO4 4788   8.373   2.885  10.525  0.0265  0.1101 -0.2822
  300loPI   GL1 4789   8.546   2.825  10.205 -0.0535  0.1344 -0.1494
  300loPI   GL2 4790   8.336   2.649  10.115  0.0683 -0.0927  0.0509
  300loPI   C1A 4791   8.834   3.001   9.971  0.3021  0.1413  0.0066
  300loPI   C2A 4792   8.915   2.878   9.551  0.0153 -0.0655  0.1086
  300loPI   C3A 4793   8.876   2.888   9.128 -0.0709  0.0064  0.0272
  300loPI   C4A 4794   8.804   2.976   8.682  0.0012 -0.1845 -0.2096
  300loPI   C5A 4795   8.710   2.863   8.271  0.1058  0.0181 -0.1280
  300loPI   C6A 4796   8.791   2.832   7.792  0.0555 -0.1246  0.0020
  300loPI   C1B 4797   8.450   2.464   9.782  0.0801 -0.1176  0.0022
  300loPI   C2B 4798   8.543   2.595   9.365  0.0006 -0.0913  0.0176
  300loPI   C3B 4799   8.492   2.552   8.986  0.1145  0.0868 -0.0935
  300loPI   C4B 4800   8.327   2.704   8.653 -0.1172  0.3587  0.0230
  301loPI    C1 4801   9.100   0.034  10.349 -0.3995 -0.1423  0.0338
  301loPI    C2 4802   8.943   0.388  10.247  0.2619  0.1303 -0.0911
  301loPI    C3 4803   8.997   0.297  10.632  0.0707  0.1527 -0.0580
  301loPI   PO4 4804   9.380   0.017  10.134  0.4411  0.0603  0.0977
  301loPI   GL1 4805   9.373   0.492   9.917  0.5047 -0.3423  0.3702
  301loPI   GL2 4806   9.322   0.288   9.703  0.2077  0.0603  0.0007
  301loPI   C1A 4807   9.673   0.645   9.541  0.2163 -0.2083  0.0446
  301loPI   C2A 4808   9.747   0.611   9.124  0.2449 -0.1129 -0.2399
  301loPI   C3A 4809   9.712   0.739   8.700 -0.0677 -0.2178 -0.1738
  301loPI   C4A 4810   9.713   0.782   8.308 -0.0849 -0.0062  0.2364
  301loPI   C5A 4811   9.377   0.929   8.028 -0.0064 -0.1027 -0.1189
  301loPI   C6A 4812   9.013   1.105   7.892 -0.2212 -0.0181  0.1701
  301loPI   C1B 4813   9.318   0.340   9.267  0.1548 -0.0095  0.2287
  301loPI   C2B 4814   9.333   0.460   8.901 -0.1342 -0.0533  0.0068
  301loPI   C3B 4815   9.332   0.328   8.438  0.1355  0.0317 -0.3428
  301loPI   C4B 4816   9.254   0.426   8.017  0.0247 -0.0406 -0.3101
  302loPI    C1 4817  13.211  13.705  10.494 -0.0684  0.0704 -0.0720
  302loPI    C2 4818  13.465  13.604  10.786  0.2907  0.0075 -0.3986
  302loPI    C3 4819  13.290  13.963  10.789  0.2981  0.0110 -0.1136
  302loPI   PO4 4820  13.372  13.618  10.284  0.0977 -0.0943  0.3965
  302loPI   GL1 4821  13.379  13.561   9.890 -0.1549 -0.0351 -0.1044
  302loPI   GL2 4822  13.375  13.343   9.808  0.2925 -0.0595 -0.0647
  302loPI   C1A 4823  13.263  13.898   9.600 -0.2099 -0.1172 -0.0492
  302loPI   C2A 4824  13.332  14.066   9.277  0.1650  0.3691  0.1953
  302loPI   C3A 4825  13.254  14.025   8.773  0.0545 -0.2101  0.0340
  302loPI   C4A 4826  13.020  14.064   8.388  0.4512  0.1862 -0.2890
  302loPI   C5A 4827  12.991  13.928   7.957  0.4398 -0.2321 -0.2006
  302loPI   C6A 4828  12.933  13.819   7.527 -0.0562 -0.2163  0.2921
  302loPI   C1B 4829  13.377  13.489   9.337  0.3399 -0.1719  0.1717
  302loPI   C2B 4830  13.298  13.584   8.875  0.2523  0.0651  0.3799
  302loPI   C3B 4831  13.252  13.421   8.391  0.3689 -0.0346  0.1984
  302loPI   C4B 4832  13.144  13.474   7.935  0.0405  0.1393  0.2067
  303loPI    C1 4833   7.200  13.444  10.540  0.1306 -0.3303 -0.0521
  303loPI    C2 4834   7.153  13.529  10.929  0.2059 -0.3399 -0.0408
  303loPI    C3 4835   6.836  13.520  10.686  0.1804 -0.1583 -0.0151
  303loPI   PO4 4836   7.329  13.238  10.459 -0.3627  0.0189 -0.0642
  303loPI   GL1 4837   7.238  13.029  10.013 -0.2431  0.0912 -0.2211
  303loPI   GL2 4838   7.307  13.266   9.877 -0.1755 -0.3316 -0.0861
  303loPI   C1A 4839   7.289  12.662   9.682 -0.1264 -0.0868  0.2824
  303loPI   C2A 4840   7.396  12.703   9.225 -0.1608  0.0817  0.1365
  303loPI   C3A 4841   7.465  12.628   8.886 -0.3258 -0.0591 -0.0014
  303loPI   C4A 4842   7.346  12.577   8.517  0.0503 -0.0019  0.0620
  303loPI   C5A 4843   7.550  12.575   8.226  0.2425 -0.0062 -0.2584
  303loPI   C6A 4844   7.401  12.381   7.808 -0.2127 -0.0813 -0.0429
  303loPI   C1B 4845   7.303  13.205   9.488  0.1467  0.0134  0.1718
  303loPI   C2B 4846   7.266  13.177   9.120  0.0183 -0.1455  0.3540
  303loPI   C3B 4847   7.238  13.123   8.745  0.3078  0.1820  0.1167
  303loPI   C4B 4848   7.357  13.197   8.240  0.1147 -0.3011 -0.0950
  304loPI    C1 4849   6.327   3.628  10.739 -0.3439  0.0347  0.2106
  304loPI    C2 4850   6.146   3.284  10.831  0.1562 -0.2709  0.0934
  304loPI    C3 4851   6.281   3.523  11.122 -0.1404 -0.1964  0.1741
  304loPI   PO4 4852   6.447   3.574  10.536 -0.3129  0.0394 -0.2325
  304loPI   GL1 4853   6.453   3.454  10.035 -0.0968 -0.0419  0.0301
  304loPI   GL2 4854   6.756   3.322   9.851 -0.2295  0.2195  0.2068
  304loPI   C1A 4855   6.346   3.414   9.604 -0.2383 -0.1657  0.0315
  304loPI   C2A 4856   6.360   3.410   9.061 -0.1104  0.1795  0.1515
  304loPI   C3A 4857   6.429   3.299   8.717  0.4504 -0.1021  0.4889
  304loPI   C4A 4858   6.412   3.336   8.188 -0.0592 -0.0750 -0.3071
  304loPI   C5A 4859   6.475   2.982   7.846  0.0566  0.1384  0.0705
  304loPI   C6A 4860   6.250   2.832   7.486 -0.0935  0.0322  0.0337
  304loPI   C1B 4861   6.940   3.450   9.524  0.1293 -0.0423  0.0625
  304loPI   C2B 4862   7.031   3.325   9.146 -0.0289  0.3780  0.0511
  304loPI   C3B 4863   6.946   3.262   8.745 -0.4192  0.1636 -0.0303
  304loPI   C4B 4864   6.923   3.141   8.347 -0.2377  0.0829 -0.1319
  305loPI    C1 4865   5.715  16.919  10.440 -0.1362 -0.2282  0.0852
  305loPI    C2 4866   5.478  17.222  10.547  0.1655 -0.1214  0.4733
  305loPI    C3 4867   5.443  16.867  10.728 -0.0545 -0.2668  0.1559
  305loPI   PO4 4868   5.800  17.092  10.179  0.3324 -0.3597 -0.2152
  305loPI   GL1 4869   5.861  17.390   9.867 -0.0099  0.0707 -0.1267
  305loPI   GL2 4870   6.246  17.234   9.925 -0.0108 -0.0215  0.0056
  305loPI   C1A 4871   5.717  17.444   9.433 -0.3499 -0.1400  0.1320
  305loPI   C2A 4872   5.839  17.568   8.978 -0.4159  0.1653  0.0396
  305loPI   C3A 4873   5.811  17.572   8.516  0.1635 -0.0680  0.1594
  305loPI   C4A 4874   5.726  17.551   8.172  0.1906 -0.2508  0.1990
  305loPI   C5A 4875   5.905  17.370   7.798 -0.0792 -0.0028 -0.1012
  305loPI   C6A 4876   6.236  17.063   7.815 -0.1403 -0.3352  0.1442
  305loPI   C1B 4877   6.437  17.409   9.510  0.0626  0.0123 -0.3501
  305loPI   C2B 4878   6.421  17.347   8.984  0.2377 -0.0315 -0.1183
  305loPI   C3B 4879   6.450  17.311   8.519  0.2493  0.2364  0.2688
  305loPI   C4B 4880   6.313  17.492   8.047 -0.2529  0.1880  0.0422
  306loPI    C1 4881   2.883   5.919  10.208  0.1170 -0.2496  0.1421
  306loPI    C2 4882   3.060   6.062  10.537  0.2593 -0.2285  0.0571
  306loPI    C3 4883   2.689   5.913  10.558  0.1070  0.1525  0.1479
  306loPI   PO4 4884   3.167   5.774  10.115 -0.0871  0.2438 -0.1247
  306loPI   GL1 4885   3.467   5.558   9.752  0.0809 -0.0477  0.2079
  306loPI   GL2 4886   3.527   5.255   9.680 -0.2875  0.2118 -0.1764
  306loPI   C1A 4887   3.127   5.491   9.490  0.1344  0.0197 -0.2729
  306loPI   C2A 4888   3.148   5.436   9.003  0.1105  0.3487 -0.1195
  306loPI   C3A 4889   3.233   5.521   8.469 -0.3575 -0.0524  0.0284
  306loPI   C4A 4890   3.242   5.263   8.006  0.0659 -0.3317  0.1609
  306loPI   C5A 4891   3.462   5.070   7.645 -0.0808 -0.1620 -0.3276
  306loPI   C6A 4892   3.504   4.727   7.367 -0.0665 -0.0888 -0.0164
  306loPI   C1B 4893   3.596   5.306   9.143  0.1563  0.3303 -0.4222
  306loPI   C2B 4894   3.667   5.322   8.637  0.2968 -0.1246 -0.0569
  306loPI   C3B 4895   3.854   5.149   8.242  0.1229 -0.1108 -0.1542
  306loPI   C4B 4896   3.881   4.997   7.860  0.1954 -0.4809  0.1187
  307loPI    C1 4897  10.610  12.268  10.615  0.2608 -0.0916  0.0888
  307loPI    C2 4898  10.840  12.568  10.748  0.3182 -0.1683  0.1639
  307loPI    C3 4899  10.573  12.396  10.993  0.2461 -0.1415  0.1044
  307loPI   PO4 4900  10.529  12.346  10.365 -0.1251  0.3371  0.2683
  307loPI   GL1 4901  10.401  12.183  10.105 -0.0106  0.1413 -0.1830
  307loPI   GL2 4902  10.143  12.079  10.097  0.1220 -0.0300 -0.0603
  307loPI   C1A 4903  10.443  12.257   9.608  0.1974  0.1459 -0.0034
  307loPI   C2A 4904  10.356  12.144   9.221  0.1090 -0.1649 -0.0541
  307loPI   C3A 4905  10.345  12.192   8.812 -0.0014  0.0544 -0.1808
  307loPI   C4A 4906  10.261  12.262   8.506  0.0840 -0.0018  0.1714
  307loPI   C5A 4907  10.149  12.125   8.156 -0.0272 -0.4319  0.1968
  307loPI   C6A 4908  10.263  11.944   7.753 -0.0629  0.2570 -0.1438
  307loPI   C1B 4909  10.080  11.923   9.706  0.1703  0.0129 -0.0076
  307loPI   C2B 4910   9.992  11.834   9.239  0.1212  0.0284 -0.1642
  307loPI   C3B 4911   9.941  11.837   8.841 -0.1917  0.2603  0.0175
  307loPI   C4B 4912   9.766  11.816   8.383  0.4438  0.3369  0.0701
  308loPI    C1 4913  12.897  15.259  10.477  0.1587  0.2465 -0.2600
  308loPI    C2 4914  12.790  15.615  10.624 -0.2519  0.0831 -0.1465
  308loPI    C3 4915  13.079  15.404  10.802 -0.2439  0.2081 -0.0093
  308loPI   PO4 4916  12.844  15.307  10.280 -0.3941 -0.2855  0.1276
  308loPI   GL1 4917  12.953  15.271   9.914  0.0906  0.1564  0.0261
  308loPI   GL2 4918  13.132  15.064   9.789 -0.0940  0.4489 -0.0494
  308loPI   C1A 4919  12.702  15.189   9.560 -0.1570 -0.0118  0.1681
  308loPI   C2A 4920  12.622  15.276   9.107 -0.1203  0.2303  0.4237
  308loPI   C3A 4921  12.549  15.241   8.591 -0.0789  0.0736 -0.1017
  308loPI   C4A 4922  12.410  15.187   8.173 -0.1963  0.0287 -0.0023
  308loPI   C5A 4923  12.372  14.883   7.878 -0.3036  0.0383 -0.0182
  308loPI   C6A 4924  12.173  15.002   7.447 -0.1904 -0.0641 -0.0009
  308loPI   C1B 4925  13.207  15.103   9.347 -0.0179 -0.3205  0.1844
  308loPI   C2B 4926  13.083  15.096   8.911 -0.1825  0.1036 -0.2209
  308loPI   C3B 4927  13.031  15.175   8.479 -0.0544  0.0702 -0.2010
  308loPI   C4B 4928  12.951  15.066   8.007 -0.0553  0.3163 -0.2719
  309loPI    C1 4929  11.463   5.578  10.489 -0.2203  0.2323 -0.0703
  309loPI    C2 4930  11.117   5.390  10.418 -0.1406  0.0582 -0.0037
  309loPI    C3 4931  11.461   5.232  10.288 -0.0872  0.2413 -0.0881
  309loPI   PO4 4932  11.431   5.843  10.372 -0.0012 -0.2024  0.3997
  309loPI   GL1 4933  11.319   6.088  10.025 -0.3118  0.2832 -0.0151
  309loPI   GL2 4934  11.002   5.991   9.867 -0.1481 -0.1975  0.4277
  309loPI   C1A 4935  11.473   6.318   9.796  0.0713 -0.1682 -0.0191
  309loPI   C2A 4936  11.396   6.502   9.402  0.0828  0.0796 -0.1645
  309loPI   C3A 4937  11.424   6.498   9.055 -0.1309 -0.0812 -0.5317
  309loPI   C4A 4938  11.411   6.378   8.720  0.2471  0.0299 -0.0695
  309loPI   C5A 4939  11.267   6.379   8.313 -0.0382 -0.4784  0.0711
  309loPI   C6A 4940  11.150   6.480   7.893  0.0573  0.1398 -0.2215
  309loPI   C1B 4941  11.063   6.157   9.335 -0.0936  0.0176 -0.0239
  309loPI   C2B 4942  11.035   6.160   8.959 -0.0350 -0.2249 -0.2575
  309loPI   C3B 4943  10.919   6.001   8.591  0.3514  0.0423  0.1752
  309loPI   C4B 4944  11.132   5.919   8.169  0.0875 -0.0433 -0.3412
  310loPI    C1 4945   9.386   4.633  10.680  0.0286 -0.1049 -0.0913
  310loPI    C2 4946   9.669   4.569  10.955 -0.0750  0.1750  0.0838
  310loPI    C3 4947   9.584   4.942  10.837 -0.0517  0.0605 -0.3096
  310loPI   PO4 4948   9.452   4.468  10.480  0.2096  0.0876 -0.0640
  310loPI   GL1 4949   9.701   4.457  10.095  0.0078 -0.3739  0.0292
  310loPI   GL2 4950   9.381   4.407  10.001 -0.0858  0.1234 -0.4023
  310loPI   C1A 4951   9.891   4.444   9.657 -0.2138  0.3620  0.1411
  310loPI   C2A 4952   9.857   4.564   9.268 -0.1526 -0.1399  0.1718
  310loPI   C3A 4953   9.861   4.533   8.809  0.2092 -0.1793  0.0743
  310loPI   C4A 4954   9.947   4.540   8.466  0.1312  0.0728 -0.2182
  310loPI   C5A 4955   9.819   4.663   8.125 -0.1317 -0.4556  0.3301
  310loPI   C6A 4956   9.435   4.713   7.827  0.1369  0.1575  0.2749
  310loPI   C1B 4957   9.397   4.640   9.639 -0.0552  0.1105 -0.0148
  310loPI   C2B 4958   9.387   4.789   9.149  0.1938 -0.0065 -0.2202
  310loPI   C3B 4959   9.423   4.795   8.736 -0.1450 -0.0941 -0.1017
  310loPI   C4B 4960   9.259   4.869   8.271 -0.0292 -0.1886 -0.2230
  311loPI    C1 4961  11.830  15.680  10.227 -0.3144 -0.3163 -0.0610
  311loPI    C2 4962  12.031  15.720  10.571 -0.1685  0.3474 -0.2084
  311loPI    C3 4963  11.636  15.658  10.576 -0.1398  0.1693  0.0757
  311loPI   PO4 4964  11.754  15.757   9.987 -0.1785  0.0978  0.1025
  311loPI   GL1 4965  12.045  15.896   9.632  0.1245 -0.1930 -0.3693
  311loPI   GL2 4966  12.129  15.559   9.551  0.0514  0.1737  0.3280
  311loPI   C1A 4967  11.951  15.964   9.256  0.0295 -0.1500  0.0203
  311loPI   C2A 4968  11.984  15.936   8.852  0.0249 -0.1825 -0.3005
  311loPI   C3A 4969  11.894  15.846   8.467 -0.0018 -0.0154  0.0623
  311loPI   C4A 4970  11.669  15.780   8.034 -0.1619 -0.0868  0.1517
  311loPI   C5A 4971  11.605  16.015   7.868 -0.2526  0.0304 -0.1588
  311loPI   C6A 4972  11.526  16.217   7.517 -0.2689  0.2197  0.0418
  311loPI   C1B 4973  12.111  15.497   9.081  0.1908  0.0317  0.0501
  311loPI   C2B 4974  12.011  15.359   8.695  0.0465 -0.0097  0.2974
  311loPI   C3B 4975  11.849  15.398   8.277 -0.0814 -0.0048 -0.0796
  311loPI   C4B 4976  11.917  15.127   7.859 -0.0558 -0.2448  0.1321
  312loPI    C1 4977   4.278  17.351  10.306 -0.0455  0.0180 -0.1408
  312loPI    C2 4978   4.221  17.213  10.677  0.0201  0.1817 -0.0687
  312loPI    C3 4979   3.969  17.483  10.523  0.0987  0.2519 -0.0747
  312loPI   PO4 4980   4.276  17.328  10.057  0.2414  0.1156 -0.1552
  312loPI   GL1 4981   4.505  17.389   9.708  0.0862 -0.0741  0.0591
  312loPI   GL2 4982   4.784  17.540   9.599 -0.0951 -0.0815 -0.2821
  312loPI   C1A 4983   4.622  17.077   9.395  0.0336 -0.2039 -0.1737
  312loPI   C2A 4984   4.562  16.976   8.942 -0.4834  0.1497  0.0475
  312loPI   C3A 4985   4.575  17.079   8.482 -0.1874 -0.1801  0.0809
  312loPI   C4A 4986   4.481  17.101   8.045  0.0880  0.2280 -0.2246
  312loPI   C5A 4987   4.675  17.139   7.786 -0.0277  0.0432  0.3301
  312loPI   C6A 4988   4.827  17.523   7.752 -0.1394 -0.1635  0.0512
  312loPI   C1B 4989   4.806  17.556   9.287 -0.0815 -0.3335  0.2356
  312loPI   C2B 4990   4.988  17.413   8.997  0.1281  0.2941  0.1663
  312loPI   C3B 4991   4.902  17.407   8.637 -0.0985 -0.2394  0.1009
  312loPI   C4B 4992   5.004  17.232   8.159  0.0003  0.0572 -0.0278
  313loPI    C1 4993   2.873   3.296  10.707  0.3271 -0.0861 -0.0413
  313loPI    C2 4994   2.954   3.598  10.956  0.1649 -0.0460 -0.0359
  313loPI    C3 4995   3.081   3.229  11.042  0.0319 -0.0489  0.1540
  313loPI   PO4 4996   2.911   3.454  10.397  0.1454 -0.0461  0.1603
  313loPI   GL1 4997   2.852   3.479   9.894 -0.0173  0.1929  0.0356
  313loPI   GL2 4998   3.262   3.529   9.781  0.3812 -0.0771 -0.0773
  313loPI   C1A 4999   2.759   3.230   9.613  0.3397 -0.1986 -0.1568
  313loPI   C2A 5000   2.690   3.344   9.219 -0.0604 -0.1463  0.1215
  313loPI   C3A 5001   2.704   3.121   8.829  0.2283 -0.0850  0.1370
  313loPI   C4A 5002   2.735   3.229   8.424 -0.4450  0.1749 -0.0660
  313loPI   C5A 5003   2.902   3.136   8.114 -0.0738  0.0254 -0.1597
  313loPI   C6A 5004   2.940   3.377   7.680 -0.0050 -0.0944 -0.1109
  313loPI   C1B 5005   3.077   3.601   9.431  0.0029 -0.1707  0.3173
  313loPI   C2B 5006   3.095   3.672   9.029 -0.0937 -0.0330 -0.0807
  313loPI   C3B 5007   3.068   3.467   8.778 -0.1227 -0.0884 -0.0749
  313loPI   C4B 5008   3.199   3.450   8.342  0.2914 -0.1510 -0.0228
  314loPI    C1 5009  18.005  12.940   9.678  0.1425  0.2016  0.0257
  314loPI    C2 5010  18.286  12.918   9.962  0.0166 -0.0881  0.1314
  314loPI    C3 5011  18.059  13.246   9.931  0.3972  0.1711  0.0105
  314loPI   PO4 5012  18.121  12.859   9.500 -0.1897 -0.0341  0.1737
  314loPI   GL1 5013  18.181  12.748   9.078  0.0350 -0.0839  0.0842
  314loPI   GL2 5014  18.279  12.526   9.170  0.2288 -0.0148  0.0642
  314loPI   C1A 5015  18.058  12.630   8.600 -0.0275 -0.0477 -0.0690
  314loPI   C2A 5016  18.097  12.758   8.166  0.2130 -0.0290 -0.0538
  314loPI   C3A 5017  17.906  12.980   7.718 -0.0671 -0.1565 -0.0317
  314loPI   C4A 5018  18.161  13.183   7.300  0.0155  0.0420 -0.2385
  314loPI   C5A 5019  18.524  13.405   7.030 -0.0796  0.1811 -0.0103
  314loPI   C6A 5020  18.821  13.414   6.734  0.1504  0.1089  0.0850
  314loPI   C1B 5021  18.265  12.215   8.829 -0.0067  0.1724 -0.0728
  314loPI   C2B 5022  18.298  12.067   8.439  0.0423  0.1419  0.3038
  314loPI   C3B 5023  18.455  11.806   8.115  0.2051 -0.2908  0.1252
  314loPI   C4B 5024  18.784  11.503   7.954  0.3580  0.1336 -0.0493
  315loPI    C1 5025  17.803   3.167   9.750  0.1147 -0.1223  0.1361
  315loPI    C2 5026  17.461   3.240   9.945 -0.0640 -0.0560 -0.1959
  315loPI    C3 5027  17.733   3.531   9.901  0.0311 -0.1047  0.0557
  315loPI   PO4 5028  17.751   3.083   9.527  0.0019  0.0850 -0.3085
  315loPI   GL1 5029  17.716   3.147   9.114 -0.1179 -0.1142  0.0254
  315loPI   GL2 5030  18.017   3.067   9.023 -0.1780 -0.0240 -0.1345
  315loPI   C1A 5031  17.608   3.303   8.673  0.1616 -0.2640 -0.0851
  315loPI   C2A 5032  17.522   3.321   8.252 -0.0878  0.0950 -0.0024
  315loPI   C3A 5033  17.212   3.181   7.998 -0.1198 -0.0603  0.3416
  315loPI   C4A 5034  16.951   3.153   7.640 -0.0907 -0.1193  0.0943
  315loPI   C5A 5035  16.832   3.215   7.233  0.1345 -0.1492 -0.0544
  315loPI   C6A 5036  16.618   3.459   6.891  0.1531  0.0186  0.1190
  315loPI   C1B 5037  18.276   3.052   8.625 -0.5192 -0.0439 -0.0042
  315loPI   C2B 5038  18.242   2.881   8.262 -0.1530 -0.1653 -0.3746
  315loPI   C3B 5039  18.184   2.933   7.841  0.0213 -0.1540 -0.0692
  315loPI   C4B 5040  18.128   3.186   7.441  0.1115  0.2652  0.1425
  316loPI    C1 5041  11.559   6.536  10.746 -0.0650 -0.1668  0.2634
  316loPI    C2 5042  11.675   6.761  11.056  0.0583 -0.1679  0.2188
  316loPI    C3 5043  11.548   6.387  11.117 -0.1781 -0.0772  0.2969
  316loPI   PO4 5044  11.414   6.713  10.575 -0.3046  0.0990 -0.1838
  316loPI   GL1 5045  11.226   6.707  10.147 -0.1149  0.0856 -0.2973
  316loPI   GL2 5046  11.482   6.964  10.158  0.0778  0.0168 -0.3904
  316loPI   C1A 5047  11.362   6.921   9.698  0.2402 -0.2267 -0.4160
  316loPI   C2A 5048  11.413   7.086   9.466  0.4067  0.1705 -0.3301
  316loPI   C3A 5049  11.302   7.018   9.040 -0.0961 -0.0758  0.1488
  316loPI   C4A 5050  11.278   6.842   8.568 -0.0390  0.1169 -0.1614
  316loPI   C5A 5051  11.045   6.996   8.286  0.1681  0.1327 -0.0479
  316loPI   C6A 5052  10.887   7.414   8.228  0.2975 -0.1658 -0.3471
  316loPI   C1B 5053  11.286   7.346   9.930  0.0529  0.1501 -0.1215
  316loPI   C2B 5054  11.398   7.584   9.516 -0.0116 -0.0428  0.0755
  316loPI   C3B 5055  11.301   7.488   9.040  0.1864  0.2248 -0.1972
  316loPI   C4B 5056  11.212   7.362   8.661 -0.2817  0.1699  0.0682
  317loPI    C1 5057  11.468  16.637  10.643 -0.0541  0.2513  0.2492
  317loPI    C2 5058  11.329  16.384  10.919  0.0031 -0.0063  0.0454
  317loPI    C3 5059  11.720  16.466  10.902 -0.0197  0.1222  0.1317
  317loPI   PO4 5060  11.117  16.710  10.517 -0.0837 -0.0810  0.4192
  317loPI   GL1 5061  10.956  16.900  10.124  0.1109  0.1524  0.1992
  317loPI   GL2 5062  10.776  16.877   9.837  0.1226  0.0007  0.0822
  317loPI   C1A 5063  11.279  16.728   9.819 -0.1375 -0.1891 -0.2500
  317loPI   C2A 5064  11.394  16.680   9.390  0.0926 -0.1020 -0.2416
  317loPI   C3A 5065  11.191  16.744   9.040  0.3012 -0.1296  0.0376
  317loPI   C4A 5066  11.223  16.693   8.660  0.0656  0.2079 -0.2433
  317loPI   C5A 5067  11.249  16.565   8.302 -0.2946 -0.1155 -0.1170
  317loPI   C6A 5068  11.136  16.206   8.066  0.0328 -0.3108 -0.1317
  317loPI   C1B 5069  10.890  16.884   9.454  0.1439 -0.0875  0.1708
  317loPI   C2B 5070  10.697  16.801   9.127  0.1368  0.0592 -0.0626
  317loPI   C3B 5071  10.752  16.911   8.842 -0.3240  0.0719 -0.4837
  317loPI   C4B 5072  10.737  16.855   8.467  0.1700 -0.1564  0.0449
  318loPI    C1 5073  12.887  13.354  10.764  0.0765  0.1933 -0.0188
  318loPI    C2 5074  12.967  13.634  11.038 -0.1240 -0.0529  0.2989
  318loPI    C3 5075  12.685  13.359  11.109 -0.2114 -0.0948 -0.1773
  318loPI   PO4 5076  12.779  13.450  10.562 -0.4731  0.1929 -0.0197
  318loPI   GL1 5077  12.880  13.532  10.134 -0.3254 -0.4161  0.1922
  318loPI   GL2 5078  12.896  13.830  10.082  0.0638  0.2703  0.1997
  318loPI   C1A 5079  12.907  13.479   9.643 -0.1475 -0.0333 -0.1708
  318loPI   C2A 5080  12.926  13.694   9.157  0.2381  0.2379 -0.0732
  318loPI   C3A 5081  12.768  13.759   8.755 -0.0204  0.0975 -0.1059
  318loPI   C4A 5082  12.761  13.693   8.335  0.0619 -0.1419  0.0518
  318loPI   C5A 5083  12.604  13.650   7.867 -0.1535  0.0722  0.0259
  318loPI   C6A 5084  12.773  13.313   7.485  0.2998  0.2591 -0.1565
  318loPI   C1B 5085  12.782  13.953   9.726  0.0039  0.0896  0.2377
  318loPI   C2B 5086  12.812  14.179   9.277 -0.2400 -0.3474  0.0608
  318loPI   C3B 5087  12.806  14.367   8.885  0.0829 -0.2283  0.2516
  318loPI   C4B 5088  12.633  14.259   8.528  0.2644 -0.0272  0.2952
  319loPI    C1 5089  15.629  13.496  10.066  0.0951 -0.1464 -0.1247
  319loPI    C2 5090  15.497  13.390  10.428  0.0761 -0.0478 -0.1024
  319loPI    C3 5091  15.860  13.552  10.387  0.1049 -0.1202 -0.1363
  319loPI   PO4 5092  15.433  13.625   9.989 -0.2216  0.2375 -0.1354
  319loPI   GL1 5093  15.170  13.418   9.685 -0.0295 -0.0309  0.1446
  319loPI   GL2 5094  15.376  13.642   9.501 -0.3888  0.2812  0.3380
  319loPI   C1A 5095  14.977  13.309   9.276  0.2397  0.2044 -0.1646
  319loPI   C2A 5096  14.862  13.521   8.953 -0.2320 -0.2213 -0.1961
  319loPI   C3A 5097  14.749  13.461   8.683 -0.0767 -0.0613 -0.0017
  319loPI   C4A 5098  14.598  13.437   8.274  0.2815 -0.1418  0.5232
  319loPI   C5A 5099  14.637  13.423   7.865 -0.1923 -0.1720  0.0870
  319loPI   C6A 5100  14.721  13.410   7.379 -0.1019  0.1969  0.4379
  319loPI   C1B 5101  15.274  13.909   9.088  0.1389 -0.2922  0.0123
  319loPI   C2B 5102  14.939  13.965   8.762  0.0321 -0.1165 -0.1144
  319loPI   C3B 5103  14.751  14.283   8.565  0.1588 -0.2240 -0.2433
  319loPI   C4B 5104  14.824  14.519   8.235 -0.0375 -0.0568 -0.0759
  320loPI    C1 5105  16.881   6.853  10.284 -0.2014  0.2207 -0.1388
  320loPI    C2 5106  16.937   7.186  10.499  0.1514  0.0257  0.0811
  320loPI    C3 5107  16.630   6.943  10.582  0.0867  0.1266  0.1384
  320loPI   PO4 5108  17.072   6.896  10.083  0.1893  0.1449  0.0409
  320loPI   GL1 5109  17.188   6.773   9.726  0.1210 -0.0955  0.0566
  320loPI   GL2 5110  17.412   6.576   9.647 -0.0352 -0.2365  0.1616
  320loPI   C1A 5111  17.147   6.840   9.336 -0.2197  0.0617 -0.0747
  320loPI   C2A 5112  17.393   6.919   9.083  0.1087 -0.1547 -0.2762
  320loPI   C3A 5113  17.521   6.846   8.689 -0.2459  0.1488  0.0099
  320loPI   C4A 5114  17.464   6.721   8.262 -0.0828  0.0211 -0.1665
  320loPI   C5A 5115  17.383   6.534   7.850  0.0661  0.0287  0.2290
  320loPI   C6A 5116  16.955   6.477   7.775  0.1294 -0.2709  0.0224
  320loPI   C1B 5117  17.383   6.431   9.219  0.2550 -0.0525 -0.2400
  320loPI   C2B 5118  17.537   6.353   8.837 -0.0705  0.0260  0.1111
  320loPI   C3B 5119  17.223   6.324   8.494 -0.0033 -0.0842  0.1206
  320loPI   C4B 5120  17.017   6.535   8.240  0.0813 -0.3088 -0.0856
  321loPI    C1 5121   5.459   1.923  10.273  0.0879 -0.2163 -0.2085
  321loPI    C2 5122   5.295   1.571  10.368  0.0121 -0.1326 -0.0238
  321loPI    C3 5123   5.574   1.731  10.605  0.0814 -0.0902 -0.1330
  321loPI   PO4 5124   5.368   1.969  10.109 -0.0419  0.0659  0.0254
  321loPI   GL1 5125   5.400   2.072   9.797  0.3240  0.2508  0.0343
  321loPI   GL2 5126   5.238   2.320   9.706  0.4342  0.2136 -0.1902
  321loPI   C1A 5127   5.315   1.865   9.419 -0.0411  0.2478  0.3031
  321loPI   C2A 5128   5.290   1.699   9.019 -0.0863 -0.1239  0.0135
  321loPI   C3A 5129   5.332   1.672   8.557  0.2399  0.2111 -0.2644
  321loPI   C4A 5130   5.346   1.817   8.127  0.1647  0.2003  0.1372
  321loPI   C5A 5131   5.139   1.897   7.650 -0.1663  0.1911  0.1702
  321loPI   C6A 5132   4.862   1.837   7.302  0.1009 -0.0227  0.1922
  321loPI   C1B 5133   5.262   2.363   9.263 -0.1614  0.1261 -0.0243
  321loPI   C2B 5134   5.282   2.375   8.824  0.0631 -0.1970 -0.0069
  321loPI   C3B 5135   5.260   2.273   8.369 -0.1091 -0.1668  0.2905
  321loPI   C4B 5136   5.211   2.325   7.945  0.0734 -0.0577  0.0265
  322loPI    C1 5137  11.994   7.906  10.860  0.2015 -0.0118 -0.0560
  322loPI    C2 5138  11.912   7.873  11.250 -0.1957  0.1251 -0.1231
  322loPI    C3 5139  12.101   7.576  11.059  0.2865  0.1873  0.2361
  322loPI   PO4 5140  11.722   7.873  10.684 -0.0041 -0.0912 -0.2547
  322loPI   GL1 5141  11.487   8.146  10.495  0.0221  0.4850 -0.2030
  322loPI   GL2 5142  11.159   8.142  10.495  0.0109  0.0877 -0.1340
  322loPI   C1A 5143  11.571   8.295  10.100 -0.1816  0.4814 -0.0545
  322loPI   C2A 5144  11.712   8.421   9.760  0.0666 -0.1172 -0.2104
  322loPI   C3A 5145  11.579   8.486   9.331  0.1748 -0.0150 -0.1030
  322loPI   C4A 5146  11.445   8.383   8.867  0.3961 -0.2253  0.1813
  322loPI   C5A 5147  11.535   8.172   8.456 -0.0157  0.2176  0.0109
  322loPI   C6A 5148  11.791   7.897   8.123  0.0884 -0.3676  0.0200
  322loPI   C1B 5149  11.021   8.223  10.122  0.1143 -0.1151  0.1210
  322loPI   C2B 5150  11.172   8.526   9.802  0.0662 -0.0525  0.2617
  322loPI   C3B 5151  11.093   8.484   9.435  0.0605 -0.0414 -0.0970
  322loPI   C4B 5152  10.979   8.463   9.014 -0.0702 -0.1860  0.3225
  323loPI    C1 5153   0.387   8.825  10.048 -0.3987 -0.3475 -0.5632
  323loPI    C2 5154   0.142   8.741  10.353 -0.0821 -0.2229 -0.2678
  323loPI    C3 5155   0.398   9.046  10.380  0.1308 -0.3700 -0.5580
  323loPI   PO4 5156   0.134   8.497   9.924 -0.4797 -0.0763  0.0199
  323loPI   GL1 5157   0.039   8.594   9.571 -0.0888 -0.0751 -0.2599
  323loPI   GL2 5158   0.070   8.406   9.354  0.0109 -0.2872 -0.3947
  323loPI   C1A 5159  -0.175   8.791   9.270 -0.0479 -0.0174 -0.2788
  323loPI   C2A 5160  -0.065   8.724   8.892 -0.2980 -0.0411  0.0853
  323loPI   C3A 5161   0.068   8.469   8.608  0.0939 -0.1135  0.0044
  323loPI   C4A 5162   0.269   8.376   8.338  0.0082  0.2253  0.0617
  323loPI   C5A 5163   0.346   8.299   7.909  0.2144  0.0632 -0.1201
  323loPI   C6A 5164   0.354   8.546   7.553  0.1546  0.4507 -0.0655
  323loPI   C1B 5165   0.256   8.172   8.981 -0.3774 -0.2551 -0.0719
  323loPI   C2B 5166   0.301   7.879   8.569 -0.1830 -0.2256 -0.2483
  323loPI   C3B 5167   0.191   7.893   8.197  0.3262 -0.2852  0.1004
  323loPI   C4B 5168  -0.033   7.605   7.975  0.1622  0.1513  0.1572
  324loPI    C1 5169   4.834   8.048  10.248  0.2239  0.0172  0.0654
  324loPI    C2 5170   4.636   8.069  10.595  0.2462  0.2902  0.0640
  324loPI    C3 5171   4.886   7.765  10.526 -0.0764  0.0070  0.1151
  324loPI   PO4 5172   4.628   8.056  10.030 -0.2962 -0.2000  0.1614
  324loPI   GL1 5173   4.737   8.394   9.710 -0.0008 -0.4515 -0.1203
  324loPI   GL2 5174   4.961   8.142   9.681 -0.0027 -0.2275 -0.2722
  324loPI   C1A 5175   4.372   8.365   9.390 -0.1574  0.3020 -0.1247
  324loPI   C2A 5176   4.389   8.373   8.968 -0.0541  0.1360  0.0869
  324loPI   C3A 5177   4.583   8.458   8.496  0.6181  0.0053 -0.1760
  324loPI   C4A 5178   4.665   8.359   8.032 -0.1090  0.0753  0.2753
  324loPI   C5A 5179   4.872   8.385   7.633  0.1389 -0.2049 -0.0303
  324loPI   C6A 5180   5.006   8.543   7.173  0.0460 -0.2331  0.0861
  324loPI   C1B 5181   4.864   8.279   9.252  0.0195 -0.2721 -0.1668
  324loPI   C2B 5182   4.963   8.159   8.802  0.1556 -0.0648 -0.0098
  324loPI   C3B 5183   5.132   8.235   8.380  0.2562  0.1749 -0.0094
  324loPI   C4B 5184   5.171   8.209   7.999 -0.0036 -0.2080 -0.0095
  325loPI    C1 5185  12.526  17.126  10.169  0.1122  0.0635  0.1818
  325loPI    C2 5186  12.324  17.068  10.509 -0.2916  0.1597 -0.0353
  325loPI    C3 5187  12.658  17.287  10.510 -0.1953  0.0185  0.3253
  325loPI   PO4 5188  12.314  17.180  10.017  0.0417 -0.1662 -0.3742
  325loPI   GL1 5189  12.333  17.473   9.678  0.2200  0.4507 -0.2221
  325loPI   GL2 5190  12.610  17.639   9.736  0.3688  0.1075  0.2298
  325loPI   C1A 5191  12.275  17.267   9.314 -0.0949 -0.2226 -0.0126
  325loPI   C2A 5192  12.187  17.386   8.871 -0.1335  0.2554  0.4001
  325loPI   C3A 5193  12.117  17.308   8.507  0.3087  0.0476 -0.0141
  325loPI   C4A 5194  11.871  17.344   8.153  0.2218 -0.2618 -0.0916
  325loPI   C5A 5195  11.899  16.971   7.926  0.3232  0.1226 -0.2158
  325loPI   C6A 5196  12.093  16.591   7.912 -0.0788  0.1849  0.2348
  325loPI   C1B 5197  12.618  17.641   9.278  0.0013  0.2526 -0.1655
  325loPI   C2B 5198  12.440  17.803   8.855  0.1037 -0.4679  0.0118
  325loPI   C3B 5199  12.404  17.739   8.498  0.0308  0.4943 -0.0570
  325loPI   C4B 5200  12.357  17.657   8.170  0.0516  0.1172 -0.2467
  326loPI    C1 5201  12.321   2.829  10.574  0.1911 -0.2501 -0.0775
  326loPI    C2 5202  12.533   2.580  10.804  0.1951 -0.1627  0.0141
  326loPI    C3 5203  12.449   2.949  10.933  0.3180 -0.0642 -0.1835
  326loPI   PO4 5204  12.122   2.642  10.490 -0.0245 -0.0241 -0.1162
  326loPI   GL1 5205  12.057   2.512  10.141  0.4315 -0.0728 -0.1559
  326loPI   GL2 5206  12.230   2.818  10.054  0.0573  0.0940 -0.2159
  326loPI   C1A 5207  11.786   2.454   9.689 -0.0345 -0.0390 -0.1792
  326loPI   C2A 5208  11.653   2.383   9.262  0.3545 -0.1040 -0.0071
  326loPI   C3A 5209  11.657   2.399   8.813  0.0983  0.0583  0.0913
  326loPI   C4A 5210  11.578   2.418   8.380  0.3357 -0.1527  0.0068
  326loPI   C5A 5211  11.563   2.505   7.901 -0.1002 -0.0291  0.2834
  326loPI   C6A 5212  11.635   2.364   7.473 -0.0423  0.2144 -0.0499
  326loPI   C1B 5213  12.161   2.896   9.627  0.0409 -0.2063 -0.1481
  326loPI   C2B 5214  12.054   2.736   9.323  0.0404 -0.0642  0.2821
  326loPI   C3B 5215  12.061   2.785   8.966  0.3131 -0.1950  0.0145
  326loPI   C4B 5216  11.919   2.744   8.529 -0.1607 -0.1421 -0.2531
  327loPI    C1 5217  17.804  13.889   9.944  0.0364 -0.4843  0.1372
  327loPI    C2 5218  18.155  14.082   9.934 -0.1073 -0.2284 -0.1114
  327loPI    C3 5219  17.941  14.071  10.273  0.0932 -0.3037  0.0146
  327loPI   PO4 5220  17.788  13.941   9.637  0.3134 -0.1499  0.0157
  327loPI   GL1 5221  17.500  13.852   9.314 -0.0461 -0.2641  0.0721
  327loPI   GL2 5222  17.421  13.691   9.063  0.3984  0.0188  0.0475
  327loPI   C1A 5223  17.579  14.211   9.071 -0.2554  0.0556 -0.1559
  327loPI   C2A 5224  17.561  14.432   8.632 -0.2794  0.2518 -0.0533
  327loPI   C3A 5225  17.614  14.624   8.247  0.0809 -0.2114  0.2072
  327loPI   C4A 5226  17.478  14.954   7.911  0.2456  0.0759 -0.4396
  327loPI   C5A 5227  17.174  14.772   7.689 -0.1123  0.1412 -0.3443
  327loPI   C6A 5228  16.950  14.387   7.706 -0.1877 -0.0201  0.1213
  327loPI   C1B 5229  17.502  13.919   8.700  0.3631  0.0281  0.0423
  327loPI   C2B 5230  17.489  13.918   8.280 -0.0128  0.0863  0.4806
  327loPI   C3B 5231  17.568  13.946   7.835  0.0468  0.1268  0.0634
  327loPI   C4B 5232  17.744  13.894   7.446  0.0989 -0.2715 -0.0822
  328loPI    C1 5233  12.309  13.566  10.479 -0.0266 -0.2324  0.0850
  328loPI    C2 5234  11.988  13.725  10.658  0.1713  0.4273 -0.1170
  328loPI    C3 5235  12.308  13.623  10.875 -0.0026  0.1826  0.0300
  328loPI   PO4 5236  12.359  13.679  10.308 -0.1072  0.2714 -0.2571
  328loPI   GL1 5237  12.125  13.602   9.911 -0.1234  0.0641  0.1915
  328loPI   GL2 5238  12.411  13.623   9.781  0.0122  0.1748  0.0798
  328loPI   C1A 5239  11.998  13.661   9.510 -0.1313 -0.2496  0.0106
  328loPI   C2A 5240  11.858  13.616   9.132 -0.0925 -0.0481  0.1457
  328loPI   C3A 5241  11.851  13.580   8.728  0.3098 -0.0040 -0.0206
  328loPI   C4A 5242  11.908  13.644   8.320 -0.0952  0.2438 -0.1350
  328loPI   C5A 5243  11.792  13.512   7.896  0.1102  0.1443 -0.3418
  328loPI   C6A 5244  11.694  13.582   7.458  0.0385  0.1606 -0.1125
  328loPI   C1B 5245  12.484  13.540   9.301  0.0163  0.2850 -0.1678
  328loPI   C2B 5246  12.398  13.401   8.893  0.0445  0.0148  0.3320
  328loPI   C3B 5247  12.369  13.368   8.453 -0.1031  0.1310  0.5347
  328loPI   C4B 5248  12.266  13.365   8.135  0.0629 -0.1089  0.1965
  329loPI    C1 5249   3.241   4.219  10.264  0.0830  0.0458  0.2570
  329loPI    C2 5250   3.218   3.823  10.211 -0.1856  0.1041 -0.0962
  329loPI    C3 5251   3.199   3.977  10.580 -0.2171 -0.2024  0.0328
  329loPI   PO4 5252   3.512   4.302  10.081 -0.1141  0.1102 -0.0218
  329loPI   GL1 5253   3.756   4.081   9.716  0.0712 -0.2221 -0.1860
  329loPI   GL2 5254   3.566   3.852   9.489 -0.0296  0.1731  0.1967
  329loPI   C1A 5255   3.774   4.300   9.321  0.0050 -0.0801  0.0013
  329loPI   C2A 5256   3.840   4.284   8.827 -0.1778  0.2761  0.1386
  329loPI   C3A 5257   3.984   4.102   8.346  0.0098 -0.3298  0.1027
  329loPI   C4A 5258   3.893   4.079   7.892  0.0856  0.1278  0.4276
  329loPI   C5A 5259   3.955   3.847   7.470 -0.0910  0.1430 -0.0870
  329loPI   C6A 5260   3.993   3.916   6.982  0.0867 -0.0092 -0.1827
  329loPI   C1B 5261   3.499   3.980   9.011  0.0213 -0.0663  0.2301
  329loPI   C2B 5262   3.484   3.791   8.639 -0.2438 -0.3304 -0.1643
  329loPI   C3B 5263   3.578   3.821   8.207  0.0566 -0.0013 -0.0699
  329loPI   C4B 5264   3.523   3.795   7.654 -0.5840  0.4712  0.0076
  330loPI    C1 5265   9.884  17.773  10.558 -0.1179  0.2078 -0.0151
  330loPI    C2 5266   9.883  17.989  10.895 -0.0692  0.0592  0.0810
  330loPI    C3 5267   9.812  17.595  10.909 -0.2719  0.0870 -0.1063
  330loPI   PO4 5268   9.764  17.961  10.353 -0.1040 -0.0097 -0.0144
  330loPI   GL1 5269   9.567  18.027   9.947  0.3419  0.0947 -0.1293
  330loPI   GL2 5270   9.854  17.733   9.908 -0.1775  0.0923 -0.0190
  330loPI   C1A 5271   9.600  18.154   9.481 -0.1695  0.2200 -0.1324
  330loPI   C2A 5272   9.516  18.123   9.070  0.1556  0.1167  0.2542
  330loPI   C3A 5273   9.544  18.134   8.626 -0.0281 -0.4047  0.0670
  330loPI   C4A 5274   9.555  18.051   8.251  0.0045 -0.0984 -0.1068
  330loPI   C5A 5275   9.546  17.764   7.869 -0.1686 -0.0286 -0.3457
  330loPI   C6A 5276   9.912  17.479   7.669  0.1305 -0.0582  0.1236
  330loPI   C1B 5277   9.660  17.679   9.524 -0.2424 -0.3643 -0.1961
  330loPI   C2B 5278   9.563  17.600   9.216  0.0491 -0.1370 -0.4906
  330loPI   C3B 5279   9.629  17.671   8.843 -0.3324 -0.1893  0.0878
  330loPI   C4B 5280   9.678  17.580   8.498  0.1056  0.0129 -0.2636
  331loPI    C1 5281   0.673   1.621  10.217 -0.0274  0.1702 -0.1965
  331loPI    C2 5282   1.072   1.622  10.181 -0.0193  0.1962 -0.1061
  331loPI    C3 5283   0.898   1.413  10.474 -0.0725  0.1781 -0.1506
  331loPI   PO4 5284   0.689   1.682   9.899  0.2269  0.1492  0.1355
  331loPI   GL1 5285   0.694   1.953   9.468 -0.0143  0.1262 -0.2010
  331loPI   GL2 5286   0.513   1.663   9.352 -0.2487  0.0806  0.1248
  331loPI   C1A 5287   0.454   2.167   9.059  0.2688  0.3449  0.0834
  331loPI   C2A 5288   0.681   2.135   8.664 -0.1100 -0.0379  0.0608
  331loPI   C3A 5289   0.618   2.280   8.291 -0.1227  0.0250  0.0071
  331loPI   C4A 5290   0.655   2.271   7.939  0.2395  0.0424 -0.1536
  331loPI   C5A 5291   0.780   2.407   7.512  0.0517 -0.0884 -0.0190
  331loPI   C6A 5292   0.793   2.651   7.041  0.0634 -0.0155  0.2922
  331loPI   C1B 5293   0.626   1.718   8.902  0.0795  0.3203 -0.0765
  331loPI   C2B 5294   0.618   1.471   8.442 -0.0779 -0.3046 -0.0342
  331loPI   C3B 5295   0.685   1.586   7.958  0.1017 -0.1129  0.1980
  331loPI   C4B 5296   1.032   1.867   7.769 -0.0332 -0.0467 -0.1605
  332loPI    C1 5297   3.963  18.169  10.323 -0.1620 -0.2032  0.2126
  332loPI    C2 5298   3.571  18.141  10.398 -0.2457  0.0177 -0.1228
  332loPI    C3 5299   3.799  18.386  10.617 -0.3405  0.0723 -0.0839
  332loPI   PO4 5300   3.977  18.282   9.984  0.1587  0.1015 -0.0736
  332loPI   GL1 5301   4.137  18.232   9.616  0.0027 -0.1095 -0.0643
  332loPI   GL2 5302   4.251  18.600   9.738 -0.0270 -0.2795 -0.1129
  332loPI   C1A 5303   4.318  18.250   9.243  0.1253  0.1208  0.0256
  332loPI   C2A 5304   4.469  18.195   8.767 -0.2951 -0.1266  0.2890
  332loPI   C3A 5305   4.373  18.170   8.376  0.2207  0.1019  0.1414
  332loPI   C4A 5306   4.401  17.998   7.928  0.1181 -0.1703 -0.2054
  332loPI   C5A 5307   4.379  18.026   7.534 -0.1432  0.0111 -0.0069
  332loPI   C6A 5308   4.362  17.587   7.295 -0.1757 -0.1701  0.3277
  332loPI   C1B 5309   4.423  18.715   9.346  0.1326  0.2197  0.0594
  332loPI   C2B 5310   4.392  18.645   8.976  0.0701 -0.2663  0.1975
  332loPI   C3B 5311   4.274  18.654   8.555 -0.2593 -0.0004 -0.1896
  332loPI   C4B 5312   4.313  18.703   8.106  0.1212  0.2683  0.1136
  333loPI    C1 5313  15.325   4.170  10.173 -0.1482  0.0186 -0.1547
  333loPI    C2 5314  15.721   4.225  10.188 -0.1661  0.0811  0.1565
  333loPI    C3 5315  15.475   4.500  10.341 -0.3423  0.1559 -0.2470
  333loPI   PO4 5316  15.314   4.114   9.823 -0.1847 -0.0991  0.0439
  333loPI   GL1 5317  15.481   4.210   9.339 -0.1372  0.0534 -0.0310
  333loPI   GL2 5318  15.627   4.484   9.151 -0.0152  0.3267  0.2160
  333loPI   C1A 5319  15.540   3.990   8.957 -0.1354  0.0272  0.3151
  333loPI   C2A 5320  15.649   3.978   8.505  0.1541  0.1187 -0.0314
  333loPI   C3A 5321  15.604   3.917   8.124  0.1978 -0.2927 -0.2467
  333loPI   C4A 5322  15.407   3.855   7.712  0.0866  0.2379 -0.3174
  333loPI   C5A 5323  15.104   3.839   7.284  0.1256  0.0299  0.0920
  333loPI   C6A 5324  14.852   3.802   6.875 -0.0946  0.0858 -0.1263
  333loPI   C1B 5325  15.266   4.538   8.864 -0.0071 -0.0906 -0.0158
  333loPI   C2B 5326  14.954   4.510   8.515  0.2324  0.1525  0.1673
  333loPI   C3B 5327  14.607   4.798   8.434  0.0167 -0.1661 -0.0754
  333loPI   C4B 5328  14.442   4.828   7.950 -0.1634  0.0985  0.0403
  334loPI    C1 5329   5.552  10.805  10.337  0.2110  0.1939 -0.0558
  334loPI    C2 5330   5.809  10.630  10.589  0.0640 -0.0389 -0.0650
  334loPI    C3 5331   5.417  10.558  10.620  0.0215  0.1242 -0.2048
  334loPI   PO4 5332   5.631  10.797  10.135  0.0291 -0.1816 -0.0337
  334loPI   GL1 5333   5.850  10.990   9.868 -0.0270  0.2378 -0.1526
  334loPI   GL2 5334   5.742  11.183   9.730 -0.0619  0.2408 -0.0149
  334loPI   C1A 5335   5.841  10.807   9.474  0.0489  0.1975  0.2255
  334loPI   C2A 5336   5.936  10.788   9.060 -0.0245  0.2517  0.0994
  334loPI   C3A 5337   5.881  10.886   8.595  0.1442  0.1185 -0.0146
  334loPI   C4A 5338   5.850  10.767   8.230  0.0799  0.2271  0.0087
  334loPI   C5A 5339   5.965  10.788   7.836 -0.0431 -0.0362  0.1310
  334loPI   C6A 5340   6.020  10.422   7.628 -0.1541 -0.1395 -0.2161
  334loPI   C1B 5341   5.786  11.294   9.344 -0.0488 -0.0702 -0.2063
  334loPI   C2B 5342   5.790  11.308   8.873  0.0362  0.0203 -0.0203
  334loPI   C3B 5343   5.684  11.304   8.484 -0.1783  0.1885  0.1554
  334loPI   C4B 5344   5.770  11.207   8.045  0.1671 -0.1355 -0.0635
  335loPI    C1 5345  16.033   3.709   9.746 -0.2775 -0.1528  0.0104
  335loPI    C2 5346  15.761   3.669  10.036 -0.1984 -0.1269  0.0888
  335loPI    C3 5347  16.096   3.877  10.103 -0.3573  0.2152 -0.1433
  335loPI   PO4 5348  15.884   3.606   9.550 -0.0865  0.0303 -0.0632
  335loPI   GL1 5349  15.810   3.568   9.149 -0.2338 -0.1502  0.1389
  335loPI   GL2 5350  16.033   3.354   9.019 -0.0570  0.4311  0.1110
  335loPI   C1A 5351  15.803   3.581   8.674 -0.0331  0.1434  0.5143
  335loPI   C2A 5352  16.039   3.540   8.250 -0.3021  0.1754 -0.1062
  335loPI   C3A 5353  16.156   3.363   7.894 -0.1303  0.3185 -0.4030
  335loPI   C4A 5354  15.928   3.220   7.480 -0.0413  0.0042 -0.4864
  335loPI   C5A 5355  16.022   3.187   7.067 -0.1038 -0.0572 -0.0912
  335loPI   C6A 5356  16.006   2.888   6.819  0.1112  0.0761 -0.2889
  335loPI   C1B 5357  16.230   3.130   8.687 -0.2280 -0.1565 -0.2410
  335loPI   C2B 5358  16.075   3.025   8.319  0.0172  0.2102  0.0857
  335loPI   C3B 5359  16.072   2.772   7.851  0.0114  0.0150  0.0528
  335loPI   C4B 5360  16.000   2.713   7.362  0.2351 -0.1470  0.0674
  336loPI    C1 5361  17.592   3.989   9.634  0.1537  0.1617 -0.3076
  336loPI    C2 5362  17.885   4.093   9.885  0.0612 -0.1657 -0.0577
  336loPI    C3 5363  17.508   4.205   9.960  0.0874  0.0690 -0.2628
  336loPI   PO4 5364  17.777   3.888   9.458  0.1070 -0.2762  0.2984
  336loPI   GL1 5365  17.721   3.680   9.134 -0.3700 -0.0633  0.0746
  336loPI   GL2 5366  17.445   3.729   9.021 -0.0151 -0.0246 -0.1590
  336loPI   C1A 5367  17.990   3.604   8.756  0.1992  0.0453 -0.0259
  336loPI   C2A 5368  17.990   3.425   8.372 -0.3007  0.1882  0.2282
  336loPI   C3A 5369  17.981   3.444   7.965 -0.0082  0.0080  0.2921
  336loPI   C4A 5370  18.173   3.672   7.679  0.0757 -0.3185 -0.4385
  336loPI   C5A 5371  17.971   3.636   7.310  0.1640 -0.1919 -0.0043
  336loPI   C6A 5372  18.287   3.572   6.966  0.0741  0.1905 -0.0551
  336loPI   C1B 5373  17.578   3.793   8.551 -0.3458  0.2927 -0.0332
  336loPI   C2B 5374  17.963   3.936   8.336 -0.1202  0.0991  0.0203
  336loPI   C3B 5375  17.988   4.006   7.951 -0.0382  0.0376  0.0968
  336loPI   C4B 5376  17.854   4.016   7.612 -0.0465  0.0812 -0.2086
  337loPI    C1 5377  17.198   0.234   9.718 -0.0035 -0.1969 -0.2280
  337loPI    C2 5378  17.227  -0.103   9.931  0.1355 -0.0522 -0.0138
  337loPI    C3 5379  17.457   0.211  10.022 -0.0822  0.1438 -0.1311
  337loPI   PO4 5380  17.234   0.182   9.479 -0.0479 -0.0041 -0.2323
  337loPI   GL1 5381  17.125   0.247   9.154  0.1186  0.0563  0.0691
  337loPI   GL2 5382  17.002   0.380   9.000 -0.1844  0.1509  0.4023
  337loPI   C1A 5383  17.302   0.137   8.663  0.5059 -0.0820  0.0073
  337loPI   C2A 5384  17.630   0.067   8.347  0.0471  0.1659 -0.0966
  337loPI   C3A 5385  17.631  -0.185   8.007  0.1286  0.1223 -0.0042
  337loPI   C4A 5386  17.625  -0.024   7.631  0.3097  0.0200  0.2791
  337loPI   C5A 5387  17.528  -0.176   7.168 -0.2415 -0.3365  0.0577
  337loPI   C6A 5388  17.174  -0.107   6.884  0.2459 -0.1700  0.0933
  337loPI   C1B 5389  16.813   0.340   8.559 -0.1575  0.0355 -0.1671
  337loPI   C2B 5390  16.812   0.310   8.106  0.2608 -0.1242  0.1201
  337loPI   C3B 5391  16.660   0.272   7.682 -0.0492  0.0801  0.0868
  337loPI   C4B 5392  16.513   0.190   7.368 -0.2142  0.1905  0.3751
  338loPI    C1 5393   4.621   5.138   9.985  0.0386 -0.1204  0.1180
  338loPI    C2 5394   4.397   4.868  10.178 -0.0967 -0.0767  0.0239
  338loPI    C3 5395   4.359   4.914   9.782  0.1009 -0.0893  0.0021
  338loPI   PO4 5396   4.825   5.034  10.058  0.1075  0.2032  0.1578
  338loPI   GL1 5397   5.101   4.927   9.888  0.2243 -0.0175 -0.0197
  338loPI   GL2 5398   5.280   4.720  10.070 -0.0884  0.0867  0.0593
  338loPI   C1A 5399   5.361   5.018   9.606  0.0596  0.0609 -0.2540
  338loPI   C2A 5400   5.444   5.043   9.162  0.0923 -0.0352  0.1244
  338loPI   C3A 5401   5.606   5.193   8.769  0.0144 -0.0250 -0.0590
  338loPI   C4A 5402   5.726   4.991   8.448  0.2292 -0.0039  0.1403
  338loPI   C5A 5403   5.907   4.885   8.056  0.1878 -0.1866 -0.2093
  338loPI   C6A 5404   6.282   5.021   7.775 -0.2327 -0.2341  0.3785
  338loPI   C1B 5405   5.533   4.579   9.739 -0.0253  0.2826 -0.0467
  338loPI   C2B 5406   5.635   4.585   9.318 -0.2911 -0.0198 -0.1572
  338loPI   C3B 5407   5.634   4.657   8.825 -0.1749 -0.0227  0.1028
  338loPI   C4B 5408   5.719   4.519   8.395 -0.3353 -0.1062  0.2341
  339loPI    C1 5409  10.398   9.721  10.905  0.3417 -0.0978 -0.0387
  339loPI    C2 5410  10.749   9.634  11.077  0.1394 -0.1459  0.3609
  339loPI    C3 5411  10.459   9.808  11.291 -0.1007 -0.1535  0.0483
  339loPI   PO4 5412  10.212   9.483  10.770 -0.1770 -0.0320 -0.1028
  339loPI   GL1 5413  10.265   9.229  10.393 -0.0321  0.1135  0.0841
  339loPI   GL2 5414  10.370   9.580  10.255 -0.5682  0.1642 -0.1159
  339loPI   C1A 5415  10.418   9.061  10.097  0.0539 -0.0141  0.2220
  339loPI   C2A 5416  10.454   9.225   9.774 -0.2407 -0.4765 -0.0374
  339loPI   C3A 5417  10.545   9.326   9.433 -0.0078 -0.1456  0.4009
  339loPI   C4A 5418  10.447   9.197   9.045 -0.1842 -0.4461 -0.0737
  339loPI   C5A 5419  10.309   8.984   8.607  0.2010  0.0022 -0.0857
  339loPI   C6A 5420  10.332   8.973   8.199  0.4144 -0.0369 -0.0723
  339loPI   C1B 5421  10.345   9.735   9.767  0.1221 -0.2122  0.1156
  339loPI   C2B 5422  10.387   9.823   9.325 -0.2879 -0.2752 -0.5235
  339loPI   C3B 5423  10.380   9.736   8.876 -0.0513 -0.1995 -0.1061
  339loPI   C4B 5424  10.287   9.429   8.457  0.2481  0.2417 -0.0747
  340loPI    C1 5425  16.099   0.993  10.029  0.1352 -0.0634 -0.0197
  340loPI    C2 5426  15.705   1.035  10.090  0.1419  0.1059 -0.0882
  340loPI    C3 5427  15.942   0.915  10.389  0.0465  0.0585 -0.0311
  340loPI   PO4 5428  16.029   0.906   9.732  0.1343  0.1651 -0.1234
  340loPI   GL1 5429  15.885   0.928   9.262  0.1121  0.1574 -0.0417
  340loPI   GL2 5430  15.564   1.075   9.348 -0.0583 -0.0525 -0.1273
  340loPI   C1A 5431  15.736   1.032   8.862 -0.1463 -0.3293 -0.1898
  340loPI   C2A 5432  15.715   1.219   8.382  0.1392 -0.0642  0.3641
  340loPI   C3A 5433  15.452   1.366   8.015  0.1199 -0.0588 -0.0164
  340loPI   C4A 5434  15.264   1.588   7.651 -0.2344 -0.0233  0.0618
  340loPI   C5A 5435  15.209   1.530   7.196  0.0505 -0.4051  0.4297
  340loPI   C6A 5436  14.949   1.429   6.800  0.0699  0.0199 -0.1185
  340loPI   C1B 5437  15.277   1.250   9.043 -0.2311  0.1976  0.1014
  340loPI   C2B 5438  15.232   1.346   8.675  0.3233 -0.1654  0.1253
  340loPI   C3B 5439  15.013   1.324   8.245  0.0246 -0.2971 -0.0918
  340loPI   C4B 5440  14.975   1.226   7.800 -0.2109  0.0340 -0.0636
  341loPI    C1 5441  13.543   4.273  10.350  0.2688 -0.0492 -0.1899
  341loPI    C2 5442  13.636   4.662  10.334  0.1696 -0.0280 -0.2588
  341loPI    C3 5443  13.920   4.392  10.413  0.1941  0.0781  0.0272
  341loPI   PO4 5444  13.423   4.210  10.130 -0.1255  0.0880 -0.1882
  341loPI   GL1 5445  13.433   4.136   9.714 -0.0697 -0.0692 -0.1098
  341loPI   GL2 5446  13.589   3.904   9.563  0.0256  0.0135 -0.1191
  341loPI   C1A 5447  13.283   4.407   9.410  0.1811  0.2592  0.3116
  341loPI   C2A 5448  13.228   4.327   8.956  0.2355 -0.0936  0.2359
  341loPI   C3A 5449  13.299   4.340   8.461  0.1587  0.0901  0.2730
  341loPI   C4A 5450  12.915   4.332   8.189  0.3271  0.1351 -0.1697
  341loPI   C5A 5451  12.966   4.278   7.760  0.1784  0.1206 -0.0192
  341loPI   C6A 5452  13.074   3.868   7.479  0.0854  0.3125 -0.0732
  341loPI   C1B 5453  13.339   3.878   9.122 -0.0382 -0.1747 -0.1625
  341loPI   C2B 5454  13.231   3.797   8.769 -0.1007 -0.0705 -0.1439
  341loPI   C3B 5455  13.316   3.775   8.375  0.4346  0.2459 -0.3095
  341loPI   C4B 5456  13.155   3.875   8.002 -0.0242  0.1205  0.4665
  342loPI    C1 5457   4.778  10.028  10.390 -0.0416  0.2646 -0.0011
  342loPI    C2 5458   4.864   9.940  10.771  0.0488 -0.2326 -0.1298
  342loPI    C3 5459   4.889  10.318  10.642  0.1147 -0.0747  0.3297
  342loPI   PO4 5460   4.932   9.860  10.280  0.0891  0.3577  0.1406
  342loPI   GL1 5461   5.114   9.718   9.827  0.0083  0.5166 -0.1393
  342loPI   GL2 5462   5.058  10.023   9.844 -0.2178 -0.1025  0.2628
  342loPI   C1A 5463   5.082   9.552   9.417 -0.0256  0.2171  0.1114
  342loPI   C2A 5464   5.154   9.557   9.088  0.0211 -0.1863  0.1493
  342loPI   C3A 5465   5.172   9.647   8.636  0.0910 -0.0695 -0.2153
  342loPI   C4A 5466   5.261   9.644   8.175 -0.2043  0.1008 -0.1431
  342loPI   C5A 5467   5.295   9.626   7.800  0.0146  0.2887 -0.0047
  342loPI   C6A 5468   5.371   9.359   7.406  0.0151  0.0531 -0.0992
  342loPI   C1B 5469   4.888  10.154   9.514 -0.0735  0.5732 -0.0361
  342loPI   C2B 5470   4.921  10.182   9.075 -0.1422  0.0351 -0.0447
  342loPI   C3B 5471   5.061  10.135   8.695 -0.0535  0.1447 -0.3170
  342loPI   C4B 5472   5.044  10.107   8.253 -0.0682 -0.1819  0.1221
  343loPI    C1 5473   3.395  14.118  10.300 -0.0148  0.1246  0.1725
  343loPI    C2 5474   3.574  14.457  10.187  0.0739  0.0447  0.0708
  343loPI    C3 5475   3.174  14.432  10.188  0.0695  0.1006 -0.0668
  343loPI   PO4 5476   3.402  13.859  10.144  0.0206  0.1184 -0.0156
  343loPI   GL1 5477   3.508  13.461   9.863  0.0808  0.0165 -0.2655
  343loPI   GL2 5478   3.732  13.571   9.918 -0.2611  0.2801  0.2798
  343loPI   C1A 5479   3.467  13.475   9.371  0.0458  0.4267  0.3596
  343loPI   C2A 5480   3.517  13.446   8.959  0.3343 -0.3227 -0.2251
  343loPI   C3A 5481   3.441  13.519   8.590 -0.1588  0.0627 -0.0129
  343loPI   C4A 5482   3.538  13.579   8.088 -0.1857  0.6014  0.1817
  343loPI   C5A 5483   3.551  13.378   7.721 -0.2392  0.2891  0.0754
  343loPI   C6A 5484   3.818  13.015   7.571  0.1866  0.0681 -0.1554
  343loPI   C1B 5485   3.779  13.759   9.503  0.1888 -0.1383 -0.2778
  343loPI   C2B 5486   3.986  13.883   9.064  0.0687  0.0640 -0.1203
  343loPI   C3B 5487   3.923  13.789   8.680 -0.1100  0.0736  0.1668
  343loPI   C4B 5488   3.936  13.879   8.207  0.0260  0.1605  0.2559
  344loPI    C1 5489  14.592   5.219  10.031 -0.3140  0.1802  0.2378
  344loPI    C2 5490  14.501   5.593   9.925 -0.0710  0.2518  0.2749
  344loPI    C3 5491  14.537   5.498  10.312  0.0045  0.2237  0.2611
  344loPI   PO4 5492  14.404   5.099   9.838 -0.0669 -0.0780 -0.0094
  344loPI   GL1 5493  14.248   5.148   9.451  0.1791 -0.2923  0.5235
  344loPI   GL2 5494  14.561   5.095   9.286 -0.0190 -0.1474  0.1999
  344loPI   C1A 5495  14.107   5.148   9.008 -0.2327 -0.2285  0.1135
  344loPI   C2A 5496  14.044   5.010   8.625  0.0768 -0.0470 -0.2725
  344loPI   C3A 5497  13.942   4.992   8.220  0.1948  0.2460  0.3048
  344loPI   C4A 5498  13.907   4.807   7.859  0.0149 -0.1610 -0.3026
  344loPI   C5A 5499  13.971   4.373   7.846 -0.0386  0.1199 -0.3635
  344loPI   C6A 5500  14.058   4.044   7.620 -0.0395 -0.0205 -0.3273
  344loPI   C1B 5501  14.543   5.217   8.788 -0.2166  0.1970  0.1844
  344loPI   C2B 5502  14.404   5.249   8.326 -0.3239 -0.0396  0.1372
  344loPI   C3B 5503  14.141   5.429   7.954  0.1491  0.0949  0.3762
  344loPI   C4B 5504  13.861   5.325   7.623 -0.0136 -0.0919  0.2161
  345loPI    C1 5505  12.311  15.767  10.079 -0.0088  0.1070  0.3213
  345loPI    C2 5506  12.385  15.468  10.335  0.2558  0.0576  0.1910
  345loPI    C3 5507  12.422  15.408   9.941  0.2175  0.2367  0.1592
  345loPI   PO4 5508  12.386  16.001  10.186 -0.0186  0.0384  0.1335
  345loPI   GL1 5509  12.405  16.278   9.794  0.1184 -0.0685  0.0632
  345loPI   GL2 5510  12.650  16.021   9.694  0.1644 -0.0587 -0.3956
  345loPI   C1A 5511  12.301  16.292   9.416  0.0367 -0.1000 -0.0504
  345loPI   C2A 5512  12.329  16.338   8.933  0.2706  0.1270 -0.2223
  345loPI   C3A 5513  12.231  16.205   8.450 -0.0615  0.1270 -0.0937
  345loPI   C4A 5514  12.096  16.115   8.101 -0.3158  0.0669  0.2512
  345loPI   C5A 5515  12.090  15.867   7.722  0.1041 -0.0153  0.1869
  345loPI   C6A 5516  11.762  15.537   7.619 -0.2691 -0.0498  0.1407
  345loPI   C1B 5517  12.605  15.706   9.411  0.3321 -0.1042 -0.0552
  345loPI   C2B 5518  12.460  15.836   9.137 -0.1125 -0.1019 -0.0882
  345loPI   C3B 5519  12.387  15.761   8.584 -0.0804  0.0142  0.1049
  345loPI   C4B 5520  12.305  15.653   8.234  0.0224  0.1293 -0.0744
  346loPI    C1 5521   1.193   3.277   9.870  0.0733  0.2345  0.1335
  346loPI    C2 5522   1.368   3.285  10.229  0.0484 -0.0225  0.1526
  346loPI    C3 5523   1.592   3.287   9.898  0.0768  0.0193  0.1719
  346loPI   PO4 5524   0.987   3.071   9.945 -0.2411  0.3358 -0.1394
  346loPI   GL1 5525   0.826   2.837   9.639 -0.2278 -0.0910 -0.1431
  346loPI   GL2 5526   0.836   3.056   9.512 -0.4841 -0.1207  0.1093
  346loPI   C1A 5527   0.844   2.481   9.386  0.2058 -0.1498 -0.2070
  346loPI   C2A 5528   0.905   2.489   9.009 -0.1456  0.2619 -0.1020
  346loPI   C3A 5529   1.110   2.363   8.628 -0.1121 -0.0580  0.1218
  346loPI   C4A 5530   1.044   2.516   8.271 -0.2153 -0.0546 -0.0469
  346loPI   C5A 5531   1.181   2.869   7.955  0.4580  0.1377  0.0266
  346loPI   C6A 5532   1.238   2.879   7.591  0.5852  0.3851 -0.0503
  346loPI   C1B 5533   0.813   3.085   9.034  0.1882  0.3301 -0.3203
  346loPI   C2B 5534   0.435   3.185   8.812 -0.0996 -0.3244  0.1253
  346loPI   C3B 5535   0.452   3.130   8.372 -0.0645  0.2517 -0.1010
  346loPI   C4B 5536   0.662   2.835   8.147 -0.0530 -0.4786 -0.3224
  347loPI    C1 5537  16.709  13.188   9.552  0.2637  0.0933 -0.2076
  347loPI    C2 5538  16.635  13.174   9.945 -0.1318  0.3550 -0.2665
  347loPI    C3 5539  16.997  13.281   9.813  0.1164 -0.0922  0.0252
  347loPI   PO4 5540  16.546  12.917   9.498  0.0820  0.0305 -0.0802
  347loPI   GL1 5541  16.558  12.756   9.051 -0.1782  0.3302 -0.1129
  347loPI   GL2 5542  16.763  12.572   9.039  0.0052 -0.0608  0.4914
  347loPI   C1A 5543  16.700  13.045   8.702 -0.1197 -0.2019  0.1150
  347loPI   C2A 5544  16.943  13.160   8.459 -0.0488 -0.1514  0.2642
  347loPI   C3A 5545  16.933  13.258   8.051 -0.0552  0.1033 -0.1296
  347loPI   C4A 5546  16.907  13.289   7.588 -0.2216  0.0617  0.0913
  347loPI   C5A 5547  17.055  13.376   7.077  0.0885 -0.0036 -0.0101
  347loPI   C6A 5548  17.096  13.299   6.621 -0.1820 -0.1534 -0.4731
  347loPI   C1B 5549  16.578  12.625   8.507 -0.0302 -0.0429  0.1893
  347loPI   C2B 5550  16.369  12.582   8.106 -0.0970  0.1057  0.0320
  347loPI   C3B 5551  16.156  12.195   7.987 -0.1970  0.1191 -0.3328
  347loPI   C4B 5552  15.787  12.381   8.014  0.0552 -0.2144  0.2178
  348loPI    C1 5553   1.383   3.827  10.264 -0.1957  0.1177 -0.1174
  348loPI    C2 5554   1.160   3.637  10.536  0.0437 -0.1694 -0.1170
  348loPI    C3 5555   1.348   3.976  10.634 -0.1473 -0.0870 -0.0292
  348loPI   PO4 5556   1.244   3.731  10.011  0.0436 -0.0657 -0.3136
  348loPI   GL1 5557   1.398   3.685   9.670  0.0404  0.0473 -0.0359
  348loPI   GL2 5558   1.388   3.831   9.528 -0.2559 -0.1687  0.0300
  348loPI   C1A 5559   1.584   3.384   9.377 -0.2059 -0.1253  0.0391
  348loPI   C2A 5560   1.667   3.439   8.907  0.1440 -0.1356  0.2429
  348loPI   C3A 5561   1.770   3.451   8.468 -0.1599 -0.0652  0.1166
  348loPI   C4A 5562   1.799   3.615   8.046  0.0836 -0.1485 -0.0022
  348loPI   C5A 5563   1.893   3.521   7.715 -0.3292 -0.0657 -0.2604
  348loPI   C6A 5564   1.850   3.753   7.365 -0.0615 -0.2302  0.1541
  348loPI   C1B 5565   1.411   3.818   9.109  0.2527  0.0052  0.1864
  348loPI   C2B 5566   1.520   3.945   8.673  0.0530 -0.0833  0.2248
  348loPI   C3B 5567   1.666   4.098   8.236 -0.0599  0.0318  0.1036
  348loPI   C4B 5568   1.678   4.064   7.776 -0.0694 -0.0137 -0.0367
  349loPI    C1 5569   1.315   8.624   9.940  0.2160 -0.0101  0.0166
  349loPI    C2 5570   0.947   8.538  10.071  0.2096 -0.4498 -0.2717
  349loPI    C3 5571   1.241   8.607  10.333 -0.0866 -0.0302 -0.0389
  349loPI   PO4 5572   1.271   8.764   9.748 -0.1080  0.3985 -0.1779
  349loPI   GL1 5573   1.595   8.775   9.399 -0.1950  0.0227  0.2722
  349loPI   GL2 5574   1.484   8.370   9.351 -0.0213 -0.1984 -0.1977
  349loPI   C1A 5575   1.431   8.936   9.136  0.3258  0.3673  0.2444
  349loPI   C2A 5576   1.444   8.959   8.702 -0.1648  0.2037  0.4391
  349loPI   C3A 5577   1.512   8.785   8.271  0.1280  0.1654 -0.0741
  349loPI   C4A 5578   1.402   8.749   7.860  0.0451 -0.0036 -0.2720
  349loPI   C5A 5579   1.260   8.626   7.426 -0.1200 -0.3064 -0.1277
  349loPI   C6A 5580   1.164   8.273   7.305  0.2529 -0.2361 -0.0422
  349loPI   C1B 5581   1.577   8.491   8.912 -0.0293  0.1675  0.0084
  349loPI   C2B 5582   1.691   8.328   8.489  0.1332 -0.1691  0.0056
  349loPI   C3B 5583   1.649   8.281   8.065 -0.4214  0.0376  0.2260
  349loPI   C4B 5584   1.784   8.432   7.684 -0.1217  0.0217 -0.3472
  350loPI    C1 5585   3.246  13.099  10.344 -0.1996  0.1781  0.2709
  350loPI    C2 5586   3.572  13.028  10.565 -0.0437  0.2513  0.0687
  350loPI    C3 5587   3.531  13.378  10.376 -0.1630  0.1802 -0.0393
  350loPI   PO4 5588   3.248  12.864  10.204  0.3872  0.3371 -0.1909
  350loPI   GL1 5589   3.256  12.958   9.785  0.1807  0.2413 -0.2596
  350loPI   GL2 5590   2.998  13.099   9.624  0.1760 -0.0947  0.0134
  350loPI   C1A 5591   3.549  13.014   9.452 -0.1147  0.1221 -0.2504
  350loPI   C2A 5592   3.671  12.987   9.122  0.1929  0.1368  0.0452
  350loPI   C3A 5593   3.559  12.964   8.695 -0.0304 -0.1143 -0.0235
  350loPI   C4A 5594   3.543  13.130   8.308  0.0021  0.1781 -0.1820
  350loPI   C5A 5595   3.384  12.944   7.866  0.0197  0.0641 -0.1680
  350loPI   C6A 5596   3.259  13.109   7.439 -0.1347  0.0469 -0.0333
  350loPI   C1B 5597   3.122  13.147   9.212 -0.0402  0.1785 -0.0261
  350loPI   C2B 5598   3.072  13.108   8.758  0.4612 -0.2491  0.0302
  350loPI   C3B 5599   3.064  13.232   8.293 -0.1949  0.1962 -0.1364
  350loPI   C4B 5600   3.015  13.335   7.797 -0.0468 -0.0111 -0.0161
  351loPI    C1 5601   3.874  16.823   9.975  0.0500 -0.1192 -0.0290
  351loPI    C2 5602   3.814  17.089  10.267  0.0354  0.1717 -0.2911
  351loPI    C3 5603   4.116  16.828  10.293 -0.1090  0.0355  0.0908
  351loPI   PO4 5604   3.685  16.709   9.925 -0.2132 -0.2376  0.2348
  351loPI   GL1 5605   3.546  16.442   9.619  0.0683  0.3327  0.1256
  351loPI   GL2 5606   3.881  16.418   9.574  0.3057 -0.0679 -0.1254
  351loPI   C1A 5607   3.747  16.790   9.308  0.1578 -0.0642 -0.0826
  351loPI   C2A 5608   3.710  16.865   8.901  0.0008 -0.1759  0.2768
  351loPI   C3A 5609   3.730  16.882   8.400  0.0149  0.1519 -0.0063
  351loPI   C4A 5610   3.679  16.946   8.052  0.1151  0.0792 -0.1160
  351loPI   C5A 5611   3.451  16.844   7.677 -0.0371 -0.2752  0.1467
  351loPI   C6A 5612   3.119  16.946   7.500 -0.0477 -0.1342 -0.2436
  351loPI   C1B 5613   3.868  16.296   9.177 -0.4126 -0.4375  0.0138
  351loPI   C2B 5614   3.909  16.300   8.822 -0.0788  0.0199  0.0734
  351loPI   C3B 5615   3.891  16.325   8.404 -0.1937 -0.0143 -0.0363
  351loPI   C4B 5616   3.744  16.516   8.000 -0.1255  0.0635 -0.0069
  352loPI    C1 5617   6.381   4.465  10.951 -0.0387  0.0175  0.2278
  352loPI    C2 5618   6.494   4.642  11.292 -0.1998 -0.0865  0.3367
  352loPI    C3 5619   6.239   4.334  11.301  0.1139 -0.3591  0.1540
  352loPI   PO4 5620   6.320   4.589  10.812  0.2131 -0.0391  0.0009
  352loPI   GL1 5621   6.442   4.460  10.298  0.1812 -0.1104  0.3553
  352loPI   GL2 5622   6.655   4.789  10.357 -0.0673 -0.1852 -0.0260
  352loPI   C1A 5623   6.544   4.412   9.839 -0.0556  0.2726 -0.0758
  352loPI   C2A 5624   6.578   4.258   9.466 -0.2447  0.2034 -0.3492
  352loPI   C3A 5625   6.542   4.226   9.043 -0.0143 -0.0117 -0.2507
  352loPI   C4A 5626   6.646   4.133   8.670 -0.0893 -0.0172  0.2787
  352loPI   C5A 5627   6.855   4.259   8.322  0.0112  0.2644  0.2457
  352loPI   C6A 5628   6.805   4.680   8.261 -0.0120 -0.1017 -0.0094
  352loPI   C1B 5629   6.435   4.917  10.034 -0.1994 -0.0619 -0.2225
  352loPI   C2B 5630   6.448   4.770   9.548  0.1146 -0.2037 -0.0903
  352loPI   C3B 5631   6.540   4.782   9.171  0.0977  0.1985 -0.1245
  352loPI   C4B 5632   6.604   4.687   8.756 -0.1354  0.0242 -0.3593
  353loPI    C1 5633   5.120   3.197  10.549  0.2935  0.0601 -0.1694
  353loPI    C2 5634   5.284   2.851  10.433 -0.1392 -0.1877 -0.0675
  353loPI    C3 5635   5.253   2.936  10.822 -0.0359 -0.0313 -0.0921
  353loPI   PO4 5636   5.071   3.313  10.314  0.0543 -0.0815 -0.2719
  353loPI   GL1 5637   5.179   3.306   9.958 -0.0956 -0.1569 -0.3704
  353loPI   GL2 5638   5.024   3.210   9.797  0.2417  0.2941  0.2949
  353loPI   C1A 5639   5.319   3.610   9.574  0.4278 -0.1072  0.1578
  353loPI   C2A 5640   5.399   3.694   9.157  0.0295 -0.1313 -0.3685
  353loPI   C3A 5641   5.436   3.685   8.704  0.1164  0.2634  0.0777
  353loPI   C4A 5642   5.491   3.582   8.323 -0.0877 -0.1263  0.1317
  353loPI   C5A 5643   5.550   3.281   7.952 -0.4150  0.0528  0.3286
  353loPI   C6A 5644   5.276   3.203   7.703  0.1400 -0.2383 -0.2249
  353loPI   C1B 5645   5.051   3.323   9.287  0.1701 -0.0418 -0.3446
  353loPI   C2B 5646   5.013   3.438   8.925 -0.0631  0.1207  0.3555
  353loPI   C3B 5647   4.989   3.389   8.537  0.0211 -0.2935 -0.2994
  353loPI   C4B 5648   4.935   3.341   8.072 -0.3083 -0.0292 -0.2136
  354loPI    C1 5649   5.659  10.131  10.437  0.0694 -0.1390  0.2438
  354loPI    C2 5650   5.412   9.878  10.249 -0.0603  0.1403  0.0315
  354loPI    C3 5651   5.317  10.016  10.612 -0.2027  0.2217 -0.0360
  354loPI   PO4 5652   5.729  10.281  10.213 -0.0930 -0.0856  0.0946
  354loPI   GL1 5653   5.692  10.460   9.811  0.3670  0.0401  0.5021
  354loPI   GL2 5654   5.424  10.506   9.707  0.0460  0.0872 -0.0892
  354loPI   C1A 5655   5.955  10.295   9.465 -0.0596 -0.2906 -0.2404
  354loPI   C2A 5656   5.976  10.280   9.020 -0.0803 -0.0171 -0.1151
  354loPI   C3A 5657   5.973  10.333   8.593 -0.4012 -0.3101 -0.0692
  354loPI   C4A 5658   5.965  10.235   8.103 -0.1131 -0.0711 -0.0613
  354loPI   C5A 5659   5.685   9.950   7.930 -0.2263  0.6094  0.1145
  354loPI   C6A 5660   5.713   9.828   7.466 -0.0451  0.1653 -0.2840
  354loPI   C1B 5661   5.504  10.456   9.215 -0.2246 -0.0981 -0.1794
  354loPI   C2B 5662   5.522  10.516   8.782 -0.0079  0.0061  0.2439
  354loPI   C3B 5663   5.453  10.411   8.264 -0.1321  0.0353  0.3812
  354loPI   C4B 5664   5.557  10.473   7.926  0.4299  0.2434  0.1296
  355loPI    C1 5665   5.148   2.365  10.311  0.0512  0.1287 -0.1116
  355loPI    C2 5666   5.419   2.423  10.599 -0.0764  0.1995 -0.0048
  355loPI    C3 5667   5.032   2.493  10.671 -0.1335  0.0234 -0.1320
  355loPI   PO4 5668   5.199   2.475  10.148 -0.3576  0.2221  0.2906
  355loPI   GL1 5669   5.305   2.800   9.923 -0.0884  0.0519 -0.0058
  355loPI   GL2 5670   5.466   2.889   9.983  0.2325  0.1169 -0.2221
  355loPI   C1A 5671   5.619   2.767   9.528 -0.3849 -0.0291 -0.1801
  355loPI   C2A 5672   5.701   2.666   9.069 -0.1035  0.0493 -0.2893
  355loPI   C3A 5673   5.655   2.689   8.670  0.0260 -0.1800  0.0226
  355loPI   C4A 5674   5.588   2.699   8.223 -0.1536 -0.0114 -0.1061
  355loPI   C5A 5675   5.596   2.628   7.830  0.0327 -0.0990 -0.0499
  355loPI   C6A 5676   5.403   2.450   7.408 -0.0447  0.2134 -0.1495
  355loPI   C1B 5677   5.576   3.227   9.728 -0.0119  0.0947 -0.0425
  355loPI   C2B 5678   5.527   3.211   9.264  0.1346  0.1537 -0.0241
  355loPI   C3B 5679   5.481   3.158   8.796 -0.4701 -0.1288 -0.0318
  355loPI   C4B 5680   5.473   3.108   8.420 -0.2580 -0.5024  0.1410
  356loPI    C1 5681  11.233   7.547  10.935  0.2201  0.1002 -0.1132
  356loPI    C2 5682  11.614   7.423  10.929  0.1595 -0.1337  0.3681
  356loPI    C3 5683  11.332   7.194  11.096 -0.1196  0.2352  0.4157
  356loPI   PO4 5684  11.239   7.693  10.682  0.5452  0.2828  0.1533
  356loPI   GL1 5685  11.136   7.597  10.312 -0.4597  0.1020  0.0129
  356loPI   GL2 5686  10.803   7.745  10.254 -0.0262 -0.1914  0.5640
  356loPI   C1A 5687  11.355   7.871  10.078  0.2663  0.1090  0.2038
  356loPI   C2A 5688  11.287   8.030   9.641 -0.0300  0.2250 -0.2475
  356loPI   C3A 5689  11.131   8.014   9.226  0.1446  0.1844 -0.3563
  356loPI   C4A 5690  11.073   7.980   8.829  0.0589  0.2122 -0.0243
  356loPI   C5A 5691  11.035   8.346   8.511  0.2064  0.0163 -0.2453
  356loPI   C6A 5692  11.260   8.723   8.475 -0.2357 -0.1970 -0.1517
  356loPI   C1B 5693  10.858   7.627   9.851 -0.1934 -0.2736  0.0361
  356loPI   C2B 5694  10.707   7.610   9.434 -0.0311  0.1554 -0.0885
  356loPI   C3B 5695  10.767   7.691   9.047 -0.1074  0.3068 -0.0556
  356loPI   C4B 5696  10.704   7.611   8.640  0.5400  0.0604 -0.0438
  357loPI    C1 5697   6.404   0.283  10.407 -0.2408  0.0713  0.0406
  357loPI    C2 5698   6.371   0.156  10.785 -0.0338 -0.0238  0.0283
  357loPI    C3 5699   6.253  -0.079  10.484  0.1820 -0.1170  0.0147
  357loPI   PO4 5700   6.645   0.262  10.248  0.1617  0.3058  0.4136
  357loPI   GL1 5701   6.719   0.190   9.795  0.2072  0.0207  0.0728
  357loPI   GL2 5702   6.994   0.138   9.801  0.0393  0.3819  0.2546
  357loPI   C1A 5703   6.546  -0.108   9.538 -0.0379 -0.0133  0.3399
  357loPI   C2A 5704   6.600  -0.067   9.063  0.0383  0.2054 -0.0657
  357loPI   C3A 5705   6.532  -0.010   8.671  0.0577 -0.0829  0.4091
  357loPI   C4A 5706   6.632  -0.205   8.339 -0.1511  0.0089  0.2840
  357loPI   C5A 5707   6.741  -0.100   7.917  0.0516  0.0752  0.3487
  357loPI   C6A 5708   7.086  -0.118   7.561 -0.0128  0.0948  0.3316
  357loPI   C1B 5709   7.000   0.184   9.275  0.1053  0.2596  0.0229
  357loPI   C2B 5710   6.984   0.266   8.882 -0.2009 -0.0165  0.0268
  357loPI   C3B 5711   7.041   0.256   8.432  0.0194 -0.0004  0.2107
  357loPI   C4B 5712   7.216  -0.046   8.067 -0.3753  0.1483  0.3035
  358loPI    C1 5713   9.490  12.505  10.712  0.1679 -0.0128 -0.1480
  358loPI    C2 5714   9.326  12.179  10.875  0.1332  0.0582 -0.0404
  358loPI    C3 5715   9.540  12.430  11.102  0.3609 -0.0145 -0.1720
  358loPI   PO4 5716   9.675  12.386  10.519 -0.1165  0.0232  0.0170
  358loPI   GL1 5717   9.969  12.565  10.177 -0.0943  0.1020 -0.0972
  358loPI   GL2 5718   9.867  12.806  10.143  0.0133  0.1684 -0.0758
  358loPI   C1A 5719   9.981  12.449   9.793 -0.2280  0.2805 -0.1307
  358loPI   C2A 5720   9.885  12.308   9.325 -0.1020 -0.0652 -0.1304
  358loPI   C3A 5721   9.839  12.337   8.887  0.2095  0.1154  0.3838
  358loPI   C4A 5722   9.777  12.309   8.441 -0.0014  0.0278 -0.1328
  358loPI   C5A 5723   9.620  12.150   8.073  0.2272 -0.2086 -0.0495
  358loPI   C6A 5724   9.254  11.819   7.954 -0.0781 -0.4472 -0.0080
  358loPI   C1B 5725   9.783  12.944   9.739  0.1569  0.5060 -0.0335
  358loPI   C2B 5726   9.785  12.896   9.282 -0.0325 -0.0529 -0.0435
  358loPI   C3B 5727   9.686  12.916   8.871  0.2088  0.2306  0.4088
  358loPI   C4B 5728   9.572  12.839   8.407 -0.0217  0.1034  0.1780
  359loPI    C1 5729   0.031  16.986   9.968 -0.2837 -0.0213  0.1999
  359loPI    C2 5730   0.233  16.698   9.777  0.0282  0.4052 -0.1321
  359loPI    C3 5731   0.292  16.758  10.168 -0.0977 -0.0241 -0.0418
  359loPI   PO4 5732   0.053  17.235   9.751 -0.2159  0.2116 -0.3888
  359loPI   GL1 5733  -0.142  17.270   9.385 -0.5474 -0.0110 -0.0113
  359loPI   GL2 5734  -0.477  17.182   9.216  0.0341  0.1255  0.1737
  359loPI   C1A 5735   0.198  17.448   9.095 -0.0323 -0.0349 -0.1523
  359loPI   C2A 5736   0.306  17.519   8.693  0.0907 -0.0592  0.1971
  359loPI   C3A 5737   0.049  17.635   8.374  0.0179 -0.1596  0.1084
  359loPI   C4A 5738   0.058  17.676   7.933  0.0198  0.0130  0.0524
  359loPI   C5A 5739  -0.145  17.737   7.539 -0.3897 -0.1593 -0.1709
  359loPI   C6A 5740  -0.521  17.775   7.207 -0.0814 -0.0181  0.0257
  359loPI   C1B 5741  -0.154  17.102   8.956  0.2268  0.1116 -0.2270
  359loPI   C2B 5742   0.002  17.148   8.537  0.2426 -0.1143  0.1392
  359loPI   C3B 5743  -0.050  17.132   8.048 -0.0715 -0.0759  0.0939
  359loPI   C4B 5744  -0.159  17.281   7.668  0.3325  0.0656 -0.2314
  360loPI    C1 5745  15.347   1.147   9.813 -0.0658  0.1183 -0.1325
  360loPI    C2 5746  15.029   1.370   9.910 -0.0276  0.2003 -0.1953
  360loPI    C3 5747  15.309   1.292  10.184 -0.0731  0.1757 -0.1556
  360loPI   PO4 5748  15.202   0.951   9.667  0.2779  0.2077 -0.2362
  360loPI   GL1 5749  14.926   1.095   9.356 -0.0809 -0.2060  0.0253
  360loPI   GL2 5750  14.848   1.438   9.440  0.4572 -0.0457 -0.0482
  360loPI   C1A 5751  14.858   0.990   8.893 -0.1929  0.2091  0.0257
  360loPI   C2A 5752  14.766   0.982   8.463  0.2931  0.1999  0.1715
  360loPI   C3A 5753  14.683   0.998   8.068 -0.0087 -0.1367  0.0978
  360loPI   C4A 5754  14.504   0.933   7.646 -0.0584  0.0293 -0.0139
  360loPI   C5A 5755  14.723   0.808   7.331  0.2646  0.1815 -0.1493
  360loPI   C6A 5756  15.073   1.117   7.317 -0.3927  0.2606 -0.1613
  360loPI   C1B 5757  14.754   1.451   8.942 -0.0503  0.1942  0.4690
  360loPI   C2B 5758  14.599   1.502   8.541  0.1847  0.0654 -0.5100
  360loPI   C3B 5759  14.524   1.470   8.065 -0.0687  0.0275 -0.0890
  360loPI   C4B 5760  14.512   1.415   7.642  0.4481  0.0217  0.0586
  361loPI    C1 5761  18.051   5.160   9.694  0.0452  0.2451 -0.0594
  361loPI    C2 5762  17.782   5.121   9.987  0.0857  0.2096 -0.0267
  361loPI    C3 5763  18.123   5.320  10.054  0.1712  0.0557  0.0011
  361loPI   PO4 5764  17.835   5.107   9.494 -0.1018  0.0763 -0.0721
  361loPI   GL1 5765  17.735   5.386   9.127  0.2160 -0.1577 -0.2107
  361loPI   GL2 5766  17.971   5.180   8.960  0.2857 -0.1866  0.2368
  361loPI   C1A 5767  17.596   5.739   8.879 -0.0490 -0.1116 -0.0264
  361loPI   C2A 5768  17.716   5.910   8.592  0.1481  0.0926  0.0520
  361loPI   C3A 5769  17.710   6.196   8.278 -0.0760  0.2697 -0.2417
  361loPI   C4A 5770  17.834   6.137   7.859 -0.0537 -0.2168 -0.0196
  361loPI   C5A 5771  17.718   6.335   7.416  0.2188  0.2310  0.2652
  361loPI   C6A 5772  17.769   6.519   7.061 -0.1135  0.0054 -0.0121
  361loPI   C1B 5773  17.943   5.369   8.569 -0.1511 -0.1228 -0.2524
  361loPI   C2B 5774  17.911   5.584   8.180  0.2216  0.1943  0.0869
  361loPI   C3B 5775  17.714   5.615   7.821 -0.0335  0.0192 -0.2788
  361loPI   C4B 5776  17.496   5.709   7.479 -0.1411  0.1522 -0.1874
  362loPI    C1 5777  18.014   7.998   9.923  0.1396  0.0593 -0.0945
  362loPI    C2 5778  17.621   8.057   9.878  0.1388 -0.0573 -0.2462
  362loPI    C3 5779  17.785   8.074  10.243 -0.0244 -0.1128 -0.1691
  362loPI   PO4 5780  18.023   7.893   9.718 -0.1989 -0.2237  0.1476
  362loPI   GL1 5781  18.352   8.181   9.368  0.2700  0.3452  0.0475
  362loPI   GL2 5782  18.000   8.184   9.339 -0.2506 -0.2365 -0.1169
  362loPI   C1A 5783  18.556   8.228   9.013  0.0070 -0.0284 -0.1414
  362loPI   C2A 5784  18.687   8.077   8.540  0.0431  0.0088 -0.0492
  362loPI   C3A 5785  18.501   7.807   8.289  0.1295  0.2281  0.0748
  362loPI   C4A 5786  18.319   7.872   7.861  0.3080 -0.0200 -0.1172
  362loPI   C5A 5787  18.117   7.949   7.526  0.0796 -0.0570  0.1509
  362loPI   C6A 5788  17.858   8.289   7.429 -0.0464 -0.1013  0.1679
  362loPI   C1B 5789  18.073   8.149   8.935  0.2145 -0.1644 -0.1148
  362loPI   C2B 5790  18.213   8.111   8.512 -0.0264 -0.2196 -0.2202
  362loPI   C3B 5791  17.981   8.138   8.089  0.0576  0.1810 -0.1335
  362loPI   C4B 5792  17.769   8.372   7.921  0.0745 -0.0992  0.1866
  363loPI    C1 5793  16.542  14.253   9.992 -0.2202  0.0317 -0.1961
  363loPI    C2 5794  16.556  14.586  10.212 -0.2967 -0.1555  0.0987
  363loPI    C3 5795  16.216  14.377  10.189 -0.2558 -0.2014 -0.1040
  363loPI   PO4 5796  16.655  14.276   9.762  0.0047 -0.1159 -0.0113
  363loPI   GL1 5797  16.892  14.189   9.325  0.3240 -0.3156 -0.1439
  363loPI   GL2 5798  16.576  14.106   9.314 -0.3166  0.0875 -0.0207
  363loPI   C1A 5799  16.718  14.426   8.940 -0.1261  0.1810  0.0368
  363loPI   C2A 5800  16.795  14.606   8.516 -0.0019 -0.4797 -0.0506
  363loPI   C3A 5801  16.666  14.577   8.172  0.0614 -0.0694 -0.0257
  363loPI   C4A 5802  16.625  14.760   7.740  0.2664 -0.1196 -0.0794
  363loPI   C5A 5803  16.716  14.967   7.335 -0.1015  0.2884 -0.0286
  363loPI   C6A 5804  16.914  15.221   7.044 -0.0980  0.2036  0.2598
  363loPI   C1B 5805  16.498  14.062   8.796 -0.2284  0.0753 -0.0111
  363loPI   C2B 5806  16.738  14.126   8.434 -0.2046  0.4384 -0.1811
  363loPI   C3B 5807  16.661  14.010   7.983 -0.1859  0.1690  0.0826
  363loPI   C4B 5808  16.717  13.742   7.598  0.0629 -0.1788 -0.0729
  364loPI    C1 5809   0.239  11.661  10.002 -0.3007  0.0939 -0.0154
  364loPI    C2 5810   0.338  11.280  10.070 -0.0207  0.1393 -0.1572
  364loPI    C3 5811   0.052  11.453  10.288 -0.1565 -0.1536 -0.0979
  364loPI   PO4 5812   0.332  11.723   9.765 -0.1702  0.5576 -0.0473
  364loPI   GL1 5813   0.243  11.806   9.397  0.3104  0.2737 -0.0763
  364loPI   GL2 5814   0.227  12.047   9.345 -0.0313  0.1328  0.0843
  364loPI   C1A 5815   0.206  11.518   8.936  0.1966 -0.0495 -0.3153
  364loPI   C2A 5816   0.135  11.503   8.544  0.0482 -0.2681 -0.0724
  364loPI   C3A 5817   0.402  11.438   8.153 -0.2063 -0.1695  0.0743
  364loPI   C4A 5818   0.711  11.623   8.007 -0.0569  0.1855  0.2722
  364loPI   C5A 5819   0.893  11.974   7.802  0.0206  0.5058 -0.3902
  364loPI   C6A 5820   1.176  12.163   7.929  0.0479 -0.1327 -0.2679
  364loPI   C1B 5821   0.343  12.007   8.915 -0.2447  0.0359 -0.1486
  364loPI   C2B 5822   0.717  12.037   8.855  0.0584  0.1280  0.2664
  364loPI   C3B 5823   1.082  11.846   8.717  0.3144 -0.3193 -0.0779
  364loPI   C4B 5824   1.443  11.897   8.862 -0.2376  0.5384 -0.2394
  365loPI    C1 5825   2.478   1.230  10.178  0.1424 -0.1297  0.0791
  365loPI    C2 5826   2.689   1.511   9.986  0.0035  0.0523  0.1897
  365loPI    C3 5827   2.802   1.390  10.350 -0.0509  0.1109  0.2262
  365loPI   PO4 5828   2.290   1.145  10.012  0.0523 -0.1214 -0.0404
  365loPI   GL1 5829   2.144   1.113   9.648 -0.2117  0.0634 -0.0978
  365loPI   GL2 5830   1.992   1.458   9.659 -0.0484 -0.0149  0.0534
  365loPI   C1A 5831   2.119   0.976   9.305 -0.0047  0.1701 -0.0619
  365loPI   C2A 5832   2.146   0.893   8.832 -0.1359  0.1029 -0.2107
  365loPI   C3A 5833   2.216   1.025   8.409 -0.0624  0.0383 -0.1457
  365loPI   C4A 5834   2.408   1.120   8.088  0.3253 -0.0691 -0.1955
  365loPI   C5A 5835   2.328   1.210   7.731  0.0578  0.0802  0.1734
  365loPI   C6A 5836   2.378   1.322   7.342  0.1575  0.2999 -0.2249
  365loPI   C1B 5837   2.063   1.499   9.320 -0.0484  0.0632  0.0015
  365loPI   C2B 5838   2.021   1.608   8.887  0.0766  0.2020  0.0189
  365loPI   C3B 5839   2.051   1.555   8.516  0.0088  0.0915  0.0765
  365loPI   C4B 5840   2.203   1.570   8.103  0.0287  0.0803  0.0167
  366loPI    C1 5841  10.007  18.327  10.560 -0.0035  0.1396  0.0349
  366loPI    C2 5842  10.156  18.504  10.887 -0.0511  0.3049 -0.0317
  366loPI    C3 5843   9.760  18.467  10.842 -0.0371 -0.0278  0.0895
  366loPI   PO4 5844  10.169  18.222  10.431 -0.2442 -0.1809  0.0328
  366loPI   GL1 5845  10.004  18.254  10.021 -0.2127  0.0442  0.5761
  366loPI   GL2 5846   9.828  18.511  10.062  0.4063 -0.0333 -0.2850
  366loPI   C1A 5847  10.098  17.982   9.589  0.1866 -0.0183  0.2452
  366loPI   C2A 5848   9.982  17.957   9.208 -0.3451 -0.0994 -0.5467
  366loPI   C3A 5849  10.037  18.064   8.841 -0.1536  0.4333  0.0735
  366loPI   C4A 5850  10.010  17.966   8.462 -0.1982  0.0273  0.0348
  366loPI   C5A 5851   9.979  18.143   7.997  0.4617 -0.0684 -0.1163
  366loPI   C6A 5852  10.164  17.953   7.704 -0.2071  0.3927  0.2950
  366loPI   C1B 5853   9.984  18.551   9.640  0.0066  0.0234  0.0354
  366loPI   C2B 5854   9.908  18.499   9.212 -0.3158  0.2606 -0.1282
  366loPI   C3B 5855   9.841  18.523   8.720 -0.2477  0.2250  0.1981
  366loPI   C4B 5856   9.946  18.569   8.321  0.1410  0.5078 -0.0162
  367loPI    C1 5857  17.194  16.869   9.791  0.0169  0.0215 -0.0485
  367loPI    C2 5858  16.835  16.785   9.945  0.0638 -0.0454  0.0251
  367loPI    C3 5859  16.968  17.162   9.943 -0.0473 -0.0061 -0.0907
  367loPI   PO4 5860  17.221  16.759   9.560  0.3155 -0.3920  0.2924
  367loPI   GL1 5861  17.351  16.704   9.292 -0.2058  0.1229  0.1024
  367loPI   GL2 5862  17.368  16.354   9.270 -0.1605 -0.0381 -0.2279
  367loPI   C1A 5863  17.501  16.761   8.893  0.1871 -0.1295  0.0182
  367loPI   C2A 5864  17.485  16.813   8.491  0.2932 -0.0969 -0.1088
  367loPI   C3A 5865  17.481  16.814   8.007 -0.0022 -0.2299 -0.0013
  367loPI   C4A 5866  17.464  16.673   7.544  0.0791  0.1580  0.0727
  367loPI   C5A 5867  17.321  16.461   7.221  0.0903  0.0027 -0.4283
  367loPI   C6A 5868  16.904  16.303   7.125  0.2335 -0.1444  0.1682
  367loPI   C1B 5869  17.115  16.393   8.860 -0.1122 -0.1740  0.2129
  367loPI   C2B 5870  17.057  16.524   8.455 -0.0739 -0.2221  0.0855
  367loPI   C3B 5871  16.991  16.500   7.988  0.0413 -0.2150 -0.1178
  367loPI   C4B 5872  16.924  16.557   7.601 -0.1432  0.1414 -0.4622
  368loPI    C1 5873  18.755  10.080   9.877  0.2028 -0.1660  0.0109
  368loPI    C2 5874  18.590   9.835  10.146  0.2439 -0.1848  0.0193
  368loPI    C3 5875  18.977   9.930  10.174  0.2074 -0.0486  0.0672
  368loPI   PO4 5876  18.582   9.977   9.630 -0.1978 -0.2083 -0.2209
  368loPI   GL1 5877  18.849   9.816   9.295  0.0964 -0.0817 -0.1915
  368loPI   GL2 5878  18.983  10.142   9.272 -0.0791 -0.0078 -0.0217
  368loPI   C1A 5879  19.014   9.663   8.967  0.2574 -0.0944  0.0833
  368loPI   C2A 5880  19.174   9.678   8.641  0.0146  0.0189  0.2716
  368loPI   C3A 5881  19.198   9.783   8.213  0.1490 -0.0477  0.0133
  368loPI   C4A 5882  19.195   9.583   7.809 -0.2369 -0.1181  0.0052
  368loPI   C5A 5883  19.130   9.553   7.390  0.0911 -0.3227 -0.1370
  368loPI   C6A 5884  18.833   9.382   7.101 -0.2549  0.1233 -0.3625
  368loPI   C1B 5885  19.153  10.145   8.917  0.0413 -0.0643  0.2957
  368loPI   C2B 5886  19.226  10.336   8.611  0.3598 -0.1216  0.2035
  368loPI   C3B 5887  19.231  10.336   8.230 -0.0376 -0.2876 -0.1560
  368loPI   C4B 5888  19.145  10.181   7.903  0.3392  0.3376  0.0129
  369loPI    C1 5889   2.250   5.334  10.485 -0.4271  0.0195  0.0320
  369loPI    C2 5890   2.318   5.202  10.856 -0.1105  0.1340  0.0175
  369loPI    C3 5891   2.078   4.996  10.611  0.1047 -0.2326  0.1074
  369loPI   PO4 5892   2.563   5.464  10.375  0.0216  0.1715 -0.2256
  369loPI   GL1 5893   2.636   5.473   9.935  0.0299 -0.2920  0.4568
  369loPI   GL2 5894   2.537   5.676   9.711 -0.0532 -0.1473  0.0359
  369loPI   C1A 5895   2.561   5.139   9.563  0.1252 -0.0362 -0.2298
  369loPI   C2A 5896   2.741   5.159   9.068  0.0559  0.2146 -0.0631
  369loPI   C3A 5897   2.877   5.212   8.656 -0.2149  0.3851  0.1256
  369loPI   C4A 5898   2.826   5.019   8.279 -0.3470  0.0203 -0.1421
  369loPI   C5A 5899   2.784   5.047   7.859  0.0403 -0.2092 -0.0133
  369loPI   C6A 5900   2.943   4.878   7.434 -0.1546 -0.1827 -0.1898
  369loPI   C1B 5901   2.686   5.587   9.321  0.1748 -0.0778  0.4850
  369loPI   C2B 5902   2.754   5.615   8.846  0.2765 -0.0547  0.0165
  369loPI   C3B 5903   2.741   5.739   8.384 -0.1565  0.0436 -0.1001
  369loPI   C4B 5904   2.779   5.763   8.015 -0.3003 -0.0319  0.2466
  370loPI    C1 5905   8.614   3.812  10.659  0.1130  0.0474  0.0727
  370loPI    C2 5906   8.590   3.475  10.873  0.3268  0.0396  0.0866
  370loPI    C3 5907   8.362   3.789  10.969 -0.1073 -0.2030 -0.1201
  370loPI   PO4 5908   8.575   3.822  10.313  0.1308 -0.2174 -0.1522
  370loPI   GL1 5909   8.435   3.525  10.035 -0.1354  0.1229 -0.1128
  370loPI   GL2 5910   8.297   3.206  10.020 -0.4174  0.1608 -0.3360
  370loPI   C1A 5911   8.780   3.434   9.820  0.0936 -0.0934  0.0064
  370loPI   C2A 5912   8.763   3.394   9.426 -0.1239  0.0503 -0.1376
  370loPI   C3A 5913   8.746   3.440   8.988  0.1754 -0.0333  0.2065
  370loPI   C4A 5914   8.653   3.449   8.514  0.0953 -0.2604  0.0920
  370loPI   C5A 5915   8.483   3.469   8.118 -0.0256 -0.1584  0.4094
  370loPI   C6A 5916   8.480   3.386   7.646  0.3177 -0.1430 -0.3050
  370loPI   C1B 5917   8.396   3.066   9.639 -0.2746  0.5019 -0.3636
  370loPI   C2B 5918   8.392   3.187   9.221  0.1801  0.4170 -0.0019
  370loPI   C3B 5919   8.340   3.165   8.781  0.0829 -0.1042 -0.0293
  370loPI   C4B 5920   8.258   3.128   8.313  0.1677  0.0875 -0.0522
  371loPI    C1 5921  12.441  10.561  10.428 -0.0372 -0.0120 -0.0250
  371loPI    C2 5922  12.627  10.559  10.783 -0.0273  0.0854 -0.0296
  371loPI    C3 5923  12.274  10.743  10.743 -0.0473  0.0406 -0.0609
  371loPI   PO4 5924  12.657  10.527  10.295  0.0627  0.0392  0.0306
  371loPI   GL1 5925  12.855  10.766   9.981 -0.0242 -0.1827 -0.1924
  371loPI   GL2 5926  12.512  10.930   9.778  0.1101 -0.3065 -0.0130
  371loPI   C1A 5927  12.917  10.566   9.655 -0.0012 -0.0079 -0.1186
  371loPI   C2A 5928  12.909  10.727   9.216 -0.0866  0.3841 -0.1126
  371loPI   C3A 5929  12.775  10.782   8.793  0.1508 -0.0610  0.1522
  371loPI   C4A 5930  12.769  10.768   8.376  0.0606 -0.1127  0.2464
  371loPI   C5A 5931  12.677  10.786   7.922  0.0055 -0.0159 -0.2490
  371loPI   C6A 5932  12.771  10.987   7.551 -0.1230  0.1028 -0.1237
  371loPI   C1B 5933  12.445  11.026   9.307 -0.0431  0.3066  0.1581
  371loPI   C2B 5934  12.375  10.980   8.882 -0.1614  0.2362 -0.0880
  371loPI   C3B 5935  12.274  10.958   8.508  0.0231 -0.0844 -0.0247
  371loPI   C4B 5936  12.154  11.014   7.988  0.1327 -0.0586  0.0859
  372loPI    C1 5937   0.605   4.161  10.018 -0.0976  0.3502  0.1223
  372loPI    C2 5938   0.527   3.893  10.304  0.1815 -0.0647 -0.1784
  372loPI    C3 5939   0.540   4.282  10.393 -0.4836 -0.1177  0.2163
  372loPI   PO4 5940   0.826   4.053   9.858  0.1310  0.0737  0.0282
  372loPI   GL1 5941   0.963   4.247   9.583 -0.0737 -0.2011 -0.0323
  372loPI   GL2 5942   1.149   4.359   9.375  0.0937  0.0101  0.0264
  372loPI   C1A 5943   0.949   3.962   9.131  0.0270  0.1633 -0.1298
  372loPI   C2A 5944   0.971   3.945   8.595 -0.1854  0.0572  0.2452
  372loPI   C3A 5945   1.238   3.836   8.172  0.0149  0.2054 -0.2033
  372loPI   C4A 5946   1.339   3.713   7.714  0.0139  0.2557 -0.0037
  372loPI   C5A 5947   1.406   3.322   7.599 -0.0425 -0.0961 -0.1647
  372loPI   C6A 5948   1.700   3.049   7.786  0.0470  0.0227  0.0920
  372loPI   C1B 5949   1.266   4.389   8.961  0.3591 -0.0444  0.2476
  372loPI   C2B 5950   1.462   4.652   8.669 -0.0843 -0.2759 -0.4386
  372loPI   C3B 5951   1.560   4.650   8.176  0.0666  0.2594 -0.2050
  372loPI   C4B 5952   1.496   4.768   7.768 -0.3355 -0.0335  0.0488
  373loPI    C1 5953   2.855  12.480  10.010 -0.2583  0.2917  0.0680
  373loPI    C2 5954   2.599  12.180   9.942  0.1174  0.0013 -0.1038
  373loPI    C3 5955   2.810  12.190  10.282 -0.0671  0.2024  0.0068
  373loPI   PO4 5956   2.736  12.684   9.777 -0.2690 -0.0206 -0.0603
  373loPI   GL1 5957   2.612  12.487   9.474 -0.1778 -0.1071 -0.0054
  373loPI   GL2 5958   2.792  12.281   9.343  0.1921 -0.2158 -0.0159
  373loPI   C1A 5959   2.552  12.688   9.120 -0.0496  0.1132  0.2076
  373loPI   C2A 5960   2.658  12.837   8.712 -0.1637 -0.0043  0.0976
  373loPI   C3A 5961   2.731  12.842   8.300  0.2227 -0.1620  0.2164
  373loPI   C4A 5962   2.878  12.805   7.952  0.0016 -0.1901  0.3596
  373loPI   C5A 5963   2.882  12.793   7.509  0.1194  0.1670  0.0876
  373loPI   C6A 5964   2.610  13.143   7.374 -0.3608 -0.3673  0.0777
  373loPI   C1B 5965   2.721  12.247   8.811 -0.0293 -0.1973  0.1398
  373loPI   C2B 5966   2.786  12.373   8.366  0.1494  0.2956  0.0474
  373loPI   C3B 5967   2.837  12.353   7.976 -0.0892 -0.0115 -0.0091
  373loPI   C4B 5968   2.830  12.260   7.494 -0.0749  0.1858 -0.0897
  374loPI    C1 5969  13.872   3.994  10.051  0.1646 -0.0185 -0.0251
  374loPI    C2 5970  13.662   3.663   9.972 -0.0859  0.1253  0.0251
  374loPI    C3 5971  13.653   3.822  10.338  0.0989  0.1432  0.0228
  374loPI   PO4 5972  13.990   4.028   9.885 -0.2081  0.0779 -0.3041
  374loPI   GL1 5973  13.973   4.228   9.505  0.4109  0.1575 -0.0208
  374loPI   GL2 5974  14.212   4.087   9.415 -0.2482  0.0008 -0.1042
  374loPI   C1A 5975  13.717   4.272   9.141  0.2854 -0.1748  0.0469
  374loPI   C2A 5976  13.764   4.236   8.730  0.1806 -0.0905 -0.2285
  374loPI   C3A 5977  13.750   4.213   8.290  0.1324 -0.4959  0.3358
  374loPI   C4A 5978  13.445   4.309   7.947  0.0808 -0.0117  0.0677
  374loPI   C5A 5979  13.625   4.418   7.522 -0.2135 -0.2931  0.2363
  374loPI   C6A 5980  13.726   4.228   7.079 -0.1468  0.2896  0.4124
  374loPI   C1B 5981  14.213   3.976   8.992 -0.0976 -0.2108 -0.4133
  374loPI   C2B 5982  14.139   3.926   8.582  0.2072 -0.2057  0.2441
  374loPI   C3B 5983  14.187   3.961   8.102  0.2700  0.0422  0.2041
  374loPI   C4B 5984  14.436   4.241   7.804  0.0364 -0.0076 -0.1443
  375loPI    C1 5985   8.197  18.420  10.925  0.1718  0.3869  0.3447
  375loPI    C2 5986   7.811  18.479  10.843  0.1751 -0.2227 -0.1969
  375loPI    C3 5987   7.924  18.389  11.215 -0.1786  0.0932 -0.0048
  375loPI   PO4 5988   8.309  18.432  10.753 -0.4201 -0.1112  0.2891
  375loPI   GL1 5989   8.523  18.263  10.343 -0.2070 -0.0623 -0.5518
  375loPI   GL2 5990   8.636  18.030  10.307  0.2773 -0.0086  0.0835
  375loPI   C1A 5991   8.510  18.466   9.873  0.0852  0.1350 -0.1219
  375loPI   C2A 5992   8.500  18.508   9.406  0.0569 -0.0389  0.2267
  375loPI   C3A 5993   8.429  18.493   8.945  0.0297 -0.2501 -0.0476
  375loPI   C4A 5994   8.594  18.364   8.501 -0.1342  0.0816 -0.2532
  375loPI   C5A 5995   8.653  17.996   8.189 -0.1507 -0.0082  0.2452
  375loPI   C6A 5996   8.371  17.685   8.009 -0.1532  0.1214  0.4840
  375loPI   C1B 5997   8.682  18.035   9.889  0.1775 -0.0345 -0.0603
  375loPI   C2B 5998   8.656  17.856   9.510 -0.0259  0.4256  0.3629
  375loPI   C3B 5999   8.538  18.044   9.166 -0.0636 -0.0340 -0.2272
  375loPI   C4B 6000   8.654  17.949   8.826  0.3564  0.3697 -0.0398
  376loPI    C1 6001  11.910   0.696  10.759  0.2391 -0.0082 -0.0417
  376loPI    C2 6002  11.771   0.321  10.756 -0.1753  0.1405 -0.3451
  376loPI    C3 6003  11.669   0.569  11.052  0.0790  0.0253 -0.1574
  376loPI   PO4 6004  11.760   0.745  10.448  0.1607 -0.2105 -0.0453
  376loPI   GL1 6005  11.796   0.688  10.040  0.0171 -0.0415  0.0254
  376loPI   GL2 6006  11.605   0.974   9.957  0.4393 -0.3062 -0.2358
  376loPI   C1A 6007  11.641   0.602   9.684  0.0859 -0.2806 -0.2062
  376loPI   C2A 6008  11.707   0.517   9.230  0.3551 -0.1951  0.2984
  376loPI   C3A 6009  11.620   0.565   8.861  0.0108  0.3476  0.1202
  376loPI   C4A 6010  11.534   0.584   8.356 -0.1408 -0.0099  0.1082
  376loPI   C5A 6011  11.489   0.746   7.852  0.1546  0.0565 -0.1277
  376loPI   C6A 6012  11.322   1.001   7.459 -0.1267 -0.4176 -0.1962
  376loPI   C1B 6013  11.636   1.082   9.506 -0.1990  0.0733  0.1784
  376loPI   C2B 6014  11.583   1.046   9.146 -0.1044 -0.0117  0.1192
  376loPI   C3B 6015  11.492   1.079   8.683 -0.1009  0.0567  0.0118
  376loPI   C4B 6016  11.522   1.059   8.282  0.1031 -0.0325 -0.2372
  377loPI    C1 6017   5.084  17.964  10.189 -0.2663  0.0661  0.2566
  377loPI    C2 6018   5.133  17.598  10.344  0.0013 -0.0536 -0.0972
  377loPI    C3 6019   4.930  17.876  10.548  0.0492 -0.3071  0.3077
  377loPI   PO4 6020   4.968  17.896   9.951 -0.0377 -0.1002 -0.0367
  377loPI   GL1 6021   5.105  18.050   9.506 -0.4412  0.0556  0.1151
  377loPI   GL2 6022   5.275  18.222   9.684  0.2873 -0.1089  0.0909
  377loPI   C1A 6023   5.231  17.850   9.169 -0.0741 -0.0356 -0.1592
  377loPI   C2A 6024   5.411  17.762   8.787  0.0568 -0.0940 -0.5057
  377loPI   C3A 6025   5.327  17.693   8.314  0.1237  0.0367 -0.1592
  377loPI   C4A 6026   5.350  17.476   7.878 -0.0306 -0.0293  0.2941
  377loPI   C5A 6027   5.209  17.168   7.577 -0.3510  0.2612 -0.1935
  377loPI   C6A 6028   5.166  16.932   7.232  0.0107 -0.0359  0.1429
  377loPI   C1B 6029   5.319  18.375   9.215 -0.1509 -0.2576 -0.0095
  377loPI   C2B 6030   5.375  18.265   8.760  0.0624 -0.1417  0.1256
  377loPI   C3B 6031   5.368  18.309   8.292  0.0667  0.3269 -0.0850
  377loPI   C4B 6032   5.503  17.927   7.929  0.1293  0.1430 -0.0530
  378loPI    C1 6033   7.664   2.415  10.431  0.3322 -0.1190  0.0552
  378loPI    C2 6034   7.525   2.546  10.782  0.0035 -0.1449 -0.0623
  378loPI    C3 6035   7.760   2.223  10.769 -0.0101 -0.1641  0.1304
  378loPI   PO4 6036   7.862   2.648  10.340  0.0316  0.1647 -0.1538
  378loPI   GL1 6037   7.718   3.004   9.992  0.0840  0.1470  0.4481
  378loPI   GL2 6038   7.489   2.722   9.956 -0.0945 -0.0518 -0.0311
  378loPI   C1A 6039   7.864   3.205   9.598 -0.0494 -0.4548  0.4609
  378loPI   C2A 6040   7.851   3.122   9.228 -0.3166 -0.0170 -0.0574
  378loPI   C3A 6041   7.852   3.262   8.777  0.2477 -0.4286  0.2267
  378loPI   C4A 6042   7.781   3.261   8.326  0.0459  0.2052 -0.1112
  378loPI   C5A 6043   8.032   3.388   7.901  0.1579 -0.0239 -0.1458
  378loPI   C6A 6044   8.022   3.380   7.425  0.1759  0.2624  0.0361
  378loPI   C1B 6045   7.509   2.556   9.521  0.0325 -0.1042 -0.2576
  378loPI   C2B 6046   7.515   2.549   9.148  0.2314  0.0602  0.1938
  378loPI   C3B 6047   7.453   2.504   8.657  0.2172  0.1989 -0.0389
  378loPI   C4B 6048   7.397   2.503   8.241  0.2383 -0.1994 -0.1949
  379loPI    C1 6049  15.909  13.782   9.801 -0.1370  0.1798  0.0864
  379loPI    C2 6050  16.148  14.074   9.665  0.1133  0.0286  0.1948
  379loPI    C3 6051  16.207  13.919  10.030 -0.2405  0.0853  0.2802
  379loPI   PO4 6052  15.875  13.669   9.613 -0.0301  0.1637  0.1600
  379loPI   GL1 6053  15.752  13.775   9.172  0.1996 -0.2809 -0.0794
  379loPI   GL2 6054  16.090  13.904   9.178  0.1180  0.3044 -0.0115
  379loPI   C1A 6055  15.387  13.469   9.079 -0.0442  0.5120 -0.1501
  379loPI   C2A 6056  15.289  13.300   8.661  0.3442 -0.1053  0.0097
  379loPI   C3A 6057  15.176  13.277   8.249 -0.1096 -0.3229 -0.2295
  379loPI   C4A 6058  15.468  13.177   7.859 -0.2352 -0.1121  0.3781
  379loPI   C5A 6059  15.693  13.425   7.615 -0.1664 -0.0860  0.1733
  379loPI   C6A 6060  15.812  13.874   7.570  0.1384 -0.1324 -0.4462
  379loPI   C1B 6061  16.062  13.880   8.701 -0.0886 -0.0540  0.0740
  379loPI   C2B 6062  15.903  13.795   8.260  0.4227  0.0165 -0.1379
  379loPI   C3B 6063  15.591  13.767   8.019 -0.0797  0.1607  0.1171
  379loPI   C4B 6064  15.194  13.626   7.847 -0.1087  0.1259 -0.1552
  380loPI    C1 6065  17.536   9.825   9.970 -0.0002 -0.0528 -0.0283
  380loPI    C2 6066  17.180   9.735  10.130  0.1104 -0.0515  0.2232
  380loPI    C3 6067  17.491   9.818  10.367  0.2841 -0.0694  0.0054
  380loPI   PO4 6068  17.519   9.671   9.730  0.2659 -0.1411 -0.1701
  380loPI   GL1 6069  17.735   9.708   9.301  0.0632 -0.0793  0.1991
  380loPI   GL2 6070  17.849   9.976   9.068 -0.1767  0.0000  0.0703
  380loPI   C1A 6071  17.976   9.429   8.950 -0.0251 -0.0526  0.0394
  380loPI   C2A 6072  18.116   9.350   8.465 -0.0291  0.2457 -0.3658
  380loPI   C3A 6073  18.115   9.289   8.105 -0.0326 -0.1052 -0.0584
  380loPI   C4A 6074  17.956   9.324   7.617 -0.2689  0.0566  0.3468
  380loPI   C5A 6075  18.027   9.532   7.332  0.1653 -0.0069  0.0009
  380loPI   C6A 6076  18.124   9.834   7.018  0.0467 -0.1539 -0.0968
  380loPI   C1B 6077  18.107   9.902   8.680 -0.4384 -0.2070  0.2120
  380loPI   C2B 6078  18.304   9.769   8.194  0.0665  0.1545 -0.0643
  380loPI   C3B 6079  18.437   9.592   7.863  0.0815 -0.0597 -0.2620
  380loPI   C4B 6080  18.502   9.617   7.369  0.3102 -0.1323  0.0965
  381loPI    C1 6081   2.127  12.584  10.010  0.1701  0.0086 -0.0772
  381loPI    C2 6082   2.339  12.410  10.302 -0.1469 -0.0294  0.1355
  381loPI    C3 6083   2.005  12.612  10.390 -0.2079  0.0197 -0.1955
  381loPI   PO4 6084   2.171  12.357   9.739 -0.0447  0.0807  0.1425
  381loPI   GL1 6085   2.144  12.213   9.395 -0.0919  0.3935 -0.3732
  381loPI   GL2 6086   2.385  12.127   9.146 -0.2084  0.0292  0.1471
  381loPI   C1A 6087   2.074  12.505   9.051 -0.2631  0.0922 -0.1660
  381loPI   C2A 6088   2.186  12.481   8.646  0.2587  0.1329 -0.2393
  381loPI   C3A 6089   2.297  12.521   8.181 -0.2103  0.2034 -0.0929
  381loPI   C4A 6090   2.022  12.460   7.897  0.0368 -0.4078  0.0241
  381loPI   C5A 6091   1.856  12.227   7.587  0.1930 -0.0249  0.0304
  381loPI   C6A 6092   1.844  11.909   7.388  0.1471 -0.3821  0.2675
  381loPI   C1B 6093   2.320  11.988   8.715  0.2905  0.1792 -0.2434
  381loPI   C2B 6094   2.275  12.015   8.281 -0.2152 -0.2206  0.0387
  381loPI   C3B 6095   2.409  12.055   7.887 -0.3829 -0.0929  0.0478
  381loPI   C4B 6096   2.305  11.976   7.509  0.0041  0.2173  0.1933
  382loPI    C1 6097   4.098  15.084  10.572 -0.1679  0.0580 -0.0254
  382loPI    C2 6098   3.752  15.283  10.539 -0.1422  0.1352  0.1571
  382loPI    C3 6099   3.899  15.196  10.901  0.0447  0.1290  0.0813
  382loPI   PO4 6100   4.212  15.200  10.327  0.3607  0.0423  0.0671
  382loPI   GL1 6101   4.212  15.067   9.808 -0.0198 -0.1630 -0.0078
  382loPI   GL2 6102   4.149  15.275   9.592 -0.1579 -0.0387  0.0136
  382loPI   C1A 6103   4.169  14.788   9.438  0.1967 -0.2976 -0.0583
  382loPI   C2A 6104   4.252  14.703   8.982 -0.0023  0.1588  0.2480
  382loPI   C3A 6105   4.237  14.744   8.599 -0.0919 -0.2696 -0.0753
  382loPI   C4A 6106   4.125  14.800   8.134  0.1180 -0.0319  0.1777
  382loPI   C5A 6107   4.421  15.033   7.821 -0.3073  0.1225 -0.3739
  382loPI   C6A 6108   4.639  15.327   7.588 -0.0596  0.1059  0.2724
  382loPI   C1B 6109   4.060  15.404   9.290  0.2273 -0.1807 -0.0252
  382loPI   C2B 6110   4.083  15.346   8.868  0.1058 -0.4268  0.1897
  382loPI   C3B 6111   4.191  15.271   8.479  0.0051  0.0873 -0.2256
  382loPI   C4B 6112   4.332  15.425   8.130  0.1371  0.0979  0.1448
  383loPI    C1 6113   2.315   9.258   9.876  0.1759  0.1098  0.1454
  383loPI    C2 6114   2.404   9.546  10.139  0.1409 -0.0477  0.3321
  383loPI    C3 6115   2.033   9.399  10.123  0.1453 -0.0453  0.2000
  383loPI   PO4 6116   2.344   9.325   9.683 -0.0149  0.0688  0.0926
  383loPI   GL1 6117   2.094   9.571   9.372 -0.0101  0.0813  0.0137
  383loPI   GL2 6118   1.860   9.780   9.188  0.2165 -0.0376  0.2688
  383loPI   C1A 6119   2.271   9.616   8.949  0.0306 -0.0070  0.0254
  383loPI   C2A 6120   2.210   9.609   8.479 -0.1319  0.1035 -0.1470
  383loPI   C3A 6121   2.199   9.652   8.061  0.1881  0.0650  0.2471
  383loPI   C4A 6122   2.522   9.682   7.821  0.3320 -0.0558  0.1405
  383loPI   C5A 6123   2.689   9.353   7.527  0.2049  0.1319 -0.1126
  383loPI   C6A 6124   2.585   8.922   7.369  0.0666 -0.0014 -0.3470
  383loPI   C1B 6125   1.773   9.772   8.781  0.2133  0.0680 -0.1853
  383loPI   C2B 6126   1.672   9.709   8.299  0.2322 -0.1171 -0.2137
  383loPI   C3B 6127   1.664   9.737   7.822  0.0752 -0.0789 -0.4375
  383loPI   C4B 6128   1.826   9.385   7.700  0.2447 -0.2979 -0.0564
  384loPI    C1 6129   6.544   5.801  10.429  0.1297  0.3521 -0.2386
  384loPI    C2 6130   6.735   5.655  10.749 -0.0156  0.0164 -0.3003
  384loPI    C3 6131   6.943   5.769  10.427  0.1090  0.0569 -0.2063
  384loPI   PO4 6132   6.298   5.579  10.476  0.1192  0.2077  0.1176
  384loPI   GL1 6133   6.134   5.352  10.123 -0.3999  0.0414  0.1418
  384loPI   GL2 6134   6.055   5.533   9.961 -0.0399  0.0640  0.3847
  384loPI   C1A 6135   6.317   5.236   9.665  0.0728 -0.3902  0.0072
  384loPI   C2A 6136   6.459   5.317   9.211 -0.2016  0.0241 -0.2802
  384loPI   C3A 6137   6.408   5.262   8.673  0.0684 -0.2166 -0.2947
  384loPI   C4A 6138   6.583   5.168   8.167 -0.2408 -0.0657  0.1300
  384loPI   C5A 6139   6.894   5.058   7.870  0.1213  0.0796  0.3307
  384loPI   C6A 6140   7.160   4.859   7.629  0.0329 -0.3670 -0.2365
  384loPI   C1B 6141   5.999   5.510   9.468 -0.2125 -0.2566  0.1137
  384loPI   C2B 6142   5.981   5.424   9.070  0.1596  0.2407 -0.1471
  384loPI   C3B 6143   5.984   5.457   8.623  0.1941  0.0054  0.0179
  384loPI   C4B 6144   6.074   5.361   8.209 -0.0337 -0.1587 -0.0429
  385loPI    C1 6145   0.149   5.513   9.907  0.0235  0.1529 -0.0419
  385loPI    C2 6146  -0.051   5.375  10.225  0.3242 -0.0979  0.0427
  385loPI    C3 6147   0.340   5.457  10.254  0.3708 -0.1911 -0.2802
  385loPI   PO4 6148   0.008   5.656   9.801 -0.2273 -0.1451 -0.0220
  385loPI   GL1 6149  -0.114   5.695   9.417 -0.2975  0.0351  0.0826
  385loPI   GL2 6150  -0.245   5.989   9.315 -0.0048 -0.2333  0.0716
  385loPI   C1A 6151  -0.194   5.500   8.931 -0.3463 -0.0352 -0.3003
  385loPI   C2A 6152  -0.087   5.654   8.420 -0.0484 -0.5452 -0.1626
  385loPI   C3A 6153   0.049   5.663   8.003  0.4027 -0.3180 -0.1340
  385loPI   C4A 6154  -0.084   5.744   7.580  0.0297 -0.4246 -0.0319
  385loPI   C5A 6155  -0.111   6.146   7.389 -0.3403  0.3253 -0.1693
  385loPI   C6A 6156  -0.090   6.499   7.197 -0.1133  0.2306  0.2636
  385loPI   C1B 6157  -0.215   5.946   8.782 -0.2235 -0.1195 -0.0862
  385loPI   C2B 6158  -0.170   6.191   8.408  0.2942  0.1325 -0.0057
  385loPI   C3B 6159  -0.044   6.125   7.949 -0.1049 -0.5556 -0.0267
  385loPI   C4B 6160  -0.452   6.340   7.653  0.0565  0.0562  0.1904
  386loPI    C1 6161   4.639  13.205  10.505  0.1415 -0.0057 -0.2506
  386loPI    C2 6162   4.501  12.918  10.747 -0.0807  0.3823  0.0965
  386loPI    C3 6163   4.891  13.009  10.746  0.0690 -0.2003 -0.3313
  386loPI   PO4 6164   4.581  13.126  10.271 -0.0950 -0.0931  0.0021
  386loPI   GL1 6165   4.797  13.158   9.899  0.1099  0.3445 -0.2109
  386loPI   GL2 6166   5.114  12.972   9.847  0.2740 -0.2138  0.1660
  386loPI   C1A 6167   4.531  13.144   9.522  0.3950 -0.2553  0.2088
  386loPI   C2A 6168   4.417  13.108   9.018  0.2565  0.0848 -0.0950
  386loPI   C3A 6169   4.417  13.161   8.564 -0.1089 -0.1515  0.2628
  386loPI   C4A 6170   4.595  13.220   8.135  0.0108  0.1745  0.5033
  386loPI   C5A 6171   4.790  13.363   7.748  0.2305 -0.0784 -0.0420
  386loPI   C6A 6172   5.032  13.663   7.467  0.2368 -0.2161 -0.0005
  386loPI   C1B 6173   4.997  13.019   9.409 -0.0039 -0.1236 -0.0207
  386loPI   C2B 6174   4.927  13.062   8.963  0.1092  0.0518  0.0379
  386loPI   C3B 6175   4.957  13.053   8.496 -0.1782  0.0878 -0.1347
  386loPI   C4B 6176   4.993  12.949   7.993  0.2468  0.1543 -0.0005
  387loPI    C1 6177   5.414  13.640  10.427  0.0506 -0.2733  0.0179
  387loPI    C2 6178   5.398  13.641  10.827 -0.1944 -0.1775  0.0090
  387loPI    C3 6179   5.092  13.494  10.614 -0.1121 -0.1287 -0.1448
  387loPI   PO4 6180   5.645  13.482  10.411  0.1812 -0.1343  0.0206
  387loPI   GL1 6181   5.883  13.421  10.013  0.1948 -0.2240  0.3139
  387loPI   GL2 6182   5.975  13.584   9.773 -0.2011  0.1687 -0.0500
  387loPI   C1A 6183   6.001  13.091   9.635  0.2993  0.0027  0.0263
  387loPI   C2A 6184   5.948  13.095   9.187  0.0581 -0.0830 -0.1122
  387loPI   C3A 6185   5.928  13.161   8.703  0.2042  0.1791  0.0905
  387loPI   C4A 6186   5.868  13.096   8.289  0.0530 -0.0918 -0.0367
  387loPI   C5A 6187   5.899  13.267   7.858 -0.2561 -0.1262  0.1265
  387loPI   C6A 6188   5.978  13.800   7.696 -0.1636 -0.0513  0.0158
  387loPI   C1B 6189   5.814  13.606   9.449  0.3265  0.0151  0.0161
  387loPI   C2B 6190   5.804  13.617   9.040  0.1375  0.0146 -0.0817
  387loPI   C3B 6191   5.721  13.683   8.602 -0.1899 -0.0738  0.0991
  387loPI   C4B 6192   5.676  13.748   8.089 -0.0072 -0.4283 -0.1867
  388loPI    C1 6193   5.352   4.433  10.514  0.0531 -0.1891 -0.0925
  388loPI    C2 6194   5.128   4.228  10.773 -0.0472 -0.1944 -0.1827
  388loPI    C3 6195   5.256   4.596  10.866 -0.1679 -0.1558 -0.1666
  388loPI   PO4 6196   5.229   4.273  10.279 -0.1316 -0.5370  0.0549
  388loPI   GL1 6197   5.233   4.183   9.850 -0.0793  0.1560 -0.1243
  388loPI   GL2 6198   4.957   3.963   9.786 -0.2986  0.1871 -0.0991
  388loPI   C1A 6199   5.279   4.206   9.406 -0.0367  0.0514  0.3604
  388loPI   C2A 6200   5.333   4.245   8.989  0.1335 -0.3504  0.0239
  388loPI   C3A 6201   5.382   4.164   8.566 -0.0035  0.4350  0.1596
  388loPI   C4A 6202   5.448   4.168   8.105 -0.2489 -0.0423 -0.0293
  388loPI   C5A 6203   5.775   3.912   7.917  0.3217  0.2260  0.2703
  388loPI   C6A 6204   6.181   3.906   7.980  0.1806 -0.0348  0.0117
  388loPI   C1B 6205   4.962   3.876   9.342  0.0648  0.2839  0.1241
  388loPI   C2B 6206   4.964   3.891   8.935  0.3690  0.0162 -0.2604
  388loPI   C3B 6207   4.880   3.864   8.538  0.0917  0.2590  0.0785
  388loPI   C4B 6208   5.078   3.863   8.201  0.0783  0.0244  0.0838
  389loPI    C1 6209  11.388  11.915  10.264 -0.1922  0.3185  0.3708
  389loPI    C2 6210  11.733  11.998  10.449  0.2272 -0.0930 -0.1911
  389loPI    C3 6211  11.637  12.188  10.110 -0.0718 -0.0325 -0.0759
  389loPI   PO4 6212  11.402  11.619  10.263  0.0047 -0.1007  0.4119
  389loPI   GL1 6213  11.614  11.368   9.967  0.0785 -0.0234 -0.2100
  389loPI   GL2 6214  11.690  10.978   9.968  0.4963  0.1553 -0.3646
  389loPI   C1A 6215  11.366  11.405   9.640 -0.0714  0.1906  0.2062
  389loPI   C2A 6216  11.392  11.383   9.231 -0.0849  0.1538 -0.0064
  389loPI   C3A 6217  11.367  11.313   8.792 -0.0269  0.1062 -0.1631
  389loPI   C4A 6218  11.454  11.391   8.381 -0.2015  0.4071  0.0724
  389loPI   C5A 6219  11.270  11.484   7.975  0.0057  0.0830 -0.0814
  389loPI   C6A 6220  11.208  11.586   7.568  0.1918 -0.2065  0.1097
  389loPI   C1B 6221  11.508  10.882   9.509  0.0524 -0.2848  0.1332
  389loPI   C2B 6222  11.482  10.847   9.044 -0.1457  0.1744  0.2606
  389loPI   C3B 6223  11.447  10.778   8.649  0.1099 -0.0529 -0.2463
  389loPI   C4B 6224  11.468  10.914   8.204  0.1868  0.3417  0.1938
  390loPI    C1 6225  17.264   7.370  10.137  0.1118 -0.0715  0.0674
  390loPI    C2 6226  17.418   7.725  10.239 -0.1970  0.0138  0.2498
  390loPI    C3 6227  17.527   7.395  10.438 -0.1635  0.0563  0.3024
  390loPI   PO4 6228  17.256   7.394   9.877 -0.2740  0.1781 -0.1790
  390loPI   GL1 6229  17.528   7.307   9.563  0.2643  0.1184 -0.0899
  390loPI   GL2 6230  17.561   7.626   9.516  0.2481 -0.3192  0.0427
  390loPI   C1A 6231  17.279   7.447   9.108  0.0122 -0.2060  0.0411
  390loPI   C2A 6232  17.330   7.330   8.677 -0.1465  0.1058 -0.0908
  390loPI   C3A 6233  17.635   7.326   8.297  0.1310 -0.0805 -0.1491
  390loPI   C4A 6234  17.634   7.192   7.852  0.0222 -0.2341  0.3795
  390loPI   C5A 6235  17.850   6.933   7.389  0.4584  0.2128 -0.0729
  390loPI   C6A 6236  18.021   6.969   7.002  0.1054  0.1409 -0.1516
  390loPI   C1B 6237  17.704   7.823   9.146  0.0772 -0.2907 -0.1686
  390loPI   C2B 6238  17.574   8.008   8.806  0.0055 -0.0781 -0.3175
  390loPI   C3B 6239  17.597   7.914   8.311  0.0856  0.3023  0.0201
  390loPI   C4B 6240  17.710   7.733   7.789 -0.3720  0.4035  0.0882
  391loPI    C1 6241   3.595   9.030   9.792  0.0844  0.0174 -0.0486
  391loPI    C2 6242   3.235   9.072   9.622  0.0353 -0.2365 -0.0109
  391loPI    C3 6243   3.272   9.093  10.020  0.0912 -0.0314 -0.0256
  391loPI   PO4 6244   3.767   9.172   9.655 -0.1093  0.3232 -0.4141
  391loPI   GL1 6245   3.816   9.045   9.209  0.1609  0.1461  0.0998
  391loPI   GL2 6246   3.537   9.250   9.168 -0.3378  0.1548  0.2889
  391loPI   C1A 6247   3.869   9.050   8.752 -0.2381 -0.0097  0.1336
  391loPI   C2A 6248   4.035   8.980   8.410  0.0985  0.2880 -0.0696
  391loPI   C3A 6249   4.101   9.024   7.930 -0.0208 -0.1763 -0.1338
  391loPI   C4A 6250   3.989   8.771   7.634 -0.0458 -0.1937 -0.2654
  391loPI   C5A 6251   3.912   8.361   7.335 -0.0535 -0.0933 -0.2521
  391loPI   C6A 6252   3.547   8.094   7.331 -0.1270 -0.2430  0.0064
  391loPI   C1B 6253   3.349   9.276   8.795 -0.0916 -0.0470  0.0270
  391loPI   C2B 6254   3.377   9.205   8.369 -0.2750 -0.1068  0.3964
  391loPI   C3B 6255   3.638   9.207   8.037 -0.2791  0.0969  0.2085
  391loPI   C4B 6256   3.590   9.010   7.637 -0.0416  0.1358 -0.4288
  392loPI    C1 6257  17.696  17.054   9.697  0.2499 -0.1763 -0.0800
  392loPI    C2 6258  18.006  16.841   9.833 -0.0351 -0.4667  0.1291
  392loPI    C3 6259  17.644  16.795   9.998 -0.1073  0.1815  0.1763
  392loPI   PO4 6260  17.647  17.074   9.464  0.1881  0.1137  0.5546
  392loPI   GL1 6261  17.959  16.891   9.268  0.1175 -0.1331 -0.3506
  392loPI   GL2 6262  17.943  16.539   9.089 -0.1822 -0.0544 -0.2122
  392loPI   C1A 6263  17.996  17.027   8.931 -0.2628  0.0830  0.0502
  392loPI   C2A 6264  18.207  17.311   8.712  0.1636  0.1454 -0.1066
  392loPI   C3A 6265  18.404  17.429   8.340  0.3004 -0.3973 -0.0048
  392loPI   C4A 6266  18.364  17.577   7.969  0.3439 -0.0271 -0.0959
  392loPI   C5A 6267  18.247  17.482   7.576 -0.0671  0.1685  0.3187
  392loPI   C6A 6268  17.914  17.121   7.444 -0.0879 -0.1917 -0.0307
  392loPI   C1B 6269  17.892  16.600   8.662  0.2021 -0.3064  0.0040
  392loPI   C2B 6270  17.938  16.580   8.191 -0.1015 -0.1075 -0.2094
  392loPI   C3B 6271  17.929  16.665   7.751  0.1746 -0.1805  0.4050
  392loPI   C4B 6272  17.893  16.680   7.251 -0.0882  0.3676  0.1264
  393loPI    C1 6273   3.822   2.922  10.330  0.1612  0.0477 -0.2841
  393loPI    C2 6274   3.948   2.663  10.608  0.0553  0.1121 -0.1752
  393loPI    C3 6275   3.872   3.043  10.708 -0.0765  0.1119 -0.2712
  393loPI   PO4 6276   3.716   2.754  10.202  0.1957  0.1243  0.2458
  393loPI   GL1 6277   3.659   2.499   9.794  0.1319 -0.3413  0.3513
  393loPI   GL2 6278   3.962   2.359   9.747 -0.0236  0.0780  0.0257
  393loPI   C1A 6279   3.678   2.749   9.421 -0.0057  0.1205  0.0036
  393loPI   C2A 6280   3.649   2.771   8.950  0.2594  0.2264 -0.0365
  393loPI   C3A 6281   3.746   2.817   8.395  0.2503  0.2262  0.0332
  393loPI   C4A 6282   3.817   2.741   7.979  0.3387 -0.2704 -0.1640
  393loPI   C5A 6283   4.128   2.733   7.689 -0.2794  0.0784  0.2310
  393loPI   C6A 6284   4.512   2.760   7.513 -0.2031  0.0966  0.0719
  393loPI   C1B 6285   3.746   2.310   9.241  0.5326  0.0751 -0.0976
  393loPI   C2B 6286   3.751   2.273   8.791 -0.1957 -0.0008  0.1211
  393loPI   C3B 6287   3.771   2.292   8.433  0.1022  0.2604 -0.3761
  393loPI   C4B 6288   3.839   2.243   8.077  0.2704  0.2981 -0.2100
  394loPI    C1 6289   4.822   5.438  10.316  0.3889  0.1149  0.5664
  394loPI    C2 6290   4.573   5.609  10.578  0.0843  0.1665  0.2513
  394loPI    C3 6291   4.522   5.226  10.476  0.2319  0.1327  0.3017
  394loPI   PO4 6292   4.880   5.689  10.049  0.2850 -0.0879 -0.1802
  394loPI   GL1 6293   4.941   6.021   9.784 -0.1864 -0.2380  0.0251
  394loPI   GL2 6294   4.814   6.293   9.638  0.0950  0.0368  0.1393
  394loPI   C1A 6295   4.856   5.789   9.404  0.0519 -0.0959  0.1286
  394loPI   C2A 6296   4.980   5.816   8.944  0.1535 -0.2021 -0.0263
  394loPI   C3A 6297   5.088   5.891   8.532 -0.0645 -0.0520  0.0403
  394loPI   C4A 6298   4.964   5.900   8.134  0.1711 -0.1452 -0.3070
  394loPI   C5A 6299   4.703   5.715   7.844 -0.0075  0.1785 -0.1058
  394loPI   C6A 6300   4.369   5.678   7.488  0.0894  0.1747  0.1401
  394loPI   C1B 6301   5.114   6.550   9.476  0.0266  0.1283 -0.0294
  394loPI   C2B 6302   5.209   6.639   9.122 -0.1925 -0.0617  0.0839
  394loPI   C3B 6303   5.273   6.570   8.686  0.2243  0.1601 -0.0054
  394loPI   C4B 6304   5.425   6.695   8.356  0.4118 -0.0736  0.1521
  395loPI    C1 6305   5.843   3.703  10.612 -0.1415 -0.3086 -0.0640
  395loPI    C2 6306   5.604   4.021  10.654  0.2560 -0.0103 -0.0120
  395loPI    C3 6307   5.461   3.654  10.721 -0.1447  0.1722  0.1655
  395loPI   PO4 6308   5.977   3.740  10.383  0.2931 -0.4718 -0.0490
  395loPI   GL1 6309   5.927   3.561   9.858  0.2617  0.2872  0.0059
  395loPI   GL2 6310   5.696   3.808   9.978  0.0245  0.0873  0.1205
  395loPI   C1A 6311   5.883   3.514   9.443  0.0736 -0.0126 -0.0788
  395loPI   C2A 6312   5.839   3.591   9.069 -0.1577  0.0164 -0.1087
  395loPI   C3A 6313   5.892   3.535   8.694  0.2008  0.0477 -0.1766
  395loPI   C4A 6314   5.964   3.509   8.232 -0.0839  0.1364 -0.0266
  395loPI   C5A 6315   6.034   3.501   7.823 -0.1030 -0.1091  0.5671
  395loPI   C6A 6316   6.069   3.735   7.510  0.0780 -0.0677 -0.0136
  395loPI   C1B 6317   5.647   4.042   9.676 -0.2416 -0.0548 -0.0004
  395loPI   C2B 6318   5.749   4.096   9.252  0.1010  0.0762 -0.1077
  395loPI   C3B 6319   5.732   4.043   8.836  0.0153  0.1947 -0.1536
  395loPI   C4B 6320   5.847   4.020   8.402 -0.0851  0.0606  0.1617
  396loPI    C1 6321  16.722   0.354   9.552  0.0564 -0.0060  0.1269
  396loPI    C2 6322  16.487   0.599   9.764  0.0594  0.2028 -0.1061
  396loPI    C3 6323  16.885   0.635   9.785  0.0685  0.0001  0.1111
  396loPI   PO4 6324  16.645   0.386   9.320 -0.0265  0.1236  0.1407
  396loPI   GL1 6325  16.488   0.321   8.889 -0.0290  0.1352  0.2474
  396loPI   GL2 6326  16.230   0.451   9.080  0.2691 -0.0232  0.4843
  396loPI   C1A 6327  16.348   0.318   8.477  0.3192 -0.3491 -0.2378
  396loPI   C2A 6328  16.256   0.431   8.129 -0.3195  0.1362 -0.1097
  396loPI   C3A 6329  16.153   0.526   7.664 -0.1929  0.2196 -0.0274
  396loPI   C4A 6330  16.320   0.798   7.257  0.1655  0.0833  0.0760
  396loPI   C5A 6331  16.197   1.108   6.920 -0.2356  0.1460  0.1287
  396loPI   C6A 6332  16.290   1.509   6.881 -0.3223  0.1669  0.0357
  396loPI   C1B 6333  15.918   0.608   8.744  0.2070  0.1737 -0.2727
  396loPI   C2B 6334  15.867   0.646   8.307 -0.0390 -0.1857  0.3181
  396loPI   C3B 6335  15.766   0.836   7.904  0.0812  0.2497  0.1872
  396loPI   C4B 6336  15.466   1.101   7.605 -0.2669  0.0356  0.0677
  397loPI    C1 6337  16.784   3.540   9.621  0.0390  0.1740  0.2688
  397loPI    C2 6338  16.590   3.887   9.669 -0.0856  0.1159  0.1906
  397loPI    C3 6339  16.509   3.578   9.910  0.0080  0.1335  0.2449
  397loPI   PO4 6340  16.780   3.557   9.311 -0.0919  0.0419 -0.0601
  397loPI   GL1 6341  16.696   3.684   8.929 -0.1314  0.1334  0.0024
  397loPI   GL2 6342  16.497   3.468   8.941 -0.0807  0.1311  0.0053
  397loPI   C1A 6343  16.732   3.952   8.559 -0.4210 -0.1032 -0.2394
  397loPI   C2A 6344  16.551   3.983   8.151 -0.2767  0.0522 -0.0747
  397loPI   C3A 6345  16.301   3.840   7.908 -0.0723  0.2400  0.0776
  397loPI   C4A 6346  15.913   3.808   7.653 -0.0928 -0.4186 -0.0939
  397loPI   C5A 6347  15.698   3.693   7.267 -0.1373  0.1641  0.0283
  397loPI   C6A 6348  15.444   3.626   6.910  0.1794  0.2939  0.2905
  397loPI   C1B 6349  16.514   3.513   8.500  0.2321 -0.0175 -0.1344
  397loPI   C2B 6350  16.720   3.454   8.049  0.1318  0.0569  0.1620
  397loPI   C3B 6351  16.622   3.578   7.520 -0.0266  0.2084  0.0187
  397loPI   C4B 6352  16.211   3.680   7.222 -0.2065 -0.4715  0.2095
  398loPI    C1 6353   1.785  17.259  10.335 -0.1601  0.1641  0.1745
  398loPI    C2 6354   1.389  17.296  10.383 -0.1599  0.2119  0.1405
  398loPI    C3 6355   1.597  17.050  10.621 -0.2685 -0.1146 -0.0951
  398loPI   PO4 6356   1.856  17.337  10.000 -0.0262 -0.0588 -0.1772
  398loPI   GL1 6357   1.810  17.388   9.533  0.0181  0.2759  0.3229
  398loPI   GL2 6358   1.783  17.641   9.602  0.4911  0.0625  0.1299
  398loPI   C1A 6359   1.737  17.232   9.046  0.2821 -0.1515  0.0621
  398loPI   C2A 6360   1.811  17.161   8.600 -0.1228  0.1561 -0.1709
  398loPI   C3A 6361   1.845  17.236   8.242  0.2641  0.0198  0.1391
  398loPI   C4A 6362   1.801  16.824   7.883  0.0586 -0.3987 -0.1075
  398loPI   C5A 6363   1.740  16.603   7.420 -0.2694 -0.2781 -0.0216
  398loPI   C6A 6364   1.445  16.298   7.252 -0.1641 -0.0107  0.1015
  398loPI   C1B 6365   1.575  17.677   9.214  0.0907  0.0333  0.0309
  398loPI   C2B 6366   1.599  17.704   8.795  0.0042 -0.2666  0.0406
  398loPI   C3B 6367   1.636  17.699   8.326 -0.0603  0.4589 -0.1103
  398loPI   C4B 6368   1.776  17.655   7.950  0.0084  0.1015  0.0537
  399loPI    C1 6369   7.702  14.407  10.587  0.1704  0.1644  0.0697
  399loPI    C2 6370   7.711  14.113  10.859  0.0530  0.2109  0.1244
  399loPI    C3 6371   7.612  14.485  10.969  0.0125  0.2316  0.0194
  399loPI   PO4 6372   7.583  14.276  10.399 -0.0373  0.2203  0.3412
  399loPI   GL1 6373   7.771  14.300  10.076 -0.1341  0.2228  0.3123
  399loPI   GL2 6374   7.969  14.559  10.070  0.1175 -0.0093  0.0282
  399loPI   C1A 6375   7.740  13.944   9.782 -0.1877  0.1856  0.0970
  399loPI   C2A 6376   7.699  14.022   9.326 -0.2462  0.0434  0.0731
  399loPI   C3A 6377   7.650  14.101   8.916 -0.0344 -0.0031  0.1889
  399loPI   C4A 6378   7.501  14.016   8.425  0.1013 -0.1111  0.1110
  399loPI   C5A 6379   7.659  14.023   8.001 -0.1177  0.1942  0.1876
  399loPI   C6A 6380   7.884  14.277   7.753 -0.3340  0.1183  0.1522
  399loPI   C1B 6381   8.202  14.473   9.687 -0.2738  0.4136  0.2871
  399loPI   C2B 6382   8.017  14.360   9.207  0.0578  0.0915 -0.1221
  399loPI   C3B 6383   8.006  14.449   8.752  0.3452 -0.0165 -0.3240
  399loPI   C4B 6384   7.907  14.412   8.292  0.0801  0.0682  0.0772
  400loPI    C1 6385   7.459  15.500  10.662  0.2419  0.0709  0.0686
  400loPI    C2 6386   7.674  15.593  10.986  0.3346  0.2933 -0.0544
  400loPI    C3 6387   7.352  15.810  10.890 -0.1071 -0.1935  0.2729
  400loPI   PO4 6388   7.612  15.424  10.418 -0.0118  0.1677 -0.2773
  400loPI   GL1 6389   7.706  15.405   9.944  0.0961  0.0587  0.3362
  400loPI   GL2 6390   7.687  15.765   9.993 -0.0044 -0.0514 -0.0821
  400loPI   C1A 6391   7.855  15.401   9.479  0.1773  0.1079 -0.0554
  400loPI   C2A 6392   7.870  15.395   9.066 -0.2234 -0.1723  0.2128
  400loPI   C3A 6393   7.782  15.418   8.606 -0.0426 -0.0090 -0.0638
  400loPI   C4A 6394   7.703  15.363   8.059  0.3443 -0.1997  0.0706
  400loPI   C5A 6395   7.599  15.113   7.742 -0.0669  0.0758  0.0676
  400loPI   C6A 6396   7.739  14.677   7.457  0.3063  0.2715 -0.1284
  400loPI   C1B 6397   7.765  15.891   9.590  0.5269  0.3727  0.1772
  400loPI   C2B 6398   7.691  15.909   9.158 -0.0198  0.1231 -0.0580
  400loPI   C3B 6399   7.746  15.915   8.724  0.1042 -0.0732  0.1722
  400loPI   C4B 6400   7.708  16.021   8.357  0.1969 -0.1100  0.1268
  401loPI    C1 6401  11.249   9.203  10.999  0.1629  0.1401  0.0803
  401loPI    C2 6402  10.909   9.178  11.208  0.1636  0.0233  0.0682
  401loPI    C3 6403  11.196   8.905  11.261  0.0917 -0.1103 -0.2135
  401loPI   PO4 6404  11.144   9.415  10.776  0.2007 -0.2591  0.2460
  401loPI   GL1 6405  10.851   9.712  10.513 -0.1096 -0.1601  0.1622
  401loPI   GL2 6406  11.085   9.811  10.441  0.0621 -0.1918  0.0343
  401loPI   C1A 6407  10.776   9.690   9.996 -0.0241 -0.0914  0.5007
  401loPI   C2A 6408  10.798   9.729   9.551 -0.3574  0.0085 -0.2017
  401loPI   C3A 6409  10.813   9.670   9.124 -0.2923 -0.1739  0.0617
  401loPI   C4A 6410  10.826   9.499   8.795  0.0820  0.0159 -0.1683
  401loPI   C5A 6411  10.782   9.314   8.501 -0.4154  0.0697  0.1540
  401loPI   C6A 6412  10.676   9.365   8.000 -0.2684  0.0864  0.1638
  401loPI   C1B 6413  11.280   9.927   9.970  0.1739 -0.0499 -0.0877
  401loPI   C2B 6414  11.197   9.982   9.486 -0.0890  0.0184  0.0062
  401loPI   C3B 6415  11.224   9.937   9.039  0.1012 -0.0543  0.1881
  401loPI   C4B 6416  11.187   9.865   8.614  0.1360  0.1476 -0.0450
  402loPI    C1 6417  11.889   8.341  11.344 -0.2416 -0.1238  0.0891
  402loPI    C2 6418  11.898   8.737  11.290  0.1671 -0.1280  0.0950
  402loPI    C3 6419  12.166   8.562  11.529  0.0482 -0.4205  0.0189
  402loPI   PO4 6420  11.768   8.308  11.034 -0.3134  0.0403 -0.1417
  402loPI   GL1 6421  11.886   8.394  10.552 -0.1329 -0.1112  0.1624
  402loPI   GL2 6422  11.775   8.697  10.624  0.1741 -0.1439 -0.0700
  402loPI   C1A 6423  12.043   8.378  10.126  0.1377 -0.0007  0.1672
  402loPI   C2A 6424  12.159   8.237   9.779  0.0585  0.1462 -0.0143
  402loPI   C3A 6425  12.042   8.276   9.385  0.0560 -0.0956 -0.3334
  402loPI   C4A 6426  11.996   8.189   8.834  0.2592  0.0642 -0.0122
  402loPI   C5A 6427  12.133   8.173   8.454  0.0876 -0.2797 -0.1703
  402loPI   C6A 6428  12.480   8.473   8.235  0.1314  0.0026  0.1881
  402loPI   C1B 6429  11.604   8.764  10.146 -0.3968  0.2015 -0.2015
  402loPI   C2B 6430  11.541   8.970   9.731  0.1075  0.1813 -0.1404
  402loPI   C3B 6431  11.550   9.015   9.316  0.0932  0.1837 -0.1622
  402loPI   C4B 6432  11.417   8.867   8.943 -0.1038 -0.2313  0.0522
  403loPI    C1 6433  11.147  11.349  10.757  0.0573 -0.2654  0.2719
  403loPI    C2 6434  11.016  11.484  11.110  0.1020  0.1474  0.1353
  403loPI    C3 6435  11.408  11.463  11.038  0.0928  0.0838  0.1027
  403loPI   PO4 6436  11.031  11.507  10.576  0.1900 -0.1872 -0.0433
  403loPI   GL1 6437  10.959  11.472  10.177  0.1390 -0.3255  0.2213
  403loPI   GL2 6438  10.985  11.722   9.930  0.0849  0.3199 -0.0194
  403loPI   C1A 6439  10.608  11.251   9.913 -0.2087  0.1898  0.0093
  403loPI   C2A 6440  10.575  11.217   9.400  0.0494  0.1245 -0.0764
  403loPI   C3A 6441  10.591  11.151   8.926  0.2657 -0.1476 -0.0061
  403loPI   C4A 6442  10.486  11.104   8.464  0.1716  0.0264 -0.0115
  403loPI   C5A 6443  10.487  11.000   8.069 -0.1734  0.0200  0.0628
  403loPI   C6A 6444  10.308  11.058   7.653  0.1871  0.3051 -0.2123
  403loPI   C1B 6445  10.960  11.633   9.531  0.1394 -0.0683 -0.1572
  403loPI   C2B 6446  10.907  11.537   9.096 -0.0850  0.3304 -0.1073
  403loPI   C3B 6447  10.951  11.495   8.658  0.0399 -0.0250 -0.0660
  403loPI   C4B 6448  10.737  11.591   8.321  0.0504 -0.0154  0.1384
  404loPI    C1 6449  16.129   5.992   9.738  0.1214 -0.0403 -0.2663
  404loPI    C2 6450  15.992   6.343   9.604  0.2474  0.0668 -0.1193
  404loPI    C3 6451  15.876   6.207   9.962  0.2719  0.0026 -0.1356
  404loPI   PO4 6452  16.061   5.865   9.631 -0.0144 -0.0704 -0.0564
  404loPI   GL1 6453  15.747   5.978   9.349  0.1292 -0.2096 -0.2264
  404loPI   GL2 6454  15.587   5.712   9.061  0.0863 -0.0420 -0.1121
  404loPI   C1A 6455  15.983   6.130   8.981  0.0618 -0.4241  0.0093
  404loPI   C2A 6456  16.009   6.114   8.516  0.5008 -0.0337 -0.1538
  404loPI   C3A 6457  16.013   6.184   8.092  0.1106  0.1041  0.0348
  404loPI   C4A 6458  16.333   6.121   7.782  0.1736  0.0932 -0.3968
  404loPI   C5A 6459  16.690   6.042   7.487 -0.1701 -0.0874  0.0839
  404loPI   C6A 6460  17.042   5.776   7.370 -0.1990 -0.0692  0.0609
  404loPI   C1B 6461  15.665   5.759   8.662 -0.3156 -0.1519  0.0007
  404loPI   C2B 6462  15.826   5.714   8.307  0.1317  0.1289  0.1052
  404loPI   C3B 6463  15.819   5.777   7.818  0.1439 -0.0944 -0.0785
  404loPI   C4B 6464  16.235   5.745   7.447 -0.0931  0.0873  0.1018
  405loPI    C1 6465   1.175  10.298   9.906 -0.0862 -0.2256  0.1901
  405loPI    C2 6466   1.182  10.672  10.046 -0.0648 -0.1679  0.0366
  405loPI    C3 6467   1.403  10.389  10.221  0.0955 -0.0588  0.0131
  405loPI   PO4 6468   1.136  10.352   9.676  0.0912 -0.3499  0.0784
  405loPI   GL1 6469   1.062  10.486   9.179  0.1006  0.1780  0.0993
  405loPI   GL2 6470   1.315  10.561   9.200 -0.0732  0.2016 -0.2842
  405loPI   C1A 6471   0.759  10.671   8.847 -0.0886 -0.1588 -0.1369
  405loPI   C2A 6472   0.839  10.520   8.394 -0.2371  0.0751 -0.0586
  405loPI   C3A 6473   0.740  10.560   7.935 -0.1055  0.2828  0.0427
  405loPI   C4A 6474   0.733  10.699   7.512 -0.1711 -0.0887 -0.1390
  405loPI   C5A 6475   0.627  10.339   7.261 -0.0509  0.3736 -0.0222
  405loPI   C6A 6476   0.350  10.012   7.386 -0.1674  0.1848  0.5294
  405loPI   C1B 6477   1.191  10.464   8.706  0.3028 -0.3221 -0.2850
  405loPI   C2B 6478   1.300  10.591   8.296  0.1222  0.1810  0.1488
  405loPI   C3B 6479   1.215  10.753   7.932 -0.0901  0.4429  0.0479
  405loPI   C4B 6480   1.220  11.160   7.637 -0.3189 -0.0457  0.1508
  406loPI    C1 6481   5.527   5.143  10.884 -0.0766  0.3352 -0.1810
  406loPI    C2 6482   5.711   5.235  11.227  0.1717 -0.1226 -0.1835
  406loPI    C3 6483   5.311   5.223  11.211  0.1590 -0.1548  0.1053
  406loPI   PO4 6484   5.663   4.825  10.730  0.2102 -0.1146  0.0380
  406loPI   GL1 6485   5.660   4.845  10.336 -0.0974  0.2055  0.3500
  406loPI   GL2 6486   5.999   4.741  10.341  0.1061  0.1209 -0.1227
  406loPI   C1A 6487   5.719   5.027  10.005 -0.0465 -0.0138 -0.1020
  406loPI   C2A 6488   5.901   4.935   9.610 -0.0749  0.0693 -0.0398
  406loPI   C3A 6489   6.039   4.917   9.178 -0.1296  0.0159  0.0173
  406loPI   C4A 6490   6.087   4.959   8.771  0.1954 -0.1344  0.2068
  406loPI   C5A 6491   6.246   4.748   8.431  0.0069 -0.1696  0.1161
  406loPI   C6A 6492   6.257   4.377   8.209 -0.1497  0.0986  0.0206
  406loPI   C1B 6493   6.041   4.562   9.998 -0.3880  0.0675  0.1595
  406loPI   C2B 6494   6.031   4.415   9.586  0.1825  0.1867  0.3331
  406loPI   C3B 6495   6.076   4.456   9.146  0.0678 -0.0422  0.0071
  406loPI   C4B 6496   6.214   4.334   8.700 -0.2172 -0.1024  0.1771
  407loPI    C1 6497   3.636   4.640  10.469  0.2821 -0.1621 -0.1181
  407loPI    C2 6498   3.617   4.270  10.620  0.1789 -0.1336 -0.0603
  407loPI    C3 6499   3.720   4.577  10.855 -0.1551 -0.0628 -0.0008
  407loPI   PO4 6500   3.877   4.618  10.265 -0.0969 -0.1061 -0.0615
  407loPI   GL1 6501   3.752   4.607   9.759 -0.1524 -0.2492  0.2536
  407loPI   GL2 6502   4.059   4.485   9.751  0.1676  0.2011 -0.1197
  407loPI   C1A 6503   3.794   4.860   9.430  0.2625 -0.0606  0.0508
  407loPI   C2A 6504   3.761   4.781   8.963  0.0343  0.3655 -0.2563
  407loPI   C3A 6505   3.902   4.738   8.498 -0.0261  0.3381 -0.1622
  407loPI   C4A 6506   3.871   4.581   8.092 -0.0029  0.0793 -0.0028
  407loPI   C5A 6507   4.138   4.453   7.791 -0.3110  0.1978  0.1385
  407loPI   C6A 6508   4.367   4.161   7.589  0.3726  0.0705  0.0563
  407loPI   C1B 6509   4.264   4.610   9.384  0.3574  0.0375 -0.1901
  407loPI   C2B 6510   4.212   4.643   8.920 -0.0813  0.1588  0.2060
  407loPI   C3B 6511   4.320   4.558   8.437 -0.2422 -0.0101  0.0864
  407loPI   C4B 6512   4.346   4.766   8.212  0.2493 -0.4167 -0.1560
  408loPI    C1 6513  16.857   3.005   9.490 -0.0876  0.0773 -0.0296
  408loPI    C2 6514  16.943   2.730   9.213 -0.0163  0.1235 -0.0535
  408loPI    C3 6515  16.676   2.649   9.499  0.0400  0.0116 -0.0320
  408loPI   PO4 6516  17.163   3.072   9.469  0.1182  0.0968 -0.0397
  408loPI   GL1 6517  17.174   3.193   9.118  0.0372 -0.1269  0.0246
  408loPI   GL2 6518  17.256   2.962   8.892  0.0162  0.1760 -0.0023
  408loPI   C1A 6519  17.133   3.414   8.712  0.1045  0.0444  0.0312
  408loPI   C2A 6520  17.119   3.627   8.302  0.0713 -0.2266  0.0639
  408loPI   C3A 6521  17.060   3.769   7.801 -0.1572 -0.1045  0.2422
  408loPI   C4A 6522  17.368   3.999   7.530 -0.1656 -0.1416 -0.1309
  408loPI   C5A 6523  17.599   4.416   7.424  0.0159 -0.5493  0.0415
  408loPI   C6A 6524  17.709   4.739   7.301  0.1429  0.0073 -0.5722
  408loPI   C1B 6525  17.239   2.950   8.483  0.1939  0.1894 -0.4270
  408loPI   C2B 6526  17.128   2.707   8.158 -0.3226 -0.2624 -0.0648
  408loPI   C3B 6527  17.124   2.661   7.841  0.0521 -0.5430 -0.3108
  408loPI   C4B 6528  16.807   2.690   7.488 -0.2958  0.0629  0.0600
  409loPI    C1 6529   3.543  18.751  10.439  0.0776  0.1050 -0.3424
  409loPI    C2 6530   3.510  19.143  10.514  0.3181  0.1404 -0.4158
  409loPI    C3 6531   3.810  18.932  10.675 -0.1616 -0.1476  0.1369
  409loPI   PO4 6532   3.566  18.712  10.182 -0.0008  0.1660 -0.0580
  409loPI   GL1 6533   3.461  18.289   9.919 -0.1531  0.2371  0.0055
  409loPI   GL2 6534   3.074  18.395   9.800 -0.0995  0.1198  0.1320
  409loPI   C1A 6535   3.481  18.421   9.416 -0.0780  0.0102 -0.2681
  409loPI   C2A 6536   3.527  18.344   9.086  0.1796 -0.3204  0.2992
  409loPI   C3A 6537   3.420  18.458   8.769 -0.0626  0.0309  0.1567
  409loPI   C4A 6538   3.397  18.496   8.383  0.1790 -0.0486  0.1454
  409loPI   C5A 6539   3.490  18.513   7.952 -0.0769 -0.2164  0.0005
  409loPI   C6A 6540   3.420  18.379   7.518  0.1079 -0.0617  0.1658
  409loPI   C1B 6541   2.951  18.192   9.370 -0.1629 -0.1079  0.0582
  409loPI   C2B 6542   3.050  18.133   8.956  0.0929 -0.1917  0.2135
  409loPI   C3B 6543   3.020  18.166   8.501  0.1523 -0.0405 -0.2705
  409loPI   C4B 6544   3.048  18.235   8.075 -0.2040 -0.3279  0.0285
  410loPI    C1 6545   8.634   2.060  10.668  0.0156  0.1914 -0.0496
  410loPI    C2 6546   8.279   1.887  10.727  0.1452 -0.0510  0.0329
  410loPI    C3 6547   8.480   2.041  11.037  0.1947 -0.0774  0.0138
  410loPI   PO4 6548   8.633   2.129  10.309 -0.0604  0.0550 -0.3170
  410loPI   GL1 6549   8.569   1.941   9.965  0.2300 -0.1213 -0.0086
  410loPI   GL2 6550   8.283   1.771  10.024 -0.0338 -0.3752  0.0303
  410loPI   C1A 6551   8.567   2.008   9.539  0.0405 -0.0099  0.0422
  410loPI   C2A 6552   8.571   2.050   9.080  0.0357  0.2308  0.0521
  410loPI   C3A 6553   8.420   2.110   8.622 -0.1397  0.0539  0.0658
  410loPI   C4A 6554   8.542   2.372   8.294  0.2504  0.0981 -0.0375
  410loPI   C5A 6555   8.302   2.688   8.084  0.0032  0.2403  0.4445
  410loPI   C6A 6556   7.966   2.872   7.943  0.0424 -0.0715  0.1041
  410loPI   C1B 6557   8.157   1.735   9.657 -0.0996  0.3917 -0.0987
  410loPI   C2B 6558   8.152   1.653   9.270 -0.1537 -0.1914  0.0734
  410loPI   C3B 6559   8.116   1.771   8.854  0.0165 -0.0940 -0.2241
  410loPI   C4B 6560   8.043   1.786   8.543 -0.0250  0.0122 -0.2744
  411loPI    C1 6561   0.718  16.654   9.841  0.2455  0.0723 -0.1237
  411loPI    C2 6562   0.821  16.269   9.868 -0.0573 -0.0054 -0.0378
  411loPI    C3 6563   0.686  16.463  10.190  0.0283  0.1546 -0.0970
  411loPI   PO4 6564   0.657  16.663   9.522 -0.0134 -0.0943 -0.3350
  411loPI   GL1 6565   0.378  17.004   9.375  0.4249 -0.1741 -0.1343
  411loPI   GL2 6566   0.500  17.232   9.468  0.3356  0.1613  0.1481
  411loPI   C1A 6567   0.365  17.003   8.964  0.0111  0.1629 -0.0459
  411loPI   C2A 6568   0.522  16.954   8.599 -0.4014  0.0727 -0.2687
  411loPI   C3A 6569   0.898  16.971   8.403 -0.1020 -0.3291 -0.0761
  411loPI   C4A 6570   0.909  17.021   7.967 -0.0947 -0.2742  0.2404
  411loPI   C5A 6571   0.750  16.988   7.621 -0.5494  0.1786 -0.2089
  411loPI   C6A 6572   0.395  16.814   7.347 -0.1586  0.0806 -0.2235
  411loPI   C1B 6573   0.700  17.455   9.105 -0.0413 -0.1341  0.2122
  411loPI   C2B 6574   0.783  17.452   8.660  0.1670  0.0741 -0.0589
  411loPI   C3B 6575   0.553  17.392   8.248 -0.2258 -0.1108  0.4833
  411loPI   C4B 6576   0.397  17.257   7.874 -0.1517  0.2097 -0.1300
  412loPI    C1 6577  15.046  12.074  10.210 -0.0801  0.2145  0.1231
  412loPI    C2 6578  15.214  11.726  10.106 -0.3659  0.1402 -0.1052
  412loPI    C3 6579  15.022  11.759  10.456 -0.0515  0.1695  0.0683
  412loPI   PO4 6580  14.902  12.090  10.034  0.0269 -0.0974 -0.2853
  412loPI   GL1 6581  14.737  12.173   9.661  0.1157 -0.2187  0.0454
  412loPI   GL2 6582  14.940  12.398   9.485 -0.1252 -0.1697 -0.4691
  412loPI   C1A 6583  14.650  11.934   9.287 -0.2723  0.0749  0.3064
  412loPI   C2A 6584  14.521  12.087   8.940  0.2450  0.2063  0.1357
  412loPI   C3A 6585  14.378  12.053   8.492  0.1252 -0.1157  0.1145
  412loPI   C4A 6586  14.388  12.089   8.083  0.1648 -0.2072  0.0994
  412loPI   C5A 6587  14.259  12.056   7.664  0.1372  0.1176  0.1891
  412loPI   C6A 6588  14.042  12.246   7.383  0.1489  0.3425  0.1568
  412loPI   C1B 6589  14.948  12.279   9.105  0.2926 -0.0323 -0.1205
  412loPI   C2B 6590  14.910  12.320   8.688  0.1902 -0.2056  0.0207
  412loPI   C3B 6591  14.853  12.369   8.260 -0.0933 -0.0542  0.1737
  412loPI   C4B 6592  14.814  12.078   7.900  0.1244  0.0577 -0.2214
  413loPI    C1 6593  12.740   6.414  10.790 -0.2726  0.0811  0.0842
  413loPI    C2 6594  13.139   6.389  10.794 -0.2796 -0.0513  0.0103
  413loPI    C3 6595  12.951   6.621  11.060 -0.1521  0.0374  0.0244
  413loPI   PO4 6596  12.670   6.467  10.543  0.2117 -0.0651 -0.1509
  413loPI   GL1 6597  12.667   6.527  10.026  0.0297 -0.1805 -0.2029
  413loPI   GL2 6598  12.486   6.193   9.938  0.0667  0.3016  0.1205
  413loPI   C1A 6599  12.367   6.638   9.755  0.0943  0.0931 -0.0022
  413loPI   C2A 6600  12.375   6.701   9.332  0.3138  0.2732 -0.2026
  413loPI   C3A 6601  12.294   6.716   8.938  0.2098 -0.0886 -0.1324
  413loPI   C4A 6602  12.281   6.497   8.546 -0.2174  0.0277  0.2330
  413loPI   C5A 6603  12.140   6.786   8.094  0.1292 -0.1634  0.4069
  413loPI   C6A 6604  11.844   7.176   8.008  0.4025  0.2593 -0.1901
  413loPI   C1B 6605  12.454   6.180   9.443 -0.1140 -0.1968  0.1329
  413loPI   C2B 6606  12.376   6.097   8.987  0.1288 -0.2609 -0.0941
  413loPI   C3B 6607  12.250   5.996   8.558 -0.2105 -0.4183  0.2102
  413loPI   C4B 6608  12.190   6.159   8.010 -0.0198 -0.2277 -0.2096
  414loPI    C1 6609  15.768   8.154   9.957  0.4465  0.0478 -0.1398
  414loPI    C2 6610  15.913   7.784  10.002  0.2391 -0.0198 -0.0135
  414loPI    C3 6611  16.030   8.077  10.248 -0.0509 -0.1389  0.2733
  414loPI   PO4 6612  15.810   8.197   9.673  0.0427  0.1177  0.0964
  414loPI   GL1 6613  15.907   8.371   9.287  0.2446 -0.0993  0.3716
  414loPI   GL2 6614  16.064   8.120   9.184  0.4525  0.3698  0.1867
  414loPI   C1A 6615  15.713   8.456   8.903  0.0097  0.1126  0.1959
  414loPI   C2A 6616  15.593   8.386   8.476 -0.2170 -0.0362 -0.1041
  414loPI   C3A 6617  15.553   8.519   7.982  0.1653  0.0718 -0.0788
  414loPI   C4A 6618  15.515   8.658   7.536  0.0073  0.1248 -0.1354
  414loPI   C5A 6619  15.388   8.614   7.110 -0.0984 -0.0118  0.0022
  414loPI   C6A 6620  15.260   8.776   6.739  0.1735 -0.0804 -0.2742
  414loPI   C1B 6621  16.106   8.117   8.750 -0.1177 -0.0512  0.2353
  414loPI   C2B 6622  16.031   8.132   8.352 -0.3363  0.1540 -0.2643
  414loPI   C3B 6623  15.861   8.144   8.069  0.0628 -0.0081 -0.0258
  414loPI   C4B 6624  15.721   8.202   7.640 -0.1446  0.0937 -0.2999
  415loPI    C1 6625  16.940  17.837   9.999  0.3445  0.1255  0.0076
  415loPI    C2 6626  17.013  17.563  10.282 -0.2254 -0.0694 -0.0218
  415loPI    C3 6627  16.860  17.919  10.382  0.1428  0.0954 -0.0273
  415loPI   PO4 6628  16.822  17.606   9.750  0.3997 -0.0753 -0.1092
  415loPI   GL1 6629  16.827  17.665   9.280  0.2720  0.3309  0.0423
  415loPI   GL2 6630  16.612  17.831   9.108 -0.2201  0.0390 -0.1269
  415loPI   C1A 6631  17.099  17.557   8.919 -0.0789  0.0557 -0.1615
  415loPI   C2A 6632  16.951  17.628   8.575  0.1225 -0.0573  0.0639
  415loPI   C3A 6633  17.002  17.650   8.122  0.2708 -0.0520 -0.5957
  415loPI   C4A 6634  16.816  17.494   7.700 -0.0779 -0.2286  0.1808
  415loPI   C5A 6635  16.370  17.567   7.744  0.0172 -0.1687 -0.0141
  415loPI   C6A 6636  16.009  17.757   7.757  0.1137  0.3762  0.0603
  415loPI   C1B 6637  16.365  17.719   8.664  0.2091  0.1224 -0.4964
  415loPI   C2B 6638  16.032  17.553   8.393  0.0616 -0.0928 -0.0654
  415loPI   C3B 6639  15.706  17.548   8.110  0.0484  0.3747  0.0957
  415loPI   C4B 6640  15.574  17.507   7.667  0.3516  0.3193  0.2613
  416loPI    C1 6641  12.684   7.552  11.068 -0.2468  0.2514  0.0082
  416loPI    C2 6642  12.909   7.828  10.886  0.1045 -0.1260 -0.1448
  416loPI    C3 6643  13.046   7.643  11.214 -0.0770 -0.2052 -0.1128
  416loPI   PO4 6644  12.605   7.352  10.835  0.0416 -0.2754  0.1558
  416loPI   GL1 6645  12.631   7.306  10.318  0.3237  0.5176 -0.2415
  416loPI   GL2 6646  12.520   7.083  10.067 -0.0925 -0.0523  0.0338
  416loPI   C1A 6647  12.722   7.487   9.926 -0.0546 -0.1433 -0.0157
  416loPI   C2A 6648  12.814   7.514   9.464  0.0605  0.0349  0.3478
  416loPI   C3A 6649  12.644   7.580   9.115  0.0821 -0.0049 -0.1513
  416loPI   C4A 6650  12.582   7.455   8.660  0.1458 -0.3562 -0.3682
  416loPI   C5A 6651  12.602   7.355   8.224 -0.4133 -0.2362 -0.4947
  416loPI   C6A 6652  12.570   6.965   7.998 -0.0767 -0.1841  0.0939
  416loPI   C1B 6653  12.647   7.010   9.711 -0.1925 -0.2056 -0.0392
  416loPI   C2B 6654  12.800   7.002   9.273 -0.0094  0.2301  0.0955
  416loPI   C3B 6655  12.712   6.944   8.924 -0.3076 -0.2688 -0.0899
  416loPI   C4B 6656  12.636   6.929   8.552  0.0545  0.3082  0.0469
  417loPI    C1 6657  18.287   9.410  10.122  0.1486 -0.3160  0.0454
  417loPI    C2 6658  18.148   9.080   9.943 -0.3535 -0.1080  0.0345
  417loPI    C3 6659  18.040   9.164  10.318 -0.2316  0.0474  0.0365
  417loPI   PO4 6660  18.293   9.540   9.799 -0.1661 -0.0345  0.1903
  417loPI   GL1 6661  18.373   9.486   9.347  0.1625 -0.0503  0.0225
  417loPI   GL2 6662  18.380   9.153   9.475 -0.1483  0.0647 -0.0304
  417loPI   C1A 6663  18.536   9.593   8.998  0.0004  0.0641  0.1137
  417loPI   C2A 6664  18.571   9.541   8.568  0.1748  0.2320  0.2225
  417loPI   C3A 6665  18.851   9.444   8.129 -0.1445  0.0183  0.0558
  417loPI   C4A 6666  18.796   9.244   7.753 -0.0710  0.0424  0.2774
  417loPI   C5A 6667  18.936   8.980   7.464 -0.0565  0.1522 -0.1351
  417loPI   C6A 6668  19.091   8.679   7.079  0.0306 -0.3709 -0.0323
  417loPI   C1B 6669  18.333   9.090   9.043 -0.0258 -0.0788 -0.0221
  417loPI   C2B 6670  18.459   8.981   8.682 -0.0523  0.1521 -0.2378
  417loPI   C3B 6671  18.509   8.977   8.239 -0.2090  0.0082  0.0134
  417loPI   C4B 6672  18.290   8.881   7.851 -0.0491 -0.2586  0.1094
  418loPI    C1 6673  15.788  11.125  10.001  0.1366  0.2679 -0.0402
  418loPI    C2 6674  15.502  10.963   9.774  0.0625  0.1634  0.1252
  418loPI    C3 6675  15.404  11.210  10.073  0.1527  0.2149  0.1127
  418loPI   PO4 6676  15.923  11.236   9.706 -0.0242  0.1267  0.0264
  418loPI   GL1 6677  15.763  11.093   9.329  0.5220 -0.1777 -0.2177
  418loPI   GL2 6678  15.607  11.428   9.176  0.0658  0.1073  0.3721
  418loPI   C1A 6679  15.813  11.044   8.867  0.3567 -0.0179 -0.0281
  418loPI   C2A 6680  15.640  11.071   8.471  0.2451  0.1299 -0.2946
  418loPI   C3A 6681  15.593  10.967   7.961  0.1292  0.1517 -0.0309
  418loPI   C4A 6682  15.336  11.134   7.567  0.1580 -0.0070  0.0762
  418loPI   C5A 6683  15.138  11.163   7.102 -0.1344 -0.1912  0.0729
  418loPI   C6A 6684  14.961  11.393   6.830  0.1338  0.1417 -0.1382
  418loPI   C1B 6685  15.250  11.318   8.834  0.2081 -0.0146  0.0610
  418loPI   C2B 6686  15.031  11.363   8.514 -0.2365  0.2476  0.3000
  418loPI   C3B 6687  14.745  11.197   8.217  0.2015  0.1604  0.4365
  418loPI   C4B 6688  14.504  10.943   7.968 -0.0969  0.0852  0.2136
  419loPI    C1 6689   6.635   4.135  10.704  0.1378  0.2671  0.0361
  419loPI    C2 6690   6.893   4.172  11.008  0.0193  0.1801  0.1485
  419loPI    C3 6691   6.530   4.017  11.071  0.0662 -0.0279 -0.0761
  419loPI   PO4 6692   6.717   4.024  10.523  0.1294  0.0378 -0.0777
  419loPI   GL1 6693   6.449   3.960  10.191 -0.1873 -0.2137 -0.1041
  419loPI   GL2 6694   6.286   4.011  10.073  0.1253  0.1339 -0.0179
  419loPI   C1A 6695   6.682   3.823   9.755  0.1955  0.1369  0.0900
  419loPI   C2A 6696   6.641   3.780   9.276  0.0675  0.0915 -0.0279
  419loPI   C3A 6697   6.739   3.708   8.811  0.1236 -0.1203 -0.1381
  419loPI   C4A 6698   6.890   3.736   8.335  0.0771  0.2713  0.1294
  419loPI   C5A 6699   6.926   3.415   7.881 -0.0027 -0.0184  0.0205
  419loPI   C6A 6700   7.042   2.987   7.712  0.0691 -0.1273  0.2647
  419loPI   C1B 6701   6.144   3.991   9.758  0.1929 -0.3043 -0.2359
  419loPI   C2B 6702   6.196   3.950   9.415  0.0164 -0.0065 -0.0319
  419loPI   C3B 6703   6.217   3.882   8.932  0.0120 -0.0376  0.0049
  419loPI   C4B 6704   6.310   3.790   8.476 -0.0924  0.2420 -0.2040
  420loPI    C1 6705   7.490  12.344  10.436 -0.0527  0.2431 -0.0035
  420loPI    C2 6706   7.303  12.506  10.750 -0.0017  0.0159  0.1469
  420loPI    C3 6707   7.678  12.374  10.788 -0.0846 -0.2494  0.0625
  420loPI   PO4 6708   7.523  12.482  10.246 -0.0432  0.0663  0.1716
  420loPI   GL1 6709   7.858  12.442   9.989 -0.3840 -0.0201 -0.0578
  420loPI   GL2 6710   8.176  12.543   9.864 -0.1269  0.0966  0.1195
  420loPI   C1A 6711   7.769  12.509   9.556 -0.2602  0.1888  0.1963
  420loPI   C2A 6712   8.019  12.474   9.175 -0.3966  0.1249  0.2121
  420loPI   C3A 6713   7.957  12.560   8.692  0.2372  0.0696 -0.1254
  420loPI   C4A 6714   8.035  12.588   8.158  0.1453 -0.0908  0.0397
  420loPI   C5A 6715   8.056  12.665   7.702  0.3350  0.1356 -0.2078
  420loPI   C6A 6716   7.848  12.636   7.467  0.2873  0.0211  0.1990
  420loPI   C1B 6717   8.265  12.828   9.516 -0.2556 -0.1148  0.0239
  420loPI   C2B 6718   8.410  12.796   9.143  0.0119 -0.2289 -0.0497
  420loPI   C3B 6719   8.374  12.922   8.813 -0.0960  0.0142 -0.3223
  420loPI   C4B 6720   8.233  12.894   8.472  0.0289 -0.2141 -0.2231
  421loPI    C1 6721  17.129   8.512  10.034  0.1737  0.1030  0.0030
  421loPI    C2 6722  17.321   8.235  10.249 -0.0873 -0.1291 -0.0561
  421loPI    C3 6723  17.071   8.490  10.429 -0.0510 -0.1056 -0.0389
  421loPI   PO4 6724  17.388   8.605   9.872  0.0348  0.1027  0.0459
  421loPI   GL1 6725  17.436   8.366   9.483  0.1614  0.0299  0.1196
  421loPI   GL2 6726  17.632   8.564   9.264 -0.1892  0.1380  0.1731
  421loPI   C1A 6727  17.259   8.077   9.105  0.1929  0.0882 -0.0795
  421loPI   C2A 6728  17.100   7.799   8.703 -0.0739  0.0998  0.0318
  421loPI   C3A 6729  17.163   7.625   8.360 -0.0823 -0.2915 -0.0604
  421loPI   C4A 6730  17.169   7.509   7.962  0.0048  0.0410 -0.0656
  421loPI   C5A 6731  16.914   7.329   7.599  0.0194  0.3884 -0.1151
  421loPI   C6A 6732  16.463   7.098   7.341  0.0262  0.1192 -0.0645
  421loPI   C1B 6733  17.627   8.438   8.980  0.2523 -0.0555  0.0429
  421loPI   C2B 6734  17.722   8.359   8.580  0.6202  0.0835  0.4135
  421loPI   C3B 6735  17.590   8.735   8.373 -0.0027  0.0862 -0.0495
  421loPI   C4B 6736  17.276   8.797   8.119 -0.0079  0.0047 -0.2289
  422loPI    C1 6737  16.547   6.471  10.374  0.3284  0.4283  0.3177
  422loPI    C2 6738  16.201   6.606  10.522 -0.1196 -0.2162 -0.0856
  422loPI    C3 6739  16.417   6.341  10.729  0.0160  0.0034  0.0583
  422loPI   PO4 6740  16.377   6.429  10.019 -0.2938 -0.0086  0.2969
  422loPI   GL1 6741  16.486   6.376   9.605  0.1237  0.0016  0.0373
  422loPI   GL2 6742  16.578   6.124   9.574  0.2730  0.2350 -0.1144
  422loPI   C1A 6743  16.290   6.456   9.171  0.2429  0.3050 -0.3628
  422loPI   C2A 6744  16.024   6.574   8.751 -0.1313  0.0343  0.0348
  422loPI   C3A 6745  16.047   6.639   8.260  0.0731 -0.0746 -0.2032
  422loPI   C4A 6746  16.287   6.655   7.873 -0.1659 -0.2906  0.0353
  422loPI   C5A 6747  16.450   6.502   7.448 -0.1426 -0.0280 -0.4251
  422loPI   C6A 6748  16.517   6.627   7.028  0.0664  0.4279 -0.3532
  422loPI   C1B 6749  16.577   6.005   9.128  0.2089  0.2440 -0.0322
  422loPI   C2B 6750  16.473   5.962   8.753  0.0601  0.1176 -0.2625
  422loPI   C3B 6751  16.403   5.889   8.367  0.2049 -0.0310  0.0537
  422loPI   C4B 6752  16.242   5.689   8.027 -0.1499 -0.1057  0.2510
  423loPI    C1 6753  12.494   5.886  10.372  0.1706 -0.2705  0.1436
  423loPI    C2 6754  12.760   5.974  10.657  0.0677 -0.0910  0.1860
  423loPI    C3 6755  12.835   6.071  10.277  0.0476 -0.0073  0.2032
  423loPI   PO4 6756  12.236   5.854  10.397  0.1113  0.0590  0.0801
  423loPI   GL1 6757  11.963   6.058  10.041  0.3656 -0.1660  0.0983
  423loPI   GL2 6758  12.170   5.808   9.874 -0.0222 -0.3403  0.1655
  423loPI   C1A 6759  11.960   6.188   9.653  0.0724 -0.0840 -0.0157
  423loPI   C2A 6760  11.911   6.281   9.209  0.0568 -0.0981  0.1367
  423loPI   C3A 6761  11.853   6.218   8.707 -0.1749  0.0240 -0.0185
  423loPI   C4A 6762  11.853   6.385   8.264  0.0505  0.0019 -0.2340
  423loPI   C5A 6763  11.684   6.186   8.008 -0.0681  0.0808  0.2130
  423loPI   C6A 6764  11.842   6.004   7.676  0.0559  0.2357 -0.4556
  423loPI   C1B 6765  11.971   5.744   9.403 -0.1897  0.2180 -0.0752
  423loPI   C2B 6766  12.029   5.746   8.911  0.2136  0.0781 -0.0218
  423loPI   C3B 6767  11.920   5.609   8.523 -0.0167 -0.0492  0.0693
  423loPI   C4B 6768  11.980   5.700   8.180  0.1144  0.0166  0.0909
  424loPI    C1 6769  13.904   5.077  10.113 -0.1926 -0.0327  0.3714
  424loPI    C2 6770  14.172   4.781  10.137 -0.0560  0.0744  0.1885
  424loPI    C3 6771  14.235   5.124  10.334 -0.0527  0.1031  0.1378
  424loPI   PO4 6772  13.780   4.996   9.892 -0.2111  0.1920 -0.0410
  424loPI   GL1 6773  13.768   4.981   9.406  0.0697 -0.0868 -0.2788
  424loPI   GL2 6774  13.676   4.758   9.463 -0.1730  0.3026  0.2730
  424loPI   C1A 6775  13.525   5.228   9.176  0.2135  0.2250  0.1784
  424loPI   C2A 6776  13.455   5.289   8.779  0.0788 -0.1529  0.1320
  424loPI   C3A 6777  13.508   5.151   8.466 -0.3403  0.0390  0.0215
  424loPI   C4A 6778  13.503   5.228   7.980  0.1460  0.0919 -0.1817
  424loPI   C5A 6779  13.291   5.551   7.722  0.3317 -0.0776  0.2156
  424loPI   C6A 6780  13.027   5.843   7.588 -0.6025 -0.0294 -0.0816
  424loPI   C1B 6781  13.662   4.810   8.952 -0.2751 -0.0802 -0.0058
  424loPI   C2B 6782  13.673   4.681   8.538 -0.0460 -0.4673  0.1623
  424loPI   C3B 6783  13.506   4.695   8.169 -0.0702 -0.0049  0.0237
  424loPI   C4B 6784  13.343   4.807   7.748  0.2436 -0.1192 -0.0534
  425loPI    C1 6785  13.605   5.575  10.308 -0.1406 -0.1439  0.1093
  425loPI    C2 6786  13.806   5.324  10.545  0.0607 -0.2056 -0.1219
  425loPI    C3 6787  13.753   5.705  10.656  0.2740 -0.1978 -0.0416
  425loPI   PO4 6788  13.545   5.470   9.977  0.0418  0.2659 -0.1880
  425loPI   GL1 6789  13.490   5.488   9.578  0.0921 -0.0853 -0.1642
  425loPI   GL2 6790  13.156   5.463   9.674  0.1174 -0.1786 -0.1178
  425loPI   C1A 6791  13.417   5.689   9.170  0.1217 -0.0731  0.0694
  425loPI   C2A 6792  13.345   5.783   8.702 -0.0424  0.0612 -0.0689
  425loPI   C3A 6793  13.348   5.760   8.230 -0.1005  0.0418  0.1397
  425loPI   C4A 6794  13.353   6.058   7.990 -0.0099 -0.1744  0.4108
  425loPI   C5A 6795  13.458   6.243   7.630 -0.1622  0.2595 -0.0930
  425loPI   C6A 6796  13.447   6.177   7.324  0.0226  0.1067  0.1751
  425loPI   C1B 6797  12.979   5.475   9.317  0.0074 -0.0975  0.1937
  425loPI   C2B 6798  12.949   5.478   8.919  0.0374 -0.1682 -0.2083
  425loPI   C3B 6799  12.978   5.337   8.551 -0.3096  0.0052  0.0242
  425loPI   C4B 6800  12.924   5.465   8.134  0.2192 -0.0296  0.0669
  426loPI    C1 6801   6.786  15.534  10.336  0.0062 -0.0716 -0.0418
  426loPI    C2 6802   6.544  15.553  10.653 -0.1693  0.0859 -0.1832
  426loPI    C3 6803   6.926  15.446  10.700 -0.3084 -0.3448  0.0179
  426loPI   PO4 6804   6.610  15.395  10.149 -0.3804  0.0282  0.2307
  426loPI   GL1 6805   6.478  15.295   9.795 -0.4350 -0.2153 -0.0716
  426loPI   GL2 6806   6.474  15.046   9.636 -0.2118  0.3205 -0.1077
  426loPI   C1A 6807   6.382  15.453   9.417 -0.0523 -0.1997  0.3062
  426loPI   C2A 6808   6.339  15.460   9.043 -0.0795  0.2382  0.0957
  426loPI   C3A 6809   6.365  15.583   8.574 -0.3418  0.0093  0.1064
  426loPI   C4A 6810   6.322  15.771   8.144 -0.1894  0.3031 -0.0944
  426loPI   C5A 6811   6.448  15.592   7.760  0.0158  0.4500 -0.2808
  426loPI   C6A 6812   6.784  15.536   7.393  0.2360  0.3065 -0.1572
  426loPI   C1B 6813   6.470  14.843   9.315 -0.0293  0.2790  0.0205
  426loPI   C2B 6814   6.473  14.867   8.960 -0.1200 -0.2332  0.1194
  426loPI   C3B 6815   6.440  15.039   8.537  0.2517 -0.3151  0.1601
  426loPI   C4B 6816   6.707  15.031   8.157  0.5543 -0.0065 -0.3167
  427loPI    C1 6817   0.977   7.908   9.914  0.1385 -0.1181 -0.0764
  427loPI    C2 6818   0.915   7.697  10.249 -0.0672 -0.0849 -0.0923
  427loPI    C3 6819   1.086   8.058  10.268 -0.1815 -0.0346 -0.0100
  427loPI   PO4 6820   0.943   7.709   9.690  0.2375 -0.2265 -0.5644
  427loPI   GL1 6821   1.300   7.607   9.397 -0.0022 -0.1395 -0.3347
  427loPI   GL2 6822   1.191   7.889   9.305  0.4399 -0.0728 -0.0607
  427loPI   C1A 6823   1.336   7.503   8.979 -0.0158  0.3747  0.2575
  427loPI   C2A 6824   1.378   7.476   8.584  0.1106 -0.0978  0.1650
  427loPI   C3A 6825   1.518   7.483   8.105  0.1689  0.0313  0.0263
  427loPI   C4A 6826   1.675   7.362   7.634  0.3758  0.0534 -0.0923
  427loPI   C5A 6827   1.539   6.994   7.398  0.0852 -0.0404 -0.0893
  427loPI   C6A 6828   1.206   6.907   7.070 -0.1318  0.2456  0.0194
  427loPI   C1B 6829   1.280   7.930   8.822 -0.1099 -0.0600  0.0151
  427loPI   C2B 6830   1.359   7.973   8.451 -0.1216 -0.1780  0.1623
  427loPI   C3B 6831   1.230   7.895   8.057 -0.1709 -0.2138  0.0942
  427loPI   C4B 6832   1.287   7.758   7.724  0.1486 -0.0097  0.2557
  428loPI    C1 6833  16.006   8.600   9.884 -0.0877 -0.2284 -0.0426
  428loPI    C2 6834  16.085   8.892  10.146 -0.0826 -0.2832  0.0174
  428loPI    C3 6835  15.861   8.580  10.257  0.2011 -0.4750  0.0605
  428loPI   PO4 6836  16.010   8.694   9.646  0.1292  0.0429 -0.1030
  428loPI   GL1 6837  16.022   8.980   9.320 -0.1667 -0.2959 -0.2110
  428loPI   GL2 6838  15.678   8.827   9.206  0.2391  0.2464 -0.0127
  428loPI   C1A 6839  16.180   8.783   9.002  0.1014  0.0247  0.1438
  428loPI   C2A 6840  16.158   8.785   8.558  0.2081  0.0617  0.1531
  428loPI   C3A 6841  16.062   8.696   8.113 -0.1658 -0.2076 -0.1961
  428loPI   C4A 6842  16.116   8.545   7.686  0.3319  0.1489 -0.2800
  428loPI   C5A 6843  16.455   8.769   7.480 -0.0223 -0.1786 -0.0370
  428loPI   C6A 6844  16.848   8.992   7.420  0.0815  0.0410 -0.2760
  428loPI   C1B 6845  15.732   8.968   8.806  0.1044  0.0160  0.3848
  428loPI   C2B 6846  15.691   9.003   8.381  0.0284  0.3070 -0.3351
  428loPI   C3B 6847  15.652   8.995   7.996 -0.1109  0.1406  0.0318
  428loPI   C4B 6848  15.514   9.314   7.733 -0.2216  0.0555  0.0515
  429loPI    C1 6849  12.070   1.528  10.526  0.1217  0.0530 -0.0870
  429loPI    C2 6850  12.001   1.156  10.657  0.0938 -0.0004 -0.2509
  429loPI    C3 6851  12.374   1.302  10.657  0.0874  0.0177 -0.0682
  429loPI   PO4 6852  12.016   1.580  10.360 -0.0131 -0.1006 -0.0927
  429loPI   GL1 6853  11.863   1.841  10.050  0.0510 -0.1330  0.1804
  429loPI   GL2 6854  11.685   1.529  10.013 -0.0235 -0.2125 -0.1928
  429loPI   C1A 6855  11.900   1.967   9.712 -0.0352  0.3311  0.3873
  429loPI   C2A 6856  11.843   1.887   9.391  0.3348 -0.0709  0.1299
  429loPI   C3A 6857  11.741   1.895   9.017  0.0012 -0.0000  0.1575
  429loPI   C4A 6858  11.771   1.974   8.610 -0.2290  0.2181 -0.2722
  429loPI   C5A 6859  11.800   2.045   8.109  0.2620 -0.0769 -0.0360
  429loPI   C6A 6860  11.653   1.934   7.747 -0.0506  0.0342  0.2154
  429loPI   C1B 6861  11.513   1.573   9.680  0.1413 -0.1318 -0.1546
  429loPI   C2B 6862  11.471   1.522   9.202  0.4038 -0.0154 -0.3288
  429loPI   C3B 6863  11.381   1.611   8.862  0.2061  0.1038  0.2116
  429loPI   C4B 6864  11.346   1.622   8.443  0.3627  0.1392 -0.0581
  430loPI    C1 6865   8.147   0.664  10.686  0.0931  0.0709  0.0147
  430loPI    C2 6866   8.319   0.825  11.009  0.2474 -0.1525  0.0462
  430loPI    C3 6867   8.463   0.485  10.855  0.0891 -0.1202 -0.1764
  430loPI   PO4 6868   8.130   0.846  10.397  0.1504 -0.1613 -0.0986
  430loPI   GL1 6869   8.225   0.638   9.960  0.1808 -0.1772  0.1707
  430loPI   GL2 6870   8.550   0.694   9.952  0.1513 -0.0377  0.2120
  430loPI   C1A 6871   8.339   0.670   9.470  0.1483  0.0885 -0.1063
  430loPI   C2A 6872   8.346   0.703   8.984  0.0925  0.0605  0.0821
  430loPI   C3A 6873   8.336   0.698   8.573  0.1333 -0.0548  0.0931
  430loPI   C4A 6874   8.351   0.770   8.225 -0.2077  0.1564 -0.0080
  430loPI   C5A 6875   8.439   1.117   7.865 -0.1853 -0.2792 -0.4076
  430loPI   C6A 6876   8.696   1.451   7.589 -0.2367  0.1826  0.2423
  430loPI   C1B 6877   8.692   0.983   9.610  0.0375  0.2657  0.1170
  430loPI   C2B 6878   8.789   1.058   9.183  0.3044 -0.2942 -0.2277
  430loPI   C3B 6879   8.711   1.008   8.762 -0.0039 -0.0259  0.0800
  430loPI   C4B 6880   8.742   1.105   8.305  0.2531  0.1516  0.1081
  431loPI    C1 6881  12.330   6.969  10.610  0.1118 -0.1831 -0.1262
  431loPI    C2 6882  12.128   7.074  10.939  0.1104  0.0957 -0.2136
  431loPI    C3 6883  12.456   6.847  10.970  0.0899  0.0906 -0.0235
  431loPI   PO4 6884  12.167   6.898  10.409 -0.0981  0.0560 -0.2281
  431loPI   GL1 6885  11.966   7.152  10.095  0.1533  0.0705 -0.1092
  431loPI   GL2 6886  12.128   7.354  10.061  0.0143 -0.0766  0.0151
  431loPI   C1A 6887  11.756   7.324   9.757  0.1577 -0.1016  0.0353
  431loPI   C2A 6888  11.800   7.436   9.237  0.1909 -0.0481  0.2201
  431loPI   C3A 6889  11.715   7.275   8.813  0.1692  0.2212 -0.0267
  431loPI   C4A 6890  11.621   7.420   8.453 -0.1095  0.1465 -0.1765
  431loPI   C5A 6891  11.303   7.740   8.371  0.0423 -0.0611 -0.0656
  431loPI   C6A 6892  10.930   7.926   8.275 -0.3243  0.3768 -0.0518
  431loPI   C1B 6893  12.222   7.314   9.612  0.2403  0.1632 -0.0795
  431loPI   C2B 6894  12.323   7.208   9.319 -0.3535 -0.0294 -0.0439
  431loPI   C3B 6895  12.225   7.186   8.921 -0.3747 -0.1328  0.0561
  431loPI   C4B 6896  12.163   7.176   8.451  0.0694  0.0822 -0.0362
  432loPI    C1 6897   9.834  17.223  10.603 -0.1169 -0.0537 -0.0206
  432loPI    C2 6898   9.581  17.106  10.889  0.0082 -0.1081  0.0688
  432loPI    C3 6899   9.975  17.103  10.957  0.0482 -0.2707 -0.1572
  432loPI   PO4 6900   9.872  17.028  10.420  0.3552 -0.1329 -0.1420
  432loPI   GL1 6901   9.887  16.942  10.015  0.2558 -0.0555 -0.0247
  432loPI   GL2 6902   9.875  17.278   9.762  0.1268  0.0399  0.0060
  432loPI   C1A 6903   9.973  16.707   9.661 -0.0021  0.0931 -0.1391
  432loPI   C2A 6904   9.928  16.627   9.249 -0.0850 -0.1207  0.1877
  432loPI   C3A 6905   9.888  16.651   8.812 -0.3413 -0.1350 -0.4011
  432loPI   C4A 6906   9.939  16.687   8.391  0.0200 -0.2865  0.2717
  432loPI   C5A 6907   9.930  16.746   7.970 -0.4475 -0.0964 -0.2577
  432loPI   C6A 6908  10.058  17.028   7.752  0.0120 -0.1782  0.3424
  432loPI   C1B 6909   9.781  17.137   9.403 -0.0558 -0.0783  0.3417
  432loPI   C2B 6910   9.685  17.183   8.918 -0.0932  0.3652  0.2970
  432loPI   C3B 6911   9.850  17.113   8.536 -0.1116 -0.2388  0.1401
  432loPI   C4B 6912   9.710  17.146   8.140  0.0480 -0.0487 -0.1291
  433loPI    C1 6913   0.998  18.631  10.067 -0.2713 -0.0119 -0.0213
  433loPI    C2 6914   0.885  18.882  10.357 -0.1114 -0.1054  0.1232
  433loPI    C3 6915   1.054  18.531  10.450 -0.0820 -0.1466 -0.0827
  433loPI   PO4 6916   0.853  18.548   9.930 -0.2003 -0.1651 -0.2329
  433loPI   GL1 6917   0.959  18.423   9.446 -0.0213  0.6158  0.0471
  433loPI   GL2 6918   1.194  18.657   9.282  0.2646 -0.2207  0.1548
  433loPI   C1A 6919   0.908  18.328   8.983  0.0054 -0.0518  0.1032
  433loPI   C2A 6920   0.987  18.383   8.586  0.1821 -0.0806 -0.0902
  433loPI   C3A 6921   0.986  18.240   8.239 -0.1759 -0.1213  0.3367
  433loPI   C4A 6922   1.078  18.279   7.863  0.0786  0.0781  0.0568
  433loPI   C5A 6923   0.906  18.028   7.486 -0.0095 -0.1554  0.2091
  433loPI   C6A 6924   0.875  17.906   7.053 -0.0714 -0.0602  0.1922
  433loPI   C1B 6925   1.346  18.808   8.865 -0.1804  0.2634  0.0592
  433loPI   C2B 6926   1.362  18.693   8.420 -0.1547 -0.0732  0.2872
  433loPI   C3B 6927   1.519  18.648   8.073 -0.0742  0.0132 -0.1682
  433loPI   C4B 6928   1.597  18.571   7.534 -0.1933 -0.0095 -0.1171
  434loPI    C1 6929  13.663   9.192  10.532 -0.0137 -0.0044  0.0800
  434loPI    C2 6930  13.975   8.985  10.671 -0.0508 -0.1649 -0.0717
  434loPI    C3 6931  13.625   8.971  10.863  0.0510  0.0692  0.1368
  434loPI   PO4 6932  13.572   9.143  10.343 -0.0354 -0.2261  0.3068
  434loPI   GL1 6933  13.207   9.023  10.100  0.1128 -0.2675 -0.1750
  434loPI   GL2 6934  13.164   9.235  10.086  0.0459 -0.1071  0.1781
  434loPI   C1A 6935  13.314   8.808   9.676 -0.2219  0.1378  0.0868
  434loPI   C2A 6936  13.348   8.830   9.235  0.3579 -0.1195 -0.0519
  434loPI   C3A 6937  13.236   8.754   8.832 -0.3878 -0.2200  0.0455
  434loPI   C4A 6938  13.264   8.638   8.384  0.0721 -0.0635  0.0484
  434loPI   C5A 6939  13.399   8.534   8.042  0.0016  0.1606 -0.1102
  434loPI   C6A 6940  13.517   8.212   7.644 -0.1272  0.1778  0.4048
  434loPI   C1B 6941  13.218   9.286   9.665 -0.0081 -0.1407 -0.1361
  434loPI   C2B 6942  13.306   9.308   9.242  0.4530 -0.0286 -0.2148
  434loPI   C3B 6943  13.149   9.236   8.778  0.2735 -0.0070 -0.2237
  434loPI   C4B 6944  13.176   9.213   8.324  0.3946  0.3109  0.3078
  435loPI    C1 6945   2.191  11.472   9.944 -0.1651 -0.1348  0.1805
  435loPI    C2 6946   2.211  11.870   9.976 -0.0616 -0.1342  0.1132
  435loPI    C3 6947   2.223  11.642  10.304  0.0884 -0.0904  0.1390
  435loPI   PO4 6948   2.387  11.361   9.745 -0.0377  0.0567  0.2417
  435loPI   GL1 6949   2.549  11.131   9.394 -0.1170  0.1819  0.1422
  435loPI   GL2 6950   2.423  11.340   9.184  0.0987 -0.2821  0.2680
  435loPI   C1A 6951   2.567  10.876   8.945 -0.0049  0.1350  0.1138
  435loPI   C2A 6952   2.482  10.940   8.506  0.0695  0.1172  0.2356
  435loPI   C3A 6953   2.618  11.012   8.108 -0.1314  0.1884  0.1482
  435loPI   C4A 6954   2.555  11.079   7.670  0.0217  0.1260 -0.0224
  435loPI   C5A 6955   2.761  11.078   7.193 -0.3185  0.0693  0.1555
  435loPI   C6A 6956   3.066  11.382   7.003  0.2039 -0.3098  0.2050
  435loPI   C1B 6957   2.499  11.499   8.777 -0.1216  0.0070 -0.0180
  435loPI   C2B 6958   2.556  11.560   8.409  0.1207  0.0807  0.2832
  435loPI   C3B 6959   2.570  11.572   8.032  0.2771 -0.0162  0.2762
  435loPI   C4B 6960   2.510  11.551   7.612 -0.3962  0.0403 -0.3463
  436loPI    C1 6961   2.200  18.190  10.338 -0.3016  0.1554  0.0198
  436loPI    C2 6962   1.876  18.278  10.556 -0.3247 -0.2003  0.1343
  436loPI    C3 6963   2.102  17.961  10.651 -0.0312 -0.0479 -0.0409
  436loPI   PO4 6964   2.152  18.252  10.062  0.0188  0.3144 -0.1611
  436loPI   GL1 6965   2.058  18.603   9.795  0.3356 -0.0581 -0.4599
  436loPI   GL2 6966   2.330  18.653   9.839 -0.0747 -0.1318  0.1934
  436loPI   C1A 6967   2.067  18.671   9.418 -0.1260 -0.2374 -0.0469
  436loPI   C2A 6968   2.162  18.650   8.991 -0.1392  0.2028  0.3699
  436loPI   C3A 6969   2.245  18.839   8.589 -0.3254 -0.0234  0.0469
  436loPI   C4A 6970   2.395  18.891   8.130 -0.2828  0.1891  0.1261
  436loPI   C5A 6971   2.641  19.133   7.813  0.3145 -0.1313  0.2888
  436loPI   C6A 6972   2.749  19.088   7.507  0.0556 -0.1479  0.3277
  436loPI   C1B 6973   2.474  18.395   9.428  0.1480 -0.0540  0.0500
  436loPI   C2B 6974   2.594  18.404   8.980 -0.1188  0.1004 -0.1276
  436loPI   C3B 6975   2.478  18.351   8.591 -0.0662 -0.2635  0.0513
  436loPI   C4B 6976   2.553  18.355   8.144  0.1615 -0.0449 -0.5322
  437loPI    C1 6977  16.131   4.396   9.954  0.2865  0.3290 -0.0577
  437loPI    C2 6978  16.245   4.391  10.337 -0.3166 -0.1605  0.1314
  437loPI    C3 6979  15.976   4.659  10.212  0.0320  0.1327 -0.0063
  437loPI   PO4 6980  16.337   4.293   9.754  0.0099  0.0216 -0.1548
  437loPI   GL1 6981  16.281   4.108   9.346 -0.4773 -0.0774 -0.0628
  437loPI   GL2 6982  16.308   3.777   9.287 -0.0439 -0.0682  0.1174
  437loPI   C1A 6983  16.057   4.247   8.986 -0.4057 -0.2045 -0.1611
  437loPI   C2A 6984  15.793   4.433   8.645 -0.0351  0.0035  0.2100
  437loPI   C3A 6985  15.422   4.428   8.380 -0.0777 -0.0885 -0.0391
  437loPI   C4A 6986  15.345   4.411   7.954  0.0153  0.1665  0.2020
  437loPI   C5A 6987  15.460   4.314   7.507 -0.0130  0.0745  0.4951
  437loPI   C6A 6988  15.881   4.127   7.321  0.1596 -0.1980  0.0199
  437loPI   C1B 6989  16.186   3.829   8.801  0.0607 -0.1275  0.0330
  437loPI   C2B 6990  16.136   3.983   8.495  0.2651  0.1992 -0.2007
  437loPI   C3B 6991  16.103   4.230   8.168 -0.2424  0.1475  0.3933
  437loPI   C4B 6992  15.867   4.275   7.762 -0.1610 -0.2753 -0.0828
  438loPI    C1 6993   7.013  16.170  10.230 -0.0178  0.2472 -0.0571
  438loPI    C2 6994   7.215  15.839  10.326 -0.1779  0.1607 -0.0146
  438loPI    C3 6995   7.397  16.134  10.127 -0.0081  0.0884  0.0320
  438loPI   PO4 6996   6.702  16.044  10.199 -0.1362  0.1009 -0.3770
  438loPI   GL1 6997   6.574  15.857   9.809 -0.0486  0.2000  0.2995
  438loPI   GL2 6998   6.247  15.758   9.812 -0.2458 -0.1225 -0.0912
  438loPI   C1A 6999   6.816  15.718   9.473  0.3332  0.2264 -0.0429
  438loPI   C2A 7000   6.765  15.764   9.055 -0.0853  0.0861  0.2485
  438loPI   C3A 7001   6.779  15.851   8.633 -0.0578 -0.2775  0.0660
  438loPI   C4A 7002   6.744  16.081   8.178 -0.1969 -0.0469  0.1158
  438loPI   C5A 7003   6.464  16.156   7.815  0.1718 -0.1359 -0.2149
  438loPI   C6A 7004   6.347  15.960   7.426 -0.1742 -0.1479 -0.3206
  438loPI   C1B 7005   6.247  15.958   9.418 -0.0574 -0.1416  0.1256
  438loPI   C2B 7006   6.187  15.970   9.043  0.0772 -0.1081 -0.3827
  438loPI   C3B 7007   6.129  16.059   8.625  0.0975 -0.1018 -0.0049
  438loPI   C4B 7008   6.167  16.230   8.166  0.1148 -0.0048 -0.1797
  439loPI    C1 7009   8.785   6.733  11.059 -0.2692 -0.0674  0.2227
  439loPI    C2 7010   8.951   6.574  11.387 -0.0298  0.1936  0.2324
  439loPI    C3 7011   8.922   6.971  11.350  0.0047  0.1684 -0.0921
  439loPI   PO4 7012   8.967   6.655  10.844  0.3048  0.2153 -0.1381
  439loPI   GL1 7013   8.959   6.588  10.298  0.1321  0.3162 -0.3066
  439loPI   GL2 7014   9.129   6.298  10.120  0.0616  0.0310 -0.0260
  439loPI   C1A 7015   9.077   6.797  10.006 -0.0595  0.0656  0.0652
  439loPI   C2A 7016   9.010   6.854   9.644  0.1082  0.0278  0.3065
  439loPI   C3A 7017   8.939   6.830   9.226  0.1230  0.1148 -0.0604
  439loPI   C4A 7018   8.914   6.852   8.837  0.0036  0.0223 -0.0596
  439loPI   C5A 7019   8.923   6.974   8.416 -0.0100  0.3045  0.1820
  439loPI   C6A 7020   8.751   7.311   8.092 -0.3104 -0.0328  0.1015
  439loPI   C1B 7021   9.214   6.418   9.662  0.1854 -0.1171 -0.0281
  439loPI   C2B 7022   9.152   6.369   9.213  0.0575 -0.0385 -0.1280
  439loPI   C3B 7023   8.992   6.298   8.771  0.0741 -0.0289  0.0169
  439loPI   C4B 7024   8.957   6.345   8.408  0.3812  0.2088 -0.0059
  440loPI    C1 7025   5.658  14.137  10.583 -0.1232 -0.0370 -0.0547
  440loPI    C2 7026   5.441  14.406  10.785 -0.2083 -0.2824  0.1872
  440loPI    C3 7027   5.756  14.232  10.959  0.0219 -0.1297 -0.0687
  440loPI   PO4 7028   5.753  14.263  10.317 -0.0473  0.1966 -0.3244
  440loPI   GL1 7029   5.756  14.084   9.938 -0.1469 -0.0123  0.2439
  440loPI   GL2 7030   5.576  13.863   9.984 -0.2675  0.1660 -0.1763
  440loPI   C1A 7031   5.720  14.239   9.545 -0.2900 -0.1315 -0.2284
  440loPI   C2A 7032   5.636  14.115   9.143 -0.0456 -0.2521  0.1161
  440loPI   C3A 7033   5.705  14.247   8.806 -0.1824  0.0104  0.1455
  440loPI   C4A 7034   5.716  14.197   8.425  0.0405 -0.1287  0.1291
  440loPI   C5A 7035   5.809  14.271   8.040 -0.1865 -0.1611  0.0873
  440loPI   C6A 7036   6.059  14.320   7.799  0.0782  0.0307  0.1486
  440loPI   C1B 7037   5.375  13.819   9.508 -0.3005 -0.1301  0.1648
  440loPI   C2B 7038   5.120  13.789   9.121  0.0107 -0.1086 -0.0114
  440loPI   C3B 7039   5.261  13.878   8.742  0.0099  0.0288 -0.3481
  440loPI   C4B 7040   5.280  13.914   8.373  0.0284 -0.1627  0.1753
  441loPI    C1 7041   3.653   5.745  10.148 -0.3203  0.1156 -0.1334
  441loPI    C2 7042   3.572   5.640  10.526 -0.0734 -0.2155 -0.1684
  441loPI    C3 7043   3.551   5.368  10.234  0.0774 -0.0446 -0.3415
  441loPI   PO4 7044   3.877   5.752  10.097  0.1192  0.1120 -0.1461
  441loPI   GL1 7045   3.918   5.874   9.720 -0.1127  0.2591  0.0146
  441loPI   GL2 7046   4.326   5.925   9.759 -0.0432  0.1486 -0.0062
  441loPI   C1A 7047   3.948   5.752   9.335 -0.2339  0.0037  0.1183
  441loPI   C2A 7048   4.062   5.628   8.895  0.0931  0.0106 -0.1731
  441loPI   C3A 7049   4.092   5.573   8.452 -0.2839  0.1102 -0.0265
  441loPI   C4A 7050   4.096   5.496   7.875 -0.2929  0.3204 -0.1088
  441loPI   C5A 7051   3.744   5.509   7.592  0.1832  0.1900  0.2063
  441loPI   C6A 7052   3.630   5.249   7.207  0.0627  0.1261 -0.0512
  441loPI   C1B 7053   4.389   6.066   9.328  0.2961  0.1810  0.2212
  441loPI   C2B 7054   4.755   6.245   9.159 -0.3102 -0.1280 -0.0548
  441loPI   C3B 7055   4.872   6.283   8.750  0.2344  0.2584  0.0524
  441loPI   C4B 7056   4.867   6.395   8.363  0.3562 -0.3856 -0.0743
  442loPI    C1 7057  15.659   7.723   9.563  0.1079  0.1393 -0.1437
  442loPI    C2 7058  15.279   7.779   9.453  0.0959  0.3706  0.0090
  442loPI    C3 7059  15.381   7.800   9.839  0.1456 -0.3858  0.0514
  442loPI   PO4 7060  15.785   7.725   9.337 -0.1275  0.0991 -0.1280
  442loPI   GL1 7061  15.869   7.320   8.950  0.1564  0.0303  0.1073
  442loPI   GL2 7062  15.525   7.327   9.165 -0.0758  0.1467  0.2557
  442loPI   C1A 7063  15.942   7.088   8.567  0.1405  0.0363 -0.1952
  442loPI   C2A 7064  15.970   7.075   8.123 -0.1728  0.0448  0.1519
  442loPI   C3A 7065  15.916   7.059   7.690 -0.2169  0.1129  0.0344
  442loPI   C4A 7066  15.933   7.031   7.207 -0.2457  0.0752 -0.0423
  442loPI   C5A 7067  15.692   7.069   6.816  0.0550  0.1471  0.2634
  442loPI   C6A 7068  15.655   6.731   6.465 -0.2733 -0.1360  0.0841
  442loPI   C1B 7069  15.196   7.588   8.961 -0.2004 -0.1311  0.2448
  442loPI   C2B 7070  15.123   7.686   8.532 -0.1475  0.0978  0.2063
  442loPI   C3B 7071  15.063   7.602   8.062  0.0575  0.3192 -0.1330
  442loPI   C4B 7072  15.066   7.434   7.608 -0.0741  0.1711 -0.0838
  443loPI    C1 7073   1.137   6.094  10.000 -0.0702  0.1511 -0.1570
  443loPI    C2 7074   1.021   6.463  10.104 -0.1578  0.1967 -0.4087
  443loPI    C3 7075   1.041   6.174  10.380 -0.1703  0.3680 -0.2260
  443loPI   PO4 7076   1.419   6.142   9.879 -0.1875  0.1382 -0.2182
  443loPI   GL1 7077   1.478   6.121   9.463  0.3221  0.1304  0.1312
  443loPI   GL2 7078   1.650   5.842   9.389  0.1842 -0.0509  0.0010
  443loPI   C1A 7079   1.330   6.127   9.045 -0.2026  0.0740 -0.0393
  443loPI   C2A 7080   1.218   6.172   8.597  0.0800 -0.0631  0.2690
  443loPI   C3A 7081   1.228   6.169   8.102  0.2203  0.1245 -0.0392
  443loPI   C4A 7082   1.052   6.083   7.692  0.0273  0.0913  0.2531
  443loPI   C5A 7083   0.867   6.185   7.243  0.1684  0.3361  0.1001
  443loPI   C6A 7084   1.054   6.446   7.132  0.0313  0.1548  0.3041
  443loPI   C1B 7085   1.784   5.995   8.906  0.0600 -0.0801 -0.0771
  443loPI   C2B 7086   1.717   5.983   8.516  0.2803 -0.1057  0.2208
  443loPI   C3B 7087   1.716   6.050   8.066  0.3770 -0.0166  0.0741
  443loPI   C4B 7088   1.973   6.083   7.596 -0.0411 -0.1543 -0.1432
  444loPI    C1 7089  16.478  10.435   9.905  0.1143  0.1858  0.1419
  444loPI    C2 7090  16.636  10.125  10.103 -0.2647 -0.0082  0.1481
  444loPI    C3 7091  16.694  10.498  10.236  0.0649 -0.0851  0.2281
  444loPI   PO4 7092  16.449  10.526   9.652 -0.2201 -0.2362  0.1096
  444loPI   GL1 7093  16.576  10.389   9.269  0.0873 -0.1219 -0.1084
  444loPI   GL2 7094  16.512  10.115   9.190 -0.3161  0.0429  0.3253
  444loPI   C1A 7095  16.591  10.705   8.882  0.3074  0.0897 -0.0154
  444loPI   C2A 7096  16.247  10.779   8.667 -0.2292 -0.1283  0.0636
  444loPI   C3A 7097  16.240  10.811   8.226  0.0911 -0.0002  0.2001
  444loPI   C4A 7098  16.173  10.878   7.808  0.2248 -0.1977  0.1038
  444loPI   C5A 7099  15.808  10.937   7.519 -0.1721 -0.1115  0.0633
  444loPI   C6A 7100  15.496  10.693   7.316 -0.1276 -0.0168  0.5320
  444loPI   C1B 7101  16.249  10.278   8.858  0.2085  0.2700 -0.0878
  444loPI   C2B 7102  16.280  10.325   8.435 -0.1126  0.3077 -0.3178
  444loPI   C3B 7103  16.252  10.275   8.053  0.0178  0.0748 -0.1537
  444loPI   C4B 7104  16.362  10.300   7.595 -0.2245  0.0769 -0.2878
  445loPI    C1 7105   8.172  11.366  10.636 -0.2679  0.2235 -0.0568
  445loPI    C2 7106   7.821  11.546  10.700 -0.5272 -0.1406 -0.4102
  445loPI    C3 7107   7.845  11.147  10.705 -0.0474 -0.1160 -0.0683
  445loPI   PO4 7108   8.284  11.546  10.469  0.4201  0.1982 -0.1098
  445loPI   GL1 7109   8.437  11.530  10.108 -0.2025  0.1334  0.0484
  445loPI   GL2 7110   8.539  11.275  10.088 -0.0773 -0.1505  0.0122
  445loPI   C1A 7111   8.574  11.693   9.789  0.1964  0.2492 -0.1544
  445loPI   C2A 7112   8.480  11.758   9.468  0.1601  0.2848 -0.0325
  445loPI   C3A 7113   8.648  11.868   9.150  0.0224 -0.2181 -0.5179
  445loPI   C4A 7114   8.420  11.768   8.723  0.1905  0.1715  0.0428
  445loPI   C5A 7115   8.426  11.800   8.275  0.0735  0.0708  0.1974
  445loPI   C6A 7116   8.505  11.974   7.769 -0.1588 -0.1436  0.0777
  445loPI   C1B 7117   8.276  11.315   9.616 -0.1945  0.0366  0.1604
  445loPI   C2B 7118   8.105  11.417   9.265  0.3168 -0.0323  0.0588
  445loPI   C3B 7119   8.127  11.426   8.842 -0.0495 -0.0526 -0.3020
  445loPI   C4B 7120   7.939  11.593   8.518 -0.2340 -0.0159 -0.0667
  446loPI    C1 7121   3.382   6.650  10.160  0.1416  0.0511  0.0623
  446loPI    C2 7122   3.214   6.289  10.125  0.3548 -0.0406 -0.0316
  446loPI    C3 7123   3.096   6.537  10.415  0.0578 -0.1015 -0.0972
  446loPI   PO4 7124   3.626   6.591  10.008  0.2945  0.1094 -0.0642
  446loPI   GL1 7125   3.579   6.303   9.684 -0.0581 -0.2234 -0.1572
  446loPI   GL2 7126   3.462   6.101   9.756  0.1419 -0.2091 -0.0034
  446loPI   C1A 7127   3.745   6.236   9.341  0.4134 -0.0001 -0.1979
  446loPI   C2A 7128   3.987   6.148   8.959  0.0137  0.1755 -0.2512
  446loPI   C3A 7129   4.006   6.076   8.589 -0.0617  0.0645  0.2541
  446loPI   C4A 7130   3.862   6.091   8.122  0.1676  0.1001  0.1003
  446loPI   C5A 7131   3.675   6.224   7.747 -0.0025 -0.2829 -0.2825
  446loPI   C6A 7132   3.409   6.001   7.437  0.0806  0.1273 -0.1181
  446loPI   C1B 7133   3.411   5.830   9.304  0.2010  0.0024  0.0083
  446loPI   C2B 7134   3.553   5.760   8.945  0.1913  0.0258 -0.2560
  446loPI   C3B 7135   3.619   5.823   8.542  0.0774 -0.0467  0.0327
  446loPI   C4B 7136   3.661   5.614   8.101  0.0109 -0.0560 -0.0958
  447loPI    C1 7137   8.520  13.208  10.288  0.0095  0.0841  0.1365
  447loPI    C2 7138   8.506  13.569  10.116  0.0704  0.1300  0.2267
  447loPI    C3 7139   8.756  13.502  10.421  0.2559 -0.0650  0.0359
  447loPI   PO4 7140   8.517  13.056  10.130 -0.0391 -0.2897 -0.1639
  447loPI   GL1 7141   8.703  12.842   9.803 -0.0939  0.2016  0.1715
  447loPI   GL2 7142   8.954  12.532   9.701  0.0858 -0.0749 -0.1836
  447loPI   C1A 7143   8.814  13.151   9.496 -0.2077 -0.2095 -0.0441
  447loPI   C2A 7144   8.807  13.204   9.073  0.0255  0.0839  0.0336
  447loPI   C3A 7145   8.733  13.265   8.622  0.1234  0.5145  0.0650
  447loPI   C4A 7146   8.625  13.139   8.257 -0.0374  0.1155 -0.3885
  447loPI   C5A 7147   8.412  12.893   7.964  0.1112 -0.3655 -0.2216
  447loPI   C6A 7148   8.702  12.848   7.655 -0.2519  0.0939 -0.1642
  447loPI   C1B 7149   8.939  12.650   9.251 -0.2234  0.1081 -0.1768
  447loPI   C2B 7150   8.837  12.583   8.924  0.2236  0.2094 -0.0467
  447loPI   C3B 7151   8.754  12.586   8.526 -0.0582 -0.3067 -0.2055
  447loPI   C4B 7152   8.785  12.633   8.120  0.2469  0.2366 -0.1025
  448loPI    C1 7153   8.116   4.167  10.820 -0.0735  0.0402  0.2767
  448loPI    C2 7154   7.833   3.945  10.994 -0.0986  0.0212  0.2117
  448loPI    C3 7155   7.843   4.340  11.055 -0.1670  0.0284  0.1772
  448loPI   PO4 7156   8.143   4.034  10.561 -0.1075 -0.2131  0.1986
  448loPI   GL1 7157   8.160   4.008  10.125 -0.0814 -0.1653  0.2692
  448loPI   GL2 7158   8.409   4.105   9.974  0.1248 -0.0155  0.1154
  448loPI   C1A 7159   7.972   4.183   9.735 -0.1806 -0.2327 -0.0184
  448loPI   C2A 7160   8.010   4.268   9.272 -0.4088 -0.2755 -0.0066
  448loPI   C3A 7161   8.155   4.215   8.850 -0.3278 -0.0434  0.1051
  448loPI   C4A 7162   8.074   4.119   8.401 -0.0620  0.0042 -0.0917
  448loPI   C5A 7163   8.219   3.992   8.060  0.0550  0.0416 -0.0322
  448loPI   C6A 7164   8.590   3.924   7.750  0.0236 -0.0542 -0.2490
  448loPI   C1B 7165   8.589   3.966   9.591 -0.0688  0.0288 -0.2429
  448loPI   C2B 7166   8.592   4.060   9.078  0.0661  0.2382 -0.2751
  448loPI   C3B 7167   8.576   3.990   8.592 -0.1479  0.3583  0.1054
  448loPI   C4B 7168   8.588   4.190   8.245 -0.1997  0.0513  0.2343
  449loPI    C1 7169   9.172   9.435  11.015  0.1694  0.2043  0.0256
  449loPI    C2 7170   8.777   9.448  11.079  0.1637 -0.0033  0.0397
  449loPI    C3 7171   8.995   9.783  11.104  0.0306  0.0661  0.3004
  449loPI   PO4 7172   9.206   9.287  10.810  0.1301 -0.2416  0.0075
  449loPI   GL1 7173   8.903   9.273  10.504  0.4331 -0.2633 -0.2949
  449loPI   GL2 7174   8.892   9.018  10.361 -0.4508  0.0640 -0.1662
  449loPI   C1A 7175   8.989   9.593  10.217 -0.2790  0.1471  0.1122
  449loPI   C2A 7176   9.120   9.638   9.785 -0.1035  0.2210  0.2022
  449loPI   C3A 7177   9.019   9.682   9.271 -0.0074  0.3218 -0.0236
  449loPI   C4A 7178   9.009   9.763   8.835 -0.3765  0.0798  0.1548
  449loPI   C5A 7179   9.266   9.771   8.475  0.1958 -0.0216 -0.0714
  449loPI   C6A 7180   9.435  10.089   8.148  0.3086 -0.0174  0.0185
  449loPI   C1B 7181   8.977   9.116   9.952 -0.0234 -0.1331  0.1971
  449loPI   C2B 7182   9.060   9.192   9.497  0.0951 -0.3803 -0.0663
  449loPI   C3B 7183   8.972   9.234   9.016 -0.0371  0.2137 -0.0315
  449loPI   C4B 7184   9.065   9.243   8.572 -0.2645 -0.3951 -0.1314
  450loPI    C1 7185   8.571  14.557  10.384 -0.0402  0.0088 -0.0430
  450loPI    C2 7186   8.874  14.415  10.603  0.0742  0.1700 -0.0955
  450loPI    C3 7187   8.518  14.481  10.773 -0.0859 -0.5059 -0.1432
  450loPI   PO4 7188   8.650  14.411  10.139 -0.1853  0.0893  0.5018
  450loPI   GL1 7189   8.704  14.427   9.808  0.2005 -0.2450  0.2803
  450loPI   GL2 7190   9.009  14.489   9.739 -0.2618  0.1551  0.0123
  450loPI   C1A 7191   8.663  14.246   9.362 -0.0349  0.0473  0.4596
  450loPI   C2A 7192   8.550  14.251   8.887  0.2566 -0.0487  0.1366
  450loPI   C3A 7193   8.430  14.273   8.483  0.1004  0.3040  0.1507
  450loPI   C4A 7194   8.229  14.078   8.060 -0.1596 -0.1406 -0.0279
  450loPI   C5A 7195   8.402  14.063   7.710 -0.1056 -0.1257  0.2357
  450loPI   C6A 7196   8.788  14.320   7.601 -0.0436  0.0830  0.1527
  450loPI   C1B 7197   9.029  14.679   9.375 -0.0279  0.2280 -0.2990
  450loPI   C2B 7198   8.911  14.551   8.908 -0.0750 -0.0319  0.2460
  450loPI   C3B 7199   8.837  14.599   8.479 -0.1934  0.1167 -0.0706
  450loPI   C4B 7200   8.856  14.640   8.024 -0.0407  0.1855  0.0063
  451loPI    C1 7201  10.861   3.428  10.717 -0.0799  0.0043 -0.1461
  451loPI    C2 7202  10.739   3.667  11.013  0.0422 -0.1580  0.0380
  451loPI    C3 7203  11.129   3.627  10.938  0.0082 -0.0457 -0.2073
  451loPI   PO4 7204  10.678   3.417  10.581 -0.1569 -0.1812 -0.0782
  451loPI   GL1 7205  10.359   3.286  10.291  0.1312 -0.0798  0.3061
  451loPI   GL2 7206  10.135   3.492  10.319 -0.0774  0.0383  0.2665
  451loPI   C1A 7207  10.561   3.166   9.853 -0.2448 -0.2555  0.0728
  451loPI   C2A 7208  10.588   3.305   9.472  0.0864 -0.3177 -0.0182
  451loPI   C3A 7209  10.563   3.217   9.072  0.1560  0.0421 -0.5793
  451loPI   C4A 7210  10.602   3.287   8.615 -0.1750 -0.0595  0.4017
  451loPI   C5A 7211  10.434   3.000   8.296  0.0944 -0.0844  0.0474
  451loPI   C6A 7212  10.052   3.173   8.146  0.0289 -0.0209 -0.6344
  451loPI   C1B 7213  10.139   3.539   9.851  0.0297  0.0760  0.0227
  451loPI   C2B 7214  10.060   3.356   9.440  0.1229  0.0060 -0.0175
  451loPI   C3B 7215  10.051   3.427   9.125  0.1111 -0.1062 -0.1622
  451loPI   C4B 7216  10.057   3.523   8.753  0.0420  0.2320 -0.0079
  452loPI    C1 7217  13.111   5.007   9.972  0.1029  0.0158 -0.3262
  452loPI    C2 7218  13.126   4.676  10.196 -0.0107  0.0502 -0.2673
  452loPI    C3 7219  13.368   4.714   9.880 -0.0111 -0.0976 -0.2865
  452loPI   PO4 7220  12.925   5.085   9.944  0.1961 -0.1021 -0.0983
  452loPI   GL1 7221  12.631   5.243   9.689  0.1270  0.0771  0.1839
  452loPI   GL2 7222  12.525   5.528   9.550  0.2627 -0.0297  0.1532
  452loPI   C1A 7223  12.623   5.060   9.274 -0.1309  0.2447  0.0463
  452loPI   C2A 7224  12.620   5.065   8.866 -0.0414 -0.0463 -0.0155
  452loPI   C3A 7225  12.596   5.099   8.361 -0.1682  0.1420 -0.0453
  452loPI   C4A 7226  12.465   5.063   7.902 -0.0469  0.2167 -0.2044
  452loPI   C5A 7227  12.409   5.107   7.532  0.2529  0.1546  0.0496
  452loPI   C6A 7228  12.494   5.132   7.086 -0.0181  0.2424 -0.0916
  452loPI   C1B 7229  12.425   5.547   9.111 -0.1679  0.3136 -0.0430
  452loPI   C2B 7230  12.528   5.535   8.697 -0.1838  0.3537  0.3473
  452loPI   C3B 7231  12.484   5.612   8.261  0.0059  0.0354  0.0599
  452loPI   C4B 7232  12.693   5.958   8.028 -0.0650 -0.2080 -0.1307
  453loPI    C1 7233   6.510  12.170  10.265 -0.0460 -0.3531  0.0965
  453loPI    C2 7234   6.607  12.326  10.620 -0.0240 -0.4185  0.1192
  453loPI    C3 7235   6.248  12.158  10.568 -0.1407 -0.1449  0.0244
  453loPI   PO4 7236   6.716  12.014  10.174 -0.1915 -0.1639 -0.4322
  453loPI   GL1 7237   6.896  11.836   9.823  0.0152  0.1650  0.1349
  453loPI   GL2 7238   7.106  12.120   9.736  0.0652  0.0388  0.1195
  453loPI   C1A 7239   6.627  11.962   9.423 -0.1894  0.1781  0.0884
  453loPI   C2A 7240   6.589  11.922   8.989 -0.1731  0.0323 -0.0646
  453loPI   C3A 7241   6.481  12.014   8.568 -0.0783  0.2603 -0.1616
  453loPI   C4A 7242   6.367  11.874   8.184 -0.1720 -0.0330  0.2852
  453loPI   C5A 7243   6.366  11.989   7.765  0.1393  0.1199 -0.0322
  453loPI   C6A 7244   6.575  12.038   7.432 -0.2346 -0.1881 -0.0054
  453loPI   C1B 7245   7.051  12.297   9.370  0.1043 -0.0936 -0.2521
  453loPI   C2B 7246   7.024  12.315   8.929 -0.3418 -0.4056 -0.1656
  453loPI   C3B 7247   6.888  12.280   8.505  0.1977 -0.1667 -0.0079
  453loPI   C4B 7248   7.006  12.384   8.151 -0.0075  0.0501  0.1939
  454loPI    C1 7249   5.062  12.016  10.395 -0.0411  0.0900  0.1017
  454loPI    C2 7250   5.155  12.012  10.784  0.2803 -0.0011  0.0270
  454loPI    C3 7251   4.778  11.949  10.668  0.2726 -0.5099  0.2997
  454loPI   PO4 7252   5.101  12.245  10.315  0.0995  0.2498 -0.2598
  454loPI   GL1 7253   4.976  12.378   9.885  0.0045  0.0013  0.3914
  454loPI   GL2 7254   4.871  12.132   9.691  0.2341  0.0439  0.1165
  454loPI   C1A 7255   5.207  12.507   9.544  0.2262  0.0077  0.1993
  454loPI   C2A 7256   5.215  12.479   9.145  0.1898 -0.1567  0.1250
  454loPI   C3A 7257   5.115  12.531   8.721 -0.0748 -0.1351  0.1174
  454loPI   C4A 7258   5.115  12.531   8.289  0.1255  0.2693 -0.2954
  454loPI   C5A 7259   5.086  12.451   7.893 -0.1148 -0.0762 -0.0693
  454loPI   C6A 7260   5.131  12.655   7.563 -0.0048 -0.1774  0.1376
  454loPI   C1B 7261   4.799  12.254   9.325 -0.3175 -0.0502  0.3349
  454loPI   C2B 7262   4.714  12.169   8.923  0.0453  0.1032 -0.0207
  454loPI   C3B 7263   4.710  12.231   8.506 -0.0293 -0.0201 -0.1991
  454loPI   C4B 7264   4.694  12.253   8.061 -0.2447  0.3167  0.0364
  455loPI    C1 7265  16.281   0.014   9.539 -0.1234 -0.0658  0.2613
  455loPI    C2 7266  16.099   0.366   9.593 -0.2176 -0.0989  0.1649
  455loPI    C3 7267  16.244   0.164   9.907  0.0333  0.1294  0.1992
  455loPI   PO4 7268  16.341  -0.034   9.284 -0.0746 -0.0490  0.0538
  455loPI   GL1 7269  16.274  -0.297   8.943  0.1735  0.2184  0.0854
  455loPI   GL2 7270  15.986  -0.439   9.054  0.1023  0.2549 -0.0164
  455loPI   C1A 7271  16.062  -0.270   8.500 -0.0907  0.1174  0.0590
  455loPI   C2A 7272  15.783  -0.326   8.182 -0.0704 -0.0241 -0.0813
  455loPI   C3A 7273  15.550  -0.439   7.895  0.2108  0.0729 -0.0877
  455loPI   C4A 7274  15.499  -0.794   7.633 -0.2607  0.1207  0.1582
  455loPI   C5A 7275  15.622  -1.090   7.205 -0.0211 -0.2849 -0.3370
  455loPI   C6A 7276  15.989  -1.333   7.116  0.0931  0.0212 -0.2345
  455loPI   C1B 7277  15.647  -0.345   8.938 -0.1198 -0.3709  0.3834
  455loPI   C2B 7278  15.539  -0.188   8.602 -0.2262 -0.3297 -0.0753
  455loPI   C3B 7279  15.328  -0.279   8.319  0.3195 -0.3132  0.0293
  455loPI   C4B 7280  15.033  -0.384   8.004  0.0728 -0.0857  0.2238
  456loPI    C1 7281   8.845   6.194  10.725 -0.1216  0.0480 -0.0754
  456loPI    C2 7282   8.829   5.897  10.992 -0.1250 -0.0158 -0.1463
  456loPI    C3 7283   8.703   6.262  11.093 -0.1383 -0.0426 -0.0647
  456loPI   PO4 7284   8.829   6.102  10.522  0.0868  0.0813  0.0864
  456loPI   GL1 7285   9.068   5.787  10.166 -0.4799  0.0926 -0.2226
  456loPI   GL2 7286   8.836   5.900  10.049 -0.1233  0.0300 -0.1958
  456loPI   C1A 7287   9.257   5.760   9.761  0.0015  0.0727 -0.1625
  456loPI   C2A 7288   9.242   5.641   9.413  0.3115 -0.1291 -0.0610
  456loPI   C3A 7289   9.192   5.813   8.985  0.2432  0.3432 -0.1593
  456loPI   C4A 7290   9.102   5.869   8.588  0.2145  0.0918 -0.0385
  456loPI   C5A 7291   8.903   5.829   8.119 -0.0057  0.0918 -0.0317
  456loPI   C6A 7292   8.832   5.870   7.748 -0.2271  0.0377  0.1914
  456loPI   C1B 7293   8.791   5.895   9.641  0.0474 -0.0610 -0.2343
  456loPI   C2B 7294   8.786   5.916   9.193 -0.0196 -0.1794 -0.2290
  456loPI   C3B 7295   8.628   6.003   8.917 -0.1854 -0.1234  0.0525
  456loPI   C4B 7296   8.579   5.904   8.527 -0.1198 -0.1749  0.1886
  457loPI    C1 7297  14.850  17.847   9.806  0.1337 -0.1964  0.0542
  457loPI    C2 7298  14.712  17.995  10.151  0.0930 -0.1174  0.0042
  457loPI    C3 7299  15.104  18.002  10.073  0.0955 -0.0746  0.0204
  457loPI   PO4 7300  14.670  17.938   9.635  0.2716  0.0696  0.1634
  457loPI   GL1 7301  14.388  18.080   9.329  0.0655 -0.0405  0.1006
  457loPI   GL2 7302  14.562  18.330   9.227  0.2546  0.1220  0.3751
  457loPI   C1A 7303  14.235  18.200   8.903  0.3988 -0.0915 -0.0704
  457loPI   C2A 7304  14.193  18.134   8.451 -0.1454  0.0273  0.1246
  457loPI   C3A 7305  14.179  18.128   7.981 -0.1934 -0.0100 -0.1287
  457loPI   C4A 7306  14.081  18.025   7.520 -0.0786 -0.0441 -0.0583
  457loPI   C5A 7307  14.212  17.790   7.112 -0.0303 -0.1523  0.0471
  457loPI   C6A 7308  14.006  17.693   6.718  0.0466  0.1684  0.1170
  457loPI   C1B 7309  14.733  18.357   8.814 -0.2374  0.1034 -0.4171
  457loPI   C2B 7310  14.509  18.514   8.435 -0.0464  0.2393  0.0398
  457loPI   C3B 7311  14.541  18.634   7.919 -0.1312 -0.0941 -0.1038
  457loPI   C4B 7312  14.845  18.855   7.678 -0.0423  0.1395 -0.0059
  458loPI    C1 7313  11.300  12.827  10.595  0.3748  0.0613 -0.0284
  458loPI    C2 7314  11.421  12.665  10.940 -0.0288 -0.1395  0.0247
  458loPI    C3 7315  11.116  12.923  10.936  0.0131 -0.0913 -0.1754
  458loPI   PO4 7316  11.616  12.929  10.492 -0.1469  0.1336  0.0178
  458loPI   GL1 7317  11.750  12.717  10.104  0.0307 -0.0182 -0.3560
  458loPI   GL2 7318  11.437  12.668  10.062  0.0499  0.0120 -0.1050
  458loPI   C1A 7319  11.726  12.821   9.635  0.0905  0.0754  0.1503
  458loPI   C2A 7320  11.609  12.787   9.182 -0.1178 -0.0913  0.1082
  458loPI   C3A 7321  11.482  12.793   8.715  0.5032  0.2068  0.1792
  458loPI   C4A 7322  11.497  12.795   8.269 -0.0533 -0.2841 -0.1889
  458loPI   C5A 7323  11.461  12.616   7.923  0.2011 -0.1161 -0.2853
  458loPI   C6A 7324  11.570  12.367   7.676 -0.3144 -0.1915 -0.0843
  458loPI   C1B 7325  11.374  12.485   9.653  0.0269 -0.1569  0.4034
  458loPI   C2B 7326  11.256  12.447   9.145 -0.1108 -0.0571  0.4272
  458loPI   C3B 7327  11.082  12.438   8.770 -0.0445  0.0124  0.0893
  458loPI   C4B 7328  11.140  12.386   8.301  0.0973 -0.2118 -0.1458
  459loPI    C1 7329   6.804   2.247  10.322  0.0515  0.0653  0.0296
  459loPI    C2 7330   6.546   2.553  10.320  0.0317  0.0490  0.0776
  459loPI    C3 7331   6.578   2.320  10.644  0.1284  0.0694  0.0830
  459loPI   PO4 7332   6.907   2.085  10.103  0.2000  0.3573 -0.0398
  459loPI   GL1 7333   6.998   1.962   9.678 -0.1701 -0.2956 -0.3919
  459loPI   GL2 7334   6.819   1.749   9.510 -0.2515 -0.0207 -0.1622
  459loPI   C1A 7335   7.143   2.114   9.315  0.0395  0.0952 -0.2172
  459loPI   C2A 7336   7.121   2.122   8.823 -0.0797 -0.0234  0.1495
  459loPI   C3A 7337   7.016   2.184   8.335 -0.1247 -0.0066  0.1828
  459loPI   C4A 7338   7.015   2.203   7.961 -0.2272 -0.0142 -0.0895
  459loPI   C5A 7339   6.748   2.514   7.635  0.1549  0.0860 -0.4214
  459loPI   C6A 7340   6.659   2.663   7.236 -0.1089 -0.1677 -0.0147
  459loPI   C1B 7341   6.737   1.838   9.074  0.2521 -0.1894 -0.3268
  459loPI   C2B 7342   6.776   1.831   8.657  0.2439 -0.0792 -0.1574
  459loPI   C3B 7343   6.706   1.721   8.261  0.3477  0.0860 -0.0003
  459loPI   C4B 7344   6.693   1.559   7.772 -0.2686 -0.1869  0.1560
  460loPI    C1 7345  17.418   2.362   9.730 -0.0022 -0.1413  0.5081
  460loPI    C2 7346  17.115   2.619   9.688  0.1679 -0.0385 -0.2354
  460loPI    C3 7347  17.464   2.744   9.836  0.0043 -0.0435  0.1668
  460loPI   PO4 7348  17.459   2.187   9.535  0.1614  0.0043  0.0165
  460loPI   GL1 7349  17.448   2.218   9.097  0.0223 -0.0104 -0.0035
  460loPI   GL2 7350  17.210   2.043   8.892  0.0710 -0.0856 -0.1956
  460loPI   C1A 7351  17.772   2.081   8.813 -0.2749 -0.0955  0.3286
  460loPI   C2A 7352  17.776   2.110   8.365  0.1715 -0.4888  0.0780
  460loPI   C3A 7353  17.848   2.156   7.939 -0.1805  0.1260  0.2616
  460loPI   C4A 7354  17.585   2.427   7.751 -0.1926  0.2293 -0.0049
  460loPI   C5A 7355  17.300   2.440   7.357 -0.0428 -0.1546 -0.0580
  460loPI   C6A 7356  17.096   2.746   7.082 -0.1363 -0.5915 -0.1070
  460loPI   C1B 7357  17.367   2.341   8.594 -0.1161 -0.1091 -0.2265
  460loPI   C2B 7358  17.320   2.200   8.168  0.0468 -0.2374 -0.2032
  460loPI   C3B 7359  17.083   2.178   7.776  0.0272  0.2645 -0.1442
  460loPI   C4B 7360  16.814   2.236   7.330 -0.2999 -0.1048  0.4803
  461loPI    C1 7361   3.175   9.652   9.817 -0.0851  0.2026  0.0151
  461loPI    C2 7362   3.134   9.604  10.211  0.0984  0.1260  0.0259
  461loPI    C3 7363   2.853   9.799  10.004 -0.0303  0.1108  0.1834
  461loPI   PO4 7364   3.423   9.579   9.755 -0.0611  0.3796 -0.0493
  461loPI   GL1 7365   3.784   9.605   9.409  0.2876  0.2232  0.0947
  461loPI   GL2 7366   3.727   9.725   9.172 -0.3373  0.0601 -0.1599
  461loPI   C1A 7367   4.121   9.419   9.181 -0.1928  0.0147  0.0460
  461loPI   C2A 7368   4.347   9.365   8.985 -0.1053 -0.0822  0.4642
  461loPI   C3A 7369   4.309   9.396   8.717 -0.0749  0.3042  0.4549
  461loPI   C4A 7370   4.302   9.373   8.219  0.0324  0.1035 -0.1388
  461loPI   C5A 7371   4.400   9.425   7.893  0.0618  0.0602  0.1077
  461loPI   C6A 7372   4.484   9.215   7.529 -0.3053 -0.2070 -0.0138
  461loPI   C1B 7373   3.825   9.571   8.771  0.1097 -0.1041 -0.0807
  461loPI   C2B 7374   3.831   9.536   8.361  0.2081  0.1101  0.2517
  461loPI   C3B 7375   3.810   9.608   7.867 -0.2727 -0.1896  0.3535
  461loPI   C4B 7376   3.981   9.383   7.540 -0.0486 -0.2244 -0.0440
  462loPI    C1 7377   8.091   9.988  10.672 -0.0639 -0.1936  0.0359
  462loPI    C2 7378   8.076   9.783  11.015 -0.1567 -0.0836  0.0985
  462loPI    C3 7379   8.061  10.182  11.021 -0.1693 -0.0818 -0.0347
  462loPI   PO4 7380   7.904   9.988  10.542 -0.1739  0.1352 -0.0027
  462loPI   GL1 7381   7.966  10.002  10.125  0.2857 -0.2286 -0.6347
  462loPI   GL2 7382   8.213   9.793  10.095 -0.0971 -0.1619 -0.1053
  462loPI   C1A 7383   7.856  10.100   9.724  0.1038  0.1251 -0.0536
  462loPI   C2A 7384   7.866  10.118   9.346 -0.1614  0.1436  0.3909
  462loPI   C3A 7385   7.954  10.061   8.894 -0.0842 -0.4046  0.1186
  462loPI   C4A 7386   7.874  10.141   8.458 -0.1383  0.0253 -0.0164
  462loPI   C5A 7387   7.965  10.111   8.072 -0.1323 -0.1210  0.2057
  462loPI   C6A 7388   7.923   9.986   7.698  0.0603  0.1419 -0.2005
  462loPI   C1B 7389   8.469   9.836   9.736 -0.0295  0.0558 -0.0926
  462loPI   C2B 7390   8.468   9.836   9.307 -0.1859  0.3433 -0.2323
  462loPI   C3B 7391   8.415   9.875   8.945  0.4250 -0.1576 -0.2851
  462loPI   C4B 7392   8.310   9.910   8.513 -0.1645  0.0899  0.2597
  463loPI    C1 7393   9.352  11.470  10.518  0.0036  0.1708  0.1209
  463loPI    C2 7394   9.552  11.667  10.803  0.0615 -0.0074  0.2049
  463loPI    C3 7395   9.155  11.704  10.775  0.0802  0.1785  0.1734
  463loPI   PO4 7396   9.469  11.542  10.238  0.1981 -0.0081  0.0092
  463loPI   GL1 7397   9.645  11.835  10.056  0.2394  0.0958  0.0328
  463loPI   GL2 7398   9.622  12.182  10.025  0.3000 -0.3146  0.1615
  463loPI   C1A 7399   9.702  11.574   9.619  0.0438 -0.1323 -0.0612
  463loPI   C2A 7400   9.543  11.477   9.138 -0.1723  0.0495  0.1342
  463loPI   C3A 7401   9.420  11.516   8.740  0.2593 -0.0513  0.2511
  463loPI   C4A 7402   9.478  11.449   8.284 -0.0003  0.2047  0.1377
  463loPI   C5A 7403   9.725  11.504   7.966 -0.4595  0.1302 -0.3459
  463loPI   C6A 7404   9.823  11.214   7.585 -0.1724  0.0759  0.0674
  463loPI   C1B 7405   9.418  12.114   9.588  0.3617  0.0563 -0.2194
  463loPI   C2B 7406   9.520  12.012   9.252  0.0556  0.2518 -0.0683
  463loPI   C3B 7407   9.464  12.002   8.838  0.0880 -0.1466 -0.1367
  463loPI   C4B 7408   9.348  12.006   8.487  0.2040  0.1002  0.0963
  464loPI    C1 7409  13.267  16.964  10.007  0.0682  0.1245 -0.0526
  464loPI    C2 7410  12.967  16.836  10.240  0.0919 -0.1240 -0.1550
  464loPI    C3 7411  13.346  16.781  10.354  0.1015  0.0190 -0.1154
  464loPI   PO4 7412  13.214  16.936   9.788  0.0890 -0.0842 -0.3800
  464loPI   GL1 7413  13.113  17.048   9.402  0.2472  0.1557 -0.1840
  464loPI   GL2 7414  12.821  17.133   9.311  0.3416  0.1330 -0.0233
  464loPI   C1A 7415  13.173  17.061   9.012 -0.1980 -0.3235 -0.1810
  464loPI   C2A 7416  13.077  16.983   8.578  0.2363  0.3492 -0.2029
  464loPI   C3A 7417  12.953  17.018   8.135  0.0145 -0.0014  0.1113
  464loPI   C4A 7418  12.876  17.197   7.635 -0.0971  0.0204  0.0744
  464loPI   C5A 7419  12.943  17.449   7.303 -0.2121 -0.1658  0.1413
  464loPI   C6A 7420  13.015  17.600   6.851 -0.1557 -0.1145  0.0188
  464loPI   C1B 7421  12.653  17.197   8.945 -0.2215 -0.1974  0.2293
  464loPI   C2B 7422  12.597  17.113   8.604 -0.0027  0.1768 -0.0177
  464loPI   C3B 7423  12.466  17.152   8.159  0.1097 -0.1106 -0.1360
  464loPI   C4B 7424  12.367  17.265   7.769 -0.2794 -0.0290 -0.3283
  465loPI    C1 7425   1.208   9.324  10.034 -0.1477  0.0437  0.2666
  465loPI    C2 7426   1.451   9.035  10.166  0.0609  0.0642 -0.0598
  465loPI    C3 7427   1.451   9.393  10.344 -0.0052 -0.0513  0.1775
  465loPI   PO4 7428   1.252   9.300   9.713  0.0867  0.0418 -0.3594
  465loPI   GL1 7429   1.071   9.069   9.425 -0.0174 -0.4275 -0.0368
  465loPI   GL2 7430   0.982   8.826   9.368 -0.0569  0.0946 -0.4728
  465loPI   C1A 7431   0.969   9.112   9.015  0.1541  0.1750 -0.1109
  465loPI   C2A 7432   0.992   9.088   8.524  0.0638  0.0123  0.2348
  465loPI   C3A 7433   1.044   8.991   8.230 -0.1091  0.0402 -0.1792
  465loPI   C4A 7434   0.950   8.968   7.852  0.1224  0.1196  0.4426
  465loPI   C5A 7435   0.947   9.199   7.440  0.1942  0.3927  0.0111
  465loPI   C6A 7436   1.159   8.935   6.981  0.1158  0.0103  0.2033
  465loPI   C1B 7437   1.083   8.590   8.991 -0.3438  0.2086 -0.1304
  465loPI   C2B 7438   1.155   8.521   8.601  0.2276  0.1047  0.1828
  465loPI   C3B 7439   1.066   8.450   8.163 -0.1542 -0.0852  0.0296
  465loPI   C4B 7440   0.962   8.285   7.776 -0.5703  0.2768  0.1956
  466loPI    C1 7441   0.510   0.085   9.650  0.0802 -0.0480  0.0544
  466loPI    C2 7442   0.298  -0.112   9.926  0.0605  0.1168  0.1585
  466loPI    C3 7443   0.554   0.174  10.038  0.2036  0.0444  0.0196
  466loPI   PO4 7444   0.388   0.131   9.482 -0.0299 -0.0058 -0.1519
  466loPI   GL1 7445   0.234   0.050   9.034 -0.2597 -0.0433  0.2176
  466loPI   GL2 7446   0.177   0.339   8.997 -0.0504 -0.1872 -0.4741
  466loPI   C1A 7447   0.347   0.111   8.499  0.0232  0.2439  0.1421
  466loPI   C2A 7448   0.478   0.118   8.089  0.0380  0.0361 -0.1360
  466loPI   C3A 7449   0.660   0.121   7.611  0.2714 -0.1274 -0.1166
  466loPI   C4A 7450   0.829   0.131   7.165 -0.0945  0.2091 -0.1989
  466loPI   C5A 7451   1.188  -0.109   7.038 -0.2732  0.0652  0.0426
  466loPI   C6A 7452   1.378  -0.341   6.653 -0.0104 -0.1320 -0.2025
  466loPI   C1B 7453  -0.152   0.334   8.698 -0.1885  0.1390  0.1538
  466loPI   C2B 7454  -0.344   0.224   8.254  0.2952 -0.2050 -0.2425
  466loPI   C3B 7455  -0.045   0.205   7.975  0.0780 -0.2252  0.1655
  466loPI   C4B 7456   0.115   0.394   7.580 -0.0214 -0.1170 -0.3005
  467loPI    C1 7457  13.342  14.458  10.450 -0.1242 -0.0092  0.1026
  467loPI    C2 7458  13.091  14.173  10.323 -0.1030  0.0348 -0.0405
  467loPI    C3 7459  12.976  14.428  10.609 -0.1131 -0.1320  0.1062
  467loPI   PO4 7460  13.467  14.515  10.227  0.4004  0.0963 -0.0269
  467loPI   GL1 7461  13.251  14.500   9.872  0.0623 -0.0948 -0.3593
  467loPI   GL2 7462  13.106  14.334   9.710  0.3070  0.0487  0.2965
  467loPI   C1A 7463  13.464  14.635   9.442  0.1716 -0.2695  0.2327
  467loPI   C2A 7464  13.243  14.599   9.076 -0.0280  0.0979  0.1593
  467loPI   C3A 7465  13.148  14.610   8.663 -0.2151 -0.2820  0.0864
  467loPI   C4A 7466  12.991  14.578   8.444 -0.0290 -0.0870 -0.2872
  467loPI   C5A 7467  13.109  14.492   8.124  0.0355  0.0493  0.1231
  467loPI   C6A 7468  13.171  14.334   7.665  0.1365  0.2446  0.0572
  467loPI   C1B 7469  12.975  14.663   9.514 -0.1272  0.1183  0.0020
  467loPI   C2B 7470  12.790  14.828   9.156 -0.1210 -0.0607 -0.0929
  467loPI   C3B 7471  12.631  14.817   8.752 -0.1659  0.2076 -0.4421
  467loPI   C4B 7472  12.538  14.701   8.289 -0.1647  0.0364 -0.0534
  468loPI    C1 7473  17.617  15.474   9.653  0.1761 -0.1503  0.1193
  468loPI    C2 7474  17.376  15.664   9.910  0.2355 -0.0126  0.0745
  468loPI    C3 7475  17.551  15.320  10.016 -0.1928 -0.2568  0.0109
  468loPI   PO4 7476  17.544  15.458   9.442 -0.4550 -0.3783  0.0685
  468loPI   GL1 7477  17.590  15.205   9.082 -0.0313 -0.1658  0.0562
  468loPI   GL2 7478  17.788  15.433   9.025 -0.4147  0.0777 -0.0045
  468loPI   C1A 7479  17.417  15.455   8.734 -0.1091  0.2323  0.1602
  468loPI   C2A 7480  17.320  15.347   8.334 -0.1735  0.3233 -0.1944
  468loPI   C3A 7481  17.177  15.375   7.946 -0.5543  0.1759 -0.2603
  468loPI   C4A 7482  17.146  15.381   7.501  0.0036  0.2048 -0.1195
  468loPI   C5A 7483  17.384  15.456   7.194  0.3686 -0.3586 -0.1636
  468loPI   C6A 7484  17.746  15.265   6.987 -0.0767 -0.2589  0.1360
  468loPI   C1B 7485  17.768  15.802   8.645  0.3867 -0.1836 -0.2551
  468loPI   C2B 7486  17.659  15.793   8.211 -0.0072  0.0752  0.1230
  468loPI   C3B 7487  17.519  15.704   7.756 -0.0529  0.0009 -0.2378
  468loPI   C4B 7488  17.346  15.955   7.335 -0.2686  0.0058 -0.2430
  469loPI    C1 7489  13.383   2.207  10.391  0.0196  0.0600  0.0390
  469loPI    C2 7490  13.063   2.448  10.407 -0.1970 -0.2256  0.0856
  469loPI    C3 7491  13.309   2.421  10.721  0.0443  0.2188 -0.0573
  469loPI   PO4 7492  13.482   2.257  10.086 -0.0449 -0.0832  0.1229
  469loPI   GL1 7493  13.491   2.184   9.636  0.1415  0.1907  0.1433
  469loPI   GL2 7494  13.238   1.975   9.761 -0.0844  0.2270 -0.1497
  469loPI   C1A 7495  13.507   2.395   9.179 -0.2016  0.5221  0.2936
  469loPI   C2A 7496  13.517   2.345   8.791 -0.2524  0.0057  0.1510
  469loPI   C3A 7497  13.510   2.392   8.354  0.4490  0.1382  0.2105
  469loPI   C4A 7498  13.437   2.347   7.899  0.1350 -0.2769  0.1125
  469loPI   C5A 7499  13.120   2.336   7.623  0.2537  0.1264 -0.1512
  469loPI   C6A 7500  12.940   2.676   7.540  0.2286 -0.1710 -0.0259
  469loPI   C1B 7501  13.187   1.997   9.243  0.0067 -0.0216 -0.1150
  469loPI   C2B 7502  13.158   1.984   8.796  0.2344 -0.2826 -0.1264
  469loPI   C3B 7503  13.060   1.874   8.425 -0.0305  0.1380 -0.0783
  469loPI   C4B 7504  12.991   1.870   7.987  0.0675  0.0419  0.2774
  470loPI    C1 7505  10.346   7.182  10.798  0.3719  0.0284 -0.0633
  470loPI    C2 7506  10.289   7.533  10.982  0.2634 -0.0898  0.1324
  470loPI    C3 7507  10.159   7.195  11.151  0.2482 -0.2120 -0.1180
  470loPI   PO4 7508  10.236   7.244  10.500 -0.0694  0.1277  0.1190
  470loPI   GL1 7509  10.170   6.930  10.048 -0.2254  0.0574  0.1926
  470loPI   GL2 7510   9.863   7.073  10.228 -0.0827  0.0574  0.1652
  470loPI   C1A 7511   9.961   7.024   9.644  0.1822 -0.0972 -0.0352
  470loPI   C2A 7512   9.985   6.883   9.271  0.4120  0.2154 -0.0933
  470loPI   C3A 7513   9.927   6.929   8.818 -0.2156  0.3546 -0.1312
  470loPI   C4A 7514   9.987   6.926   8.361  0.1672  0.2532 -0.0094
  470loPI   C5A 7515   9.761   6.906   7.979 -0.2345 -0.1830  0.0480
  470loPI   C6A 7516   9.496   6.873   7.584  0.3406 -0.2939  0.0354
  470loPI   C1B 7517  10.002   7.472   9.868  0.3244 -0.0033  0.2563
  470loPI   C2B 7518   9.811   7.498   9.398 -0.0208  0.0262  0.1674
  470loPI   C3B 7519   9.882   7.454   8.974 -0.1654  0.1684  0.1241
  470loPI   C4B 7520   9.760   7.297   8.526 -0.3292 -0.1939  0.0302
  471loPI    C1 7521   3.743  11.619  10.314 -0.0456 -0.0899  0.1574
  471loPI    C2 7522   3.731  12.007  10.411  0.0915 -0.0651  0.0771
  471loPI    C3 7523   3.779  11.730  10.696  0.3105 -0.0037  0.1018
  471loPI   PO4 7524   3.516  11.655  10.004  0.4028  0.3868 -0.0087
  471loPI   GL1 7525   3.382  11.449   9.659  0.3410  0.1624  0.2037
  471loPI   GL2 7526   3.452  11.075   9.428 -0.3766 -0.0002 -0.2432
  471loPI   C1A 7527   3.440  11.561   9.274  0.0387 -0.0967 -0.0561
  471loPI   C2A 7528   3.395  11.680   8.897  0.3481  0.1982  0.2020
  471loPI   C3A 7529   3.339  11.678   8.407 -0.0903  0.2857  0.0146
  471loPI   C4A 7530   3.438  11.721   7.983  0.2824 -0.1088 -0.3109
  471loPI   C5A 7531   3.583  11.806   7.561 -0.1508 -0.0038 -0.0799
  471loPI   C6A 7532   3.705  11.989   7.198  0.3957  0.1702 -0.3259
  471loPI   C1B 7533   3.536  11.181   8.978  0.2272 -0.0571  0.1575
  471loPI   C2B 7534   3.461  11.138   8.565  0.1658  0.0731  0.2346
  471loPI   C3B 7535   3.526  11.129   8.143 -0.0031 -0.3195  0.2258
  471loPI   C4B 7536   3.491  11.286   7.707 -0.0182 -0.2892  0.2339
  472loPI    C1 7537   5.604   0.574  10.667  0.0609  0.0582 -0.1106
  472loPI    C2 7538   5.283   0.689  10.876 -0.0244 -0.2278 -0.0796
  472loPI    C3 7539   5.648   0.809  10.987 -0.1329  0.2720 -0.2382
  472loPI   PO4 7540   5.575   0.687  10.435 -0.2486 -0.0498  0.1487
  472loPI   GL1 7541   5.642   0.615  10.062  0.0733 -0.0489  0.0755
  472loPI   GL2 7542   5.763   0.326   9.846  0.0124  0.0245  0.0695
  472loPI   C1A 7543   5.503   0.948   9.689 -0.1106 -0.4342  0.2230
  472loPI   C2A 7544   5.490   0.863   9.275 -0.5043  0.1275 -0.0453
  472loPI   C3A 7545   5.544   0.795   8.838  0.2774  0.1392  0.0611
  472loPI   C4A 7546   5.515   0.728   8.493  0.2478 -0.0688  0.0760
  472loPI   C5A 7547   5.610   0.700   8.087 -0.1020  0.1594 -0.0457
  472loPI   C6A 7548   5.767   0.829   7.671  0.0883  0.2223 -0.1018
  472loPI   C1B 7549   5.567   0.448   9.546 -0.2783  0.0543  0.2257
  472loPI   C2B 7550   5.631   0.359   9.111  0.0731 -0.1268 -0.0885
  472loPI   C3B 7551   5.600   0.272   8.662  0.0731  0.0516 -0.0006
  472loPI   C4B 7552   5.692   0.217   8.242 -0.0430  0.0710  0.0793
  473loPI    C1 7553   6.686   1.537  10.327 -0.1409 -0.1108 -0.0268
  473loPI    C2 7554   6.918   1.786  10.537  0.0823 -0.4162  0.0966
  473loPI    C3 7555   6.535   1.879  10.469  0.1666 -0.0330  0.1216
  473loPI   PO4 7556   6.763   1.455  10.146  0.3536 -0.0813  0.1562
  473loPI   GL1 7557   6.873   1.375   9.806  0.2642 -0.0258 -0.2142
  473loPI   GL2 7558   7.166   1.378   9.681  0.0367 -0.0084  0.0524
  473loPI   C1A 7559   6.762   1.198   9.446 -0.0874 -0.1699 -0.4765
  473loPI   C2A 7560   6.856   1.254   9.062  0.0118  0.3003 -0.1992
  473loPI   C3A 7561   6.859   1.254   8.616  0.3206  0.0693 -0.0640
  473loPI   C4A 7562   6.949   1.204   8.213  0.1350  0.1830  0.0237
  473loPI   C5A 7563   6.654   0.953   7.863  0.1596  0.0490 -0.0145
  473loPI   C6A 7564   6.789   0.726   7.421 -0.2800 -0.3084 -0.1157
  473loPI   C1B 7565   7.209   1.608   9.283  0.2064 -0.0722 -0.0116
  473loPI   C2B 7566   7.166   1.603   8.818 -0.1910 -0.0877  0.0962
  473loPI   C3B 7567   7.143   1.680   8.391 -0.1060 -0.0176 -0.0415
  473loPI   C4B 7568   7.145   1.745   7.844 -0.1859  0.1181  0.0381
  474loPI    C1 7569   4.671   6.293  10.134  0.1751 -0.4524 -0.0868
  474loPI    C2 7570   4.475   6.004  10.328  0.1804 -0.3609  0.0560
  474loPI    C3 7571   4.816   6.151  10.478 -0.0038 -0.0372  0.1676
  474loPI   PO4 7572   4.393   6.351  10.004 -0.2154  0.1641 -0.1693
  474loPI   GL1 7573   4.116   6.522   9.666  0.3210  0.2975  0.0600
  474loPI   GL2 7574   3.815   6.841   9.639  0.1738  0.1466  0.0239
  474loPI   C1A 7575   4.301   6.532   9.250 -0.1266 -0.0890 -0.4058
  474loPI   C2A 7576   4.374   6.417   8.801 -0.0693 -0.0684 -0.0489
  474loPI   C3A 7577   4.396   6.548   8.395 -0.0549 -0.1910  0.0050
  474loPI   C4A 7578   4.601   6.592   7.997 -0.0329  0.6017 -0.1663
  474loPI   C5A 7579   4.991   6.540   7.825  0.3235  0.0151 -0.1180
  474loPI   C6A 7580   5.444   6.710   7.807  0.2114 -0.1994  0.2771
  474loPI   C1B 7581   3.823   6.692   9.220 -0.1446  0.2459  0.2966
  474loPI   C2B 7582   3.887   6.593   8.860 -0.3698  0.1210  0.1564
  474loPI   C3B 7583   3.860   6.669   8.448  0.3034  0.2615 -0.2855
  474loPI   C4B 7584   4.033   6.569   8.057 -0.0638 -0.1615  0.0299
  475loPI    C1 7585   0.555   8.227  10.184 -0.0957 -0.1325  0.2350
  475loPI    C2 7586   0.614   8.560  10.397 -0.1390  0.0862 -0.0885
  475loPI    C3 7587   0.324   8.305  10.501 -0.1187  0.1580  0.1490
  475loPI   PO4 7588   0.587   8.271   9.901  0.3712  0.1622 -0.0938
  475loPI   GL1 7589   0.627   8.047   9.545  0.1602 -0.1105 -0.0141
  475loPI   GL2 7590   0.663   7.758   9.296  0.1302  0.0746  0.4195
  475loPI   C1A 7591   0.749   8.227   9.091  0.2216 -0.1189  0.0203
  475loPI   C2A 7592   0.809   8.169   8.619  0.2000  0.1913 -0.1826
  475loPI   C3A 7593   0.718   8.079   8.187  0.1970  0.3446 -0.1989
  475loPI   C4A 7594   0.742   7.850   7.822 -0.3488  0.1107 -0.1646
  475loPI   C5A 7595   0.919   7.660   7.432  0.1326 -0.1441  0.1613
  475loPI   C6A 7596   0.917   7.359   7.002 -0.0623  0.4538 -0.0887
  475loPI   C1B 7597   0.747   7.681   8.769  0.1999  0.1608 -0.0055
  475loPI   C2B 7598   0.915   7.637   8.356  0.0503 -0.1871 -0.0504
  475loPI   C3B 7599   0.946   7.330   7.906  0.2288  0.2090 -0.1358
  475loPI   C4B 7600   1.080   7.181   7.477 -0.0545 -0.0735 -0.1131
  476loPI    C1 7601   1.556   8.262  10.129 -0.0510  0.1955  0.1078
  476loPI    C2 7602   1.911   8.207  10.306  0.0133  0.2321 -0.0089
  476loPI    C3 7603   1.595   7.990  10.419  0.1214  0.0538 -0.0461
  476loPI   PO4 7604   1.501   8.122   9.858  0.0697  0.0760 -0.0112
  476loPI   GL1 7605   1.629   7.946   9.506 -0.1590 -0.2261  0.2005
  476loPI   GL2 7606   1.763   7.615   9.606 -0.0792  0.1464 -0.1149
  476loPI   C1A 7607   1.710   7.987   9.052  0.0100 -0.2711 -0.0969
  476loPI   C2A 7608   1.752   7.835   8.681  0.1431  0.0095 -0.0001
  476loPI   C3A 7609   1.939   7.750   8.272  0.1489  0.3599  0.0882
  476loPI   C4A 7610   1.805   7.868   7.775 -0.2080 -0.1460  0.2793
  476loPI   C5A 7611   1.569   8.053   7.408  0.1664  0.2262  0.2466
  476loPI   C6A 7612   1.570   8.000   7.048  0.2715  0.3615  0.0874
  476loPI   C1B 7613   1.791   7.414   9.237  0.0543  0.3926  0.1488
  476loPI   C2B 7614   1.863   7.355   8.710  0.1477 -0.0138 -0.2592
  476loPI   C3B 7615   1.963   7.276   8.403  0.0519  0.1823 -0.0999
  476loPI   C4B 7616   1.971   7.298   8.039 -0.0316  0.0662  0.2297
  477loPI    C1 7617  13.886  12.617  10.207  0.1813  0.2325  0.1177
  477loPI    C2 7618  14.057  12.485  10.544 -0.0582  0.0853  0.1848
  477loPI    C3 7619  13.739  12.727  10.563 -0.0044  0.1666  0.0627
  477loPI   PO4 7620  13.912  12.399  10.064  0.0341 -0.0253 -0.2739
  477loPI   GL1 7621  13.855  12.106   9.648  0.0610  0.0062  0.0231
  477loPI   GL2 7622  14.166  12.170   9.523 -0.0242 -0.2284 -0.1184
  477loPI   C1A 7623  13.766  11.982   9.285 -0.0197  0.0113 -0.0844
  477loPI   C2A 7624  13.551  11.900   8.992 -0.2226 -0.0094 -0.1004
  477loPI   C3A 7625  13.513  11.939   8.560 -0.1533 -0.1050 -0.1239
  477loPI   C4A 7626  13.468  12.024   8.138  0.1751 -0.0479  0.1224
  477loPI   C5A 7627  13.291  11.935   7.767  0.1608 -0.0423  0.0317
  477loPI   C6A 7628  12.972  11.625   7.689  0.2365 -0.1991 -0.0071
  477loPI   C1B 7629  14.143  12.297   9.177 -0.0384 -0.0371 -0.0327
  477loPI   C2B 7630  13.944  12.260   8.842  0.1708 -0.0036 -0.3172
  477loPI   C3B 7631  13.870  12.274   8.441  0.1159  0.2425  0.1021
  477loPI   C4B 7632  13.936  12.250   8.046 -0.3818  0.1250  0.1768
  478loPI    C1 7633   8.909  16.870  10.873 -0.0476 -0.2336  0.0249
  478loPI    C2 7634   8.513  16.878  10.924 -0.0466 -0.1099  0.0162
  478loPI    C3 7635   8.754  17.000  11.218 -0.0311  0.2820 -0.1528
  478loPI   PO4 7636   8.873  16.705  10.520 -0.0466  0.0497  0.1387
  478loPI   GL1 7637   8.889  16.747  10.120 -0.0636  0.3777 -0.1021
  478loPI   GL2 7638   8.989  16.424  10.014 -0.0768 -0.0962 -0.2702
  478loPI   C1A 7639   8.930  16.871   9.679  0.2601 -0.2720 -0.0673
  478loPI   C2A 7640   8.823  16.955   9.305 -0.2494  0.1022  0.2083
  478loPI   C3A 7641   8.767  17.040   9.005 -0.0956  0.2950 -0.0705
  478loPI   C4A 7642   8.861  17.039   8.621  0.5156 -0.3318  0.1310
  478loPI   C5A 7643   8.866  16.941   8.120  0.0964  0.0803  0.1589
  478loPI   C6A 7644   8.956  17.103   7.570  0.3152 -0.0221  0.1788
  478loPI   C1B 7645   9.001  16.398   9.480 -0.1956  0.0144 -0.3468
  478loPI   C2B 7646   8.907  16.454   9.074 -0.1909 -0.1932 -0.1085
  478loPI   C3B 7647   8.966  16.481   8.623  0.2871 -0.3605  0.1480
  478loPI   C4B 7648   8.998  16.457   8.256  0.0845  0.2391 -0.0243
  479loPI    C1 7649   3.554  12.491  10.535  0.0359 -0.1173  0.0826
  479loPI    C2 7650   3.164  12.459  10.451  0.0312  0.0513  0.0359
  479loPI    C3 7651   3.344  12.182  10.676 -0.0396 -0.2083 -0.2215
  479loPI   PO4 7652   3.639  12.513  10.245  0.3412 -0.2872  0.2347
  479loPI   GL1 7653   3.890  12.576   9.817 -0.1683  0.1356  0.0208
  479loPI   GL2 7654   3.769  12.183   9.900  0.0068  0.0361 -0.2699
  479loPI   C1A 7655   3.796  12.548   9.370 -0.0250 -0.0240  0.1129
  479loPI   C2A 7656   3.653  12.447   8.908  0.1010 -0.1686  0.0303
  479loPI   C3A 7657   3.659  12.524   8.516 -0.3619  0.0902  0.0278
  479loPI   C4A 7658   3.732  12.581   8.124 -0.3100 -0.1399 -0.2069
  479loPI   C5A 7659   3.718  12.454   7.714  0.1902 -0.2600  0.0454
  479loPI   C6A 7660   3.417  12.635   7.454  0.1166 -0.1006  0.1732
  479loPI   C1B 7661   3.927  12.088   9.514 -0.3795  0.3266 -0.1518
  479loPI   C2B 7662   3.884  12.103   9.103  0.0613  0.0108  0.1291
  479loPI   C3B 7663   3.825  12.019   8.609  0.0606  0.2907 -0.2218
  479loPI   C4B 7664   3.784  12.063   8.198 -0.0736  0.4327  0.1682
  480loPI    C1 7665   9.331   8.382  10.968 -0.0144  0.4616  0.2309
  480loPI    C2 7666   9.013   8.255  11.175  0.0502 -0.2336 -0.0657
  480loPI    C3 7667   9.277   8.504  11.344 -0.2837 -0.1977  0.4208
  480loPI   PO4 7668   9.252   8.410  10.723 -0.1327  0.0781  0.0813
  480loPI   GL1 7669   9.024   8.591  10.250  0.0363 -0.3406 -0.2894
  480loPI   GL2 7670   9.117   8.323  10.208 -0.1662  0.1706  0.5143
  480loPI   C1A 7671   9.114   8.617   9.809 -0.0049  0.1157  0.5402
  480loPI   C2A 7672   9.130   8.660   9.408 -0.0065  0.0201  0.1896
  480loPI   C3A 7673   9.171   8.764   8.964  0.3528  0.1405  0.3123
  480loPI   C4A 7674   9.181   8.727   8.639 -0.3817 -0.0247  0.0201
  480loPI   C5A 7675   9.184   8.482   8.321  0.0037  0.2980 -0.0344
  480loPI   C6A 7676   9.262   8.059   8.165  0.3442 -0.1151 -0.0486
  480loPI   C1B 7677   9.195   8.134   9.901  0.0964  0.2650 -0.1064
  480loPI   C2B 7678   9.206   8.174   9.521 -0.2195 -0.0539 -0.0256
  480loPI   C3B 7679   9.270   8.113   9.112 -0.0544  0.0730  0.1994
  480loPI   C4B 7680   9.191   8.186   8.742  0.1008 -0.1235  0.0745
  481loPI    C1 7681   1.435   2.303  10.312  0.0545  0.0187 -0.2659
  481loPI    C2 7682   1.475   1.946  10.136 -0.0373 -0.2400  0.2182
  481loPI    C3 7683   1.239   1.986  10.456 -0.6277  0.4207 -0.2664
  481loPI   PO4 7684   1.757   2.399  10.234 -0.0960  0.0767  0.1430
  481loPI   GL1 7685   1.768   2.375   9.805 -0.1397  0.1790 -0.1772
  481loPI   GL2 7686   1.472   2.312   9.754 -0.0450 -0.0478 -0.3918
  481loPI   C1A 7687   1.637   2.423   9.365  0.1755  0.0384  0.0378
  481loPI   C2A 7688   1.490   2.349   9.005 -0.0050 -0.1925 -0.3177
  481loPI   C3A 7689   1.628   2.328   8.661  0.0888 -0.3064  0.1220
  481loPI   C4A 7690   1.537   2.365   8.162 -0.0904 -0.0238 -0.1138
  481loPI   C5A 7691   1.230   2.364   7.801  0.0490 -0.2969 -0.3018
  481loPI   C6A 7692   1.248   2.503   7.264 -0.1835 -0.1901  0.2336
  481loPI   C1B 7693   1.246   2.131   9.440  0.0664 -0.0569  0.0152
  481loPI   C2B 7694   1.094   2.057   9.029  0.4218  0.5517  0.2174
  481loPI   C3B 7695   1.076   1.862   8.604 -0.1872  0.1699 -0.0636
  481loPI   C4B 7696   0.948   1.937   8.243 -0.0793  0.0113 -0.0295
  482loPI    C1 7697   4.626   2.229  10.493 -0.3511  0.0415  0.0557
  482loPI    C2 7698   4.236   2.201  10.578 -0.3217 -0.0573  0.1611
  482loPI    C3 7699   4.504   2.219  10.874 -0.2314 -0.2046  0.0897
  482loPI   PO4 7700   4.638   2.461  10.319  0.1459  0.1072 -0.0277
  482loPI   GL1 7701   4.767   2.497   9.861 -0.0519 -0.1045 -0.0919
  482loPI   GL2 7702   4.472   2.526   9.777 -0.0694 -0.0777  0.3726
  482loPI   C1A 7703   5.054   2.752   9.526 -0.2401 -0.0152 -0.2306
  482loPI   C2A 7704   5.209   2.887   9.136 -0.0025  0.1647  0.3224
  482loPI   C3A 7705   5.111   2.815   8.654 -0.0660  0.1175 -0.1445
  482loPI   C4A 7706   5.129   2.785   8.193  0.1505 -0.2585 -0.3185
  482loPI   C5A 7707   5.030   2.772   7.815  0.2244 -0.1072  0.0337
  482loPI   C6A 7708   5.105   2.819   7.315 -0.0211 -0.0356 -0.0392
  482loPI   C1B 7709   4.701   2.411   9.291  0.0477 -0.1135  0.1886
  482loPI   C2B 7710   4.814   2.513   8.920 -0.0610 -0.0170  0.0839
  482loPI   C3B 7711   4.796   2.426   8.565  0.0094  0.1574 -0.0326
  482loPI   C4B 7712   4.776   2.412   8.232 -0.0242 -0.1136 -0.1625
  483loPI    C1 7713  10.321  14.810  10.742 -0.0871 -0.0877  0.1495
  483loPI    C2 7714  10.649  15.012  10.851 -0.0870  0.0575 -0.1134
  483loPI    C3 7715  10.622  14.620  10.925  0.1856  0.0260 -0.1703
  483loPI   PO4 7716  10.328  14.992  10.461  0.2415 -0.2062 -0.3453
  483loPI   GL1 7717  10.078  15.046  10.170 -0.2499  0.0070  0.0398
  483loPI   GL2 7718   9.800  15.261  10.085 -0.0696  0.2224 -0.1343
  483loPI   C1A 7719   9.955  14.836   9.803  0.0414 -0.2044  0.3012
  483loPI   C2A 7720   9.931  14.770   9.307  0.1474  0.3432 -0.2666
  483loPI   C3A 7721   9.804  14.719   8.914 -0.1146  0.2277 -0.0242
  483loPI   C4A 7722   9.768  14.680   8.500  0.1594  0.2500 -0.0020
  483loPI   C5A 7723   9.771  14.652   8.054 -0.1450  0.1995 -0.4016
  483loPI   C6A 7724  10.135  14.262   7.860  0.1075 -0.1313 -0.1738
  483loPI   C1B 7725   9.712  15.360   9.592 -0.2555  0.0268  0.1089
  483loPI   C2B 7726   9.772  15.339   9.213 -0.1221  0.2444  0.2237
  483loPI   C3B 7727   9.639  15.268   8.718  0.2326 -0.0345  0.0803
  483loPI   C4B 7728   9.607  15.172   8.277 -0.2829 -0.1153  0.1685
  484loPI    C1 7729  11.708  18.280  10.316 -0.3719  0.4587  0.2115
  484loPI    C2 7730  11.557  18.045  10.603 -0.1683 -0.0514 -0.0854
  484loPI    C3 7731  11.891  18.255  10.671 -0.1532 -0.1241  0.0690
  484loPI   PO4 7732  11.586  18.352  10.201  0.1459 -0.1238 -0.1099
  484loPI   GL1 7733  11.426  18.136   9.869 -0.2179  0.3181  0.2716
  484loPI   GL2 7734  11.668  18.008   9.790 -0.0200  0.1429 -0.1026
  484loPI   C1A 7735  11.095  18.159   9.562  0.2303 -0.2444  0.0188
  484loPI   C2A 7736  10.967  17.998   9.229 -0.1146  0.0955  0.2450
  484loPI   C3A 7737  10.949  18.181   8.989 -0.0106  0.1387 -0.2132
  484loPI   C4A 7738  10.931  18.272   8.528 -0.2344 -0.0249  0.0037
  484loPI   C5A 7739  10.780  18.316   8.109 -0.2190 -0.1381  0.0436
  484loPI   C6A 7740  10.800  18.051   7.665 -0.0298 -0.4341  0.0395
  484loPI   C1B 7741  11.562  18.037   9.339 -0.2336 -0.1778  0.1073
  484loPI   C2B 7742  11.461  18.066   8.843 -0.0479 -0.1046  0.1892
  484loPI   C3B 7743  11.463  18.027   8.404 -0.1393  0.0934 -0.1544
  484loPI   C4B 7744  11.381  17.973   7.941  0.2321 -0.0666 -0.3957
  485loPI    C1 7745   8.065   5.259  10.739 -0.0440  0.1197  0.2671
  485loPI    C2 7746   8.303   5.494  10.519  0.1103 -0.1599  0.1300
  485loPI    C3 7747   7.968   5.642  10.681  0.0667  0.0853 -0.1762
  485loPI   PO4 7748   8.054   5.023  10.530  0.1467  0.1811  0.1871
  485loPI   GL1 7749   8.197   4.990  10.111 -0.1313 -0.0766 -0.4069
  485loPI   GL2 7750   8.394   4.688  10.007  0.0270 -0.1480 -0.0907
  485loPI   C1A 7751   8.430   5.130   9.818 -0.2043 -0.0687  0.0696
  485loPI   C2A 7752   8.415   5.004   9.373  0.3510  0.2524 -0.5865
  485loPI   C3A 7753   8.331   5.155   8.989  0.0077  0.0302 -0.1959
  485loPI   C4A 7754   8.431   5.047   8.570 -0.3540  0.2966 -0.1557
  485loPI   C5A 7755   8.447   5.083   8.080  0.0646  0.0029 -0.4987
  485loPI   C6A 7756   8.171   4.972   7.690  0.0329  0.0965 -0.2506
  485loPI   C1B 7757   8.423   4.556   9.618 -0.2249  0.0854 -0.1163
  485loPI   C2B 7758   8.467   4.504   9.257 -0.0263 -0.0981 -0.0815
  485loPI   C3B 7759   8.569   4.607   8.909 -0.1171 -0.0352 -0.1052
  485loPI   C4B 7760   8.522   4.589   8.488  0.0213  0.1151  0.2010
  486loPI    C1 7761   7.319  10.257  10.663 -0.0092 -0.3354  0.0427
  486loPI    C2 7762   7.493   9.947  10.846  0.1121 -0.1409  0.2634
  486loPI    C3 7763   7.518  10.312  11.006  0.0277 -0.0043 -0.0286
  486loPI   PO4 7764   7.403  10.263  10.391 -0.1230 -0.1190  0.0086
  486loPI   GL1 7765   7.336  10.163   9.966  0.2712  0.2372  0.0098
  486loPI   GL2 7766   7.427   9.910   9.916  0.3823 -0.2888 -0.0515
  486loPI   C1A 7767   7.410  10.307   9.490 -0.1193  0.0467  0.0584
  486loPI   C2A 7768   7.441  10.262   9.136  0.0268  0.2114 -0.1483
  486loPI   C3A 7769   7.422  10.175   8.707 -0.0123 -0.1105  0.1471
  486loPI   C4A 7770   7.293  10.366   8.249 -0.5215 -0.4055  0.1289
  486loPI   C5A 7771   7.628  10.467   7.922  0.0385  0.3353 -0.1861
  486loPI   C6A 7772   7.681  10.374   7.452  0.2195  0.2850 -0.1074
  486loPI   C1B 7773   7.505   9.787   9.448 -0.0728  0.1094  0.0994
  486loPI   C2B 7774   7.537   9.786   8.929  0.2589  0.0222 -0.0256
  486loPI   C3B 7775   7.549   9.812   8.472  0.1221 -0.1859  0.1479
  486loPI   C4B 7776   7.479   9.936   7.996  0.0789  0.1562  0.4157
  487loPI    C1 7777   1.984  14.671  10.215  0.0072  0.0490  0.0043
  487loPI    C2 7778   2.039  14.688  10.611  0.2047  0.1882 -0.0273
  487loPI    C3 7779   1.743  14.896  10.441 -0.2409 -0.3110  0.1076
  487loPI   PO4 7780   2.174  14.513  10.049 -0.0472  0.0510  0.2562
  487loPI   GL1 7781   2.102  14.522   9.690 -0.1111 -0.1589 -0.0119
  487loPI   GL2 7782   1.933  14.493   9.541 -0.2451  0.1145  0.2722
  487loPI   C1A 7783   2.388  14.371   9.390  0.0495 -0.0269  0.1165
  487loPI   C2A 7784   2.367  14.361   8.905  0.0288 -0.1658 -0.0671
  487loPI   C3A 7785   2.448  14.340   8.436  0.1848  0.1322  0.0291
  487loPI   C4A 7786   2.398  14.502   7.989  0.1119 -0.1336  0.2136
  487loPI   C5A 7787   2.510  14.312   7.596 -0.2688 -0.0404  0.2571
  487loPI   C6A 7788   2.910  14.171   7.419  0.1407 -0.0010 -0.2015
  487loPI   C1B 7789   1.925  14.447   9.130  0.1607 -0.0855  0.4589
  487loPI   C2B 7790   1.994  14.478   8.632 -0.0971 -0.1971  0.0222
  487loPI   C3B 7791   1.811  14.451   8.144  0.1785 -0.3162 -0.0850
  487loPI   C4B 7792   1.944  14.440   7.739  0.1420 -0.1075 -0.0939
  488loPI    C1 7793   2.902   8.275  10.142  0.0432  0.0125 -0.2042
  488loPI    C2 7794   3.021   7.914  10.264 -0.1564 -0.0502 -0.1923
  488loPI    C3 7795   2.968   8.207  10.531  0.1631  0.0362 -0.2199
  488loPI   PO4 7796   2.803   8.239   9.891 -0.0550 -0.0679 -0.0810
  488loPI   GL1 7797   2.556   8.064   9.627 -0.1313  0.0817 -0.3515
  488loPI   GL2 7798   2.220   8.112   9.632 -0.0367 -0.0576 -0.1217
  488loPI   C1A 7799   2.557   8.241   9.244  0.2114 -0.0046  0.2377
  488loPI   C2A 7800   2.625   8.224   8.886  0.1157 -0.1106 -0.1089
  488loPI   C3A 7801   2.763   8.013   8.531  0.3000 -0.0368  0.2005
  488loPI   C4A 7802   2.707   8.132   8.230  0.1454  0.1486  0.2245
  488loPI   C5A 7803   2.655   8.133   7.732 -0.1999  0.3817 -0.3043
  488loPI   C6A 7804   2.448   8.300   7.349 -0.1616 -0.0846 -0.0318
  488loPI   C1B 7805   2.160   7.898   9.346  0.1903 -0.1570 -0.1825
  488loPI   C2B 7806   2.261   7.659   8.989  0.1682  0.0223  0.0733
  488loPI   C3B 7807   2.300   7.611   8.555 -0.0226  0.1902  0.1030
  488loPI   C4B 7808   2.402   7.707   8.060 -0.1564  0.0082  0.1472
  489loPI    C1 7809  12.632   5.414  10.225  0.0062 -0.3257 -0.3198
  489loPI    C2 7810  12.828   5.503  10.563  0.0256 -0.1659 -0.3725
  489loPI    C3 7811  12.806   5.124  10.438 -0.0237 -0.2319 -0.1660
  489loPI   PO4 7812  12.393   5.462  10.086 -0.1511 -0.0811  0.1815
  489loPI   GL1 7813  12.120   5.316   9.811  0.0633  0.0102 -0.1412
  489loPI   GL2 7814  11.874   5.293   9.767 -0.1469  0.2919  0.3650
  489loPI   C1A 7815  12.095   5.215   9.354  0.1654 -0.0646  0.1453
  489loPI   C2A 7816  12.117   5.202   8.863 -0.0440  0.1507 -0.3753
  489loPI   C3A 7817  12.102   5.183   8.428  0.0081  0.1135  0.0456
  489loPI   C4A 7818  11.933   5.204   8.083  0.1713 -0.3173  0.2094
  489loPI   C5A 7819  11.973   4.942   7.729 -0.0488 -0.1895 -0.1567
  489loPI   C6A 7820  12.196   4.542   7.614 -0.1013 -0.1092 -0.1708
  489loPI   C1B 7821  11.571   5.200   9.384 -0.0329 -0.0095 -0.1075
  489loPI   C2B 7822  11.617   5.308   8.988 -0.0275  0.0051 -0.0337
  489loPI   C3B 7823  11.575   5.271   8.533  0.2680  0.0360  0.0526
  489loPI   C4B 7824  11.489   5.532   8.125 -0.2321  0.1065 -0.2353
  490loPI    C1 7825   4.494  10.623  10.434  0.1299 -0.2889 -0.0379
  490loPI    C2 7826   4.334  10.256  10.429 -0.2659 -0.1236  0.0678
  490loPI    C3 7827   4.123  10.564  10.573  0.0342  0.1608 -0.0877
  490loPI   PO4 7828   4.702  10.544  10.252  0.0398 -0.1651  0.1510
  490loPI   GL1 7829   4.946  10.522   9.823 -0.0084  0.2440 -0.0986
  490loPI   GL2 7830   4.623  10.695   9.730 -0.0671  0.1731  0.1085
  490loPI   C1A 7831   5.027  10.628   9.375  0.2507  0.5685 -0.2159
  490loPI   C2A 7832   4.904  10.645   8.882  0.1110 -0.1342  0.3081
  490loPI   C3A 7833   4.961  10.568   8.415 -0.3078 -0.1103 -0.0459
  490loPI   C4A 7834   4.945  10.495   7.991 -0.0958 -0.0819  0.0949
  490loPI   C5A 7835   5.195  10.182   7.772  0.0004  0.1267  0.3391
  490loPI   C6A 7836   5.539  10.304   7.444  0.0239 -0.1360 -0.2281
  490loPI   C1B 7837   4.604  10.876   9.410 -0.0933  0.0171 -0.4283
  490loPI   C2B 7838   4.458  10.805   8.962 -0.1553 -0.0170 -0.2751
  490loPI   C3B 7839   4.487  10.799   8.511 -0.0857 -0.2474 -0.1813
  490loPI   C4B 7840   4.483  10.809   8.068 -0.0989 -0.3363 -0.1855
  491loPI    C1 7841   6.317  16.054  10.697 -0.3990  0.0573  0.1028
  491loPI    C2 7842   6.260  16.273  11.028  0.0959  0.0238  0.2182
  491loPI    C3 7843   6.485  15.942  11.043 -0.0062 -0.0652 -0.1217
  491loPI   PO4 7844   6.459  16.276  10.553  0.5815 -0.2374  0.3174
  491loPI   GL1 7845   6.342  16.376  10.040  0.0463  0.0008  0.5074
  491loPI   GL2 7846   6.120  16.276  10.180  0.0285  0.2609  0.1092
  491loPI   C1A 7847   6.262  16.399   9.596 -0.1029  0.1591 -0.2080
  491loPI   C2A 7848   6.151  16.546   9.321 -0.1810  0.0691  0.0800
  491loPI   C3A 7849   6.100  16.506   8.957  0.0834  0.0531 -0.1833
  491loPI   C4A 7850   6.129  16.649   8.522 -0.0614  0.1869  0.0971
  491loPI   C5A 7851   5.992  16.728   8.156 -0.0330  0.2506 -0.1957
  491loPI   C6A 7852   5.708  16.878   7.760 -0.0374 -0.0449 -0.1556
  491loPI   C1B 7853   5.878  16.134   9.757 -0.1262 -0.1605  0.0021
  491loPI   C2B 7854   5.746  16.231   9.334 -0.0373  0.3801 -0.1487
  491loPI   C3B 7855   5.719  16.139   8.864 -0.0971  0.0107 -0.1254
  491loPI   C4B 7856   5.683  16.145   8.346  0.1311  0.0541  0.1258
  492loPI    C1 7857   4.336   9.479  10.369 -0.2795 -0.0565  0.1313
  492loPI    C2 7858   4.661   9.475  10.603 -0.1411 -0.1092 -0.0599
  492loPI    C3 7859   4.410   9.786  10.616  0.1764  0.1627 -0.2599
  492loPI   PO4 7860   4.483   9.330  10.058 -0.0037 -0.0492  0.1266
  492loPI   GL1 7861   4.766   9.040   9.764 -0.1444  0.1288 -0.0675
  492loPI   GL2 7862   5.168   9.035   9.701  0.0627  0.0877 -0.2256
  492loPI   C1A 7863   4.763   8.768   9.404 -0.1371 -0.1662 -0.3797
  492loPI   C2A 7864   4.782   8.737   8.984  0.0178  0.3023 -0.0810
  492loPI   C3A 7865   5.007   8.714   8.649 -0.3204  0.0025 -0.0308
  492loPI   C4A 7866   5.011   8.750   8.210 -0.1565 -0.3880 -0.1334
  492loPI   C5A 7867   5.121   8.747   7.846 -0.0539  0.1164 -0.2434
  492loPI   C6A 7868   5.363   8.449   7.590 -0.1779  0.3781 -0.1144
  492loPI   C1B 7869   5.207   9.015   9.305  0.1088 -0.4836 -0.0699
  492loPI   C2B 7870   5.235   9.077   8.880 -0.0769 -0.2632  0.3063
  492loPI   C3B 7871   5.218   9.158   8.459  0.0682 -0.0542 -0.0833
  492loPI   C4B 7872   5.337   9.137   8.083 -0.0488  0.1033  0.1564
  493loPI    C1 7873   0.733   0.683   9.956  0.1053  0.0556 -0.0185
  493loPI    C2 7874   1.007   0.447  10.128 -0.0765  0.0783  0.3099
  493loPI    C3 7875   0.937   0.813  10.275 -0.2060  0.1148  0.1605
  493loPI   PO4 7876   0.834   0.679   9.672  0.1641  0.1479  0.0714
  493loPI   GL1 7877   0.799   0.362   9.344 -0.0756 -0.1166 -0.0155
  493loPI   GL2 7878   0.576   0.623   9.218 -0.1644  0.0873 -0.1038
  493loPI   C1A 7879   1.149   0.385   9.015  0.2408  0.3231  0.2606
  493loPI   C2A 7880   1.299   0.360   8.598  0.0513 -0.0108 -0.1266
  493loPI   C3A 7881   1.308   0.365   8.128 -0.1043  0.0214 -0.1179
  493loPI   C4A 7882   1.543   0.218   7.783 -0.1204  0.0360 -0.0669
  493loPI   C5A 7883   1.491   0.197   7.400  0.3373 -0.0007  0.0370
  493loPI   C6A 7884   1.305   0.413   7.135  0.0768 -0.3218 -0.0288
  493loPI   C1B 7885   0.665   0.457   8.816  0.0945  0.1827  0.1674
  493loPI   C2B 7886   0.673   0.484   8.336  0.2710 -0.2020 -0.1381
  493loPI   C3B 7887   0.851   0.480   7.968  0.1872  0.1229  0.2210
  493loPI   C4B 7888   1.055   0.341   7.655  0.0982 -0.1519  0.1746
  494loPI    C1 7889  10.572   6.131  10.656  0.1408 -0.1237 -0.0298
  494loPI    C2 7890  10.208   6.207  10.803  0.2728  0.2403  0.1202
  494loPI    C3 7891  10.417   5.894  10.939 -0.1352 -0.2074 -0.2468
  494loPI   PO4 7892  10.546   6.124  10.447  0.1108  0.0130 -0.3182
  494loPI   GL1 7893  10.433   6.047  10.015 -0.1642  0.0551 -0.2784
  494loPI   GL2 7894  10.249   5.852   9.959  0.3193 -0.0243  0.0824
  494loPI   C1A 7895  10.554   6.208   9.607  0.4623  0.0181  0.0482
  494loPI   C2A 7896  10.605   6.274   9.196 -0.0598 -0.1434 -0.0342
  494loPI   C3A 7897  10.526   6.192   8.774  0.0408 -0.0479  0.3036
  494loPI   C4A 7898  10.347   6.135   8.348  0.1360  0.3207  0.1479
  494loPI   C5A 7899  10.222   6.025   7.913 -0.2039 -0.1011  0.0421
  494loPI   C6A 7900  10.020   5.878   7.586  0.0235  0.1363 -0.0636
  494loPI   C1B 7901  10.166   5.886   9.669  0.1309  0.2014  0.0945
  494loPI   C2B 7902  10.068   5.979   9.217  0.0782 -0.0198  0.0681
  494loPI   C3B 7903  10.136   5.838   8.747 -0.2953  0.1292 -0.4474
  494loPI   C4B 7904   9.887   5.830   8.254 -0.4146  0.3332 -0.0246
  495loPI    C1 7905  11.526  17.551  10.693  0.3292  0.0543  0.0796
  495loPI    C2 7906  11.278  17.259  10.811  0.1339  0.1290 -0.1385
  495loPI    C3 7907  11.623  17.320  11.005 -0.1471  0.2081  0.3524
  495loPI   PO4 7908  11.520  17.522  10.429 -0.2132 -0.0933  0.0408
  495loPI   GL1 7909  11.485  17.448   9.950  0.4533  0.1527  0.0213
  495loPI   GL2 7910  11.827  17.514   9.806  0.0650  0.0303  0.1142
  495loPI   C1A 7911  11.432  17.152   9.626  0.1829 -0.0893  0.0759
  495loPI   C2A 7912  11.241  17.195   9.189  0.1320 -0.4306  0.0232
  495loPI   C3A 7913  11.169  17.244   8.832 -0.0048  0.0824 -0.1856
  495loPI   C4A 7914  11.124  17.178   8.472 -0.0008  0.0544  0.0729
  495loPI   C5A 7915  11.002  17.013   8.014  0.0668 -0.4175  0.1515
  495loPI   C6A 7916  11.035  17.286   7.512  0.0098  0.0225 -0.3849
  495loPI   C1B 7917  11.670  17.483   9.354 -0.0848 -0.0517 -0.0172
  495loPI   C2B 7918  11.680  17.531   8.853  0.0758 -0.2393 -0.1730
  495loPI   C3B 7919  11.572  17.446   8.510 -0.1171 -0.0374  0.1093
  495loPI   C4B 7920  11.389  17.507   8.061 -0.1701 -0.1102  0.1801
  496loPI    C1 7921   6.617   6.265  10.799  0.0491 -0.1213  0.0617
  496loPI    C2 7922   6.800   6.066  11.094  0.2756  0.0596  0.0454
  496loPI    C3 7923   6.708   6.452  11.141 -0.1069 -0.0288  0.0536
  496loPI   PO4 7924   6.789   6.238  10.496  0.1960 -0.2101 -0.0062
  496loPI   GL1 7925   6.789   6.196  10.062  0.2885  0.1371  0.0732
  496loPI   GL2 7926   6.548   5.985   9.990 -0.3081 -0.0706  0.1408
  496loPI   C1A 7927   6.745   6.178   9.571  0.1997 -0.0668 -0.2370
  496loPI   C2A 7928   6.892   6.213   9.191  0.0833  0.0391 -0.1452
  496loPI   C3A 7929   6.781   6.186   8.791 -0.0018 -0.0285 -0.0718
  496loPI   C4A 7930   6.790   6.015   8.441 -0.2188 -0.2189  0.1093
  496loPI   C5A 7931   6.563   6.153   8.052  0.1834 -0.0488 -0.4091
  496loPI   C6A 7932   6.335   6.214   7.628  0.3177  0.3944  0.3921
  496loPI   C1B 7933   6.390   5.833   9.657 -0.0882 -0.0365  0.1478
  496loPI   C2B 7934   6.365   5.801   9.138 -0.0647 -0.0357 -0.1018
  496loPI   C3B 7935   6.431   5.832   8.719 -0.2069 -0.2681  0.0519
  496loPI   C4B 7936   6.381   5.678   8.359  0.2322 -0.1951 -0.0205
  497loPI    C1 7937  18.760   2.595   9.603  0.1580 -0.2586 -0.1737
  497loPI    C2 7938  19.015   2.845   9.785  0.0854 -0.2197 -0.1249
  497loPI    C3 7939  18.936   2.488   9.946 -0.0871 -0.1289 -0.0044
  497loPI   PO4 7940  18.757   2.804   9.387 -0.1436  0.4153 -0.1410
  497loPI   GL1 7941  19.212   3.000   9.287 -0.0501 -0.2987 -0.0305
  497loPI   GL2 7942  19.033   3.269   9.434 -0.1023  0.4664 -0.3216
  497loPI   C1A 7943  19.342   2.656   8.982  0.0801 -0.0518  0.1809
  497loPI   C2A 7944  19.558   2.691   8.619 -0.1385  0.0417 -0.1466
  497loPI   C3A 7945  19.798   3.098   8.420  0.1396  0.1748  0.1338
  497loPI   C4A 7946  19.721   3.243   7.977  0.2262 -0.0018  0.0507
  497loPI   C5A 7947  19.755   3.299   7.553 -0.0235  0.0378  0.1515
  497loPI   C6A 7948  19.813   3.060   7.176 -0.0980  0.3028 -0.1931
  497loPI   C1B 7949  18.967   3.520   9.177 -0.0198  0.4357  0.2648
  497loPI   C2B 7950  19.052   3.645   8.696 -0.0206 -0.5166 -0.2566
  497loPI   C3B 7951  18.953   3.553   8.321 -0.1410  0.0524  0.3769
  497loPI   C4B 7952  18.901   3.599   7.894 -0.0629  0.3981 -0.2548
  498loPI    C1 7953   5.993  15.167  10.664  0.0312 -0.2676 -0.0333
  498loPI    C2 7954   6.367  15.035  10.714  0.0387 -0.2446 -0.0278
  498loPI    C3 7955   6.147  15.139  11.032  0.1156 -0.0174 -0.0476
  498loPI   PO4 7956   6.036  15.367  10.492 -0.1698 -0.1463 -0.0875
  498loPI   GL1 7957   5.893  15.355  10.093 -0.1850  0.0614 -0.4470
  498loPI   GL2 7958   6.010  15.153  10.015 -0.2769 -0.3975 -0.1309
  498loPI   C1A 7959   5.820  15.613   9.648 -0.0748 -0.0984 -0.2081
  498loPI   C2A 7960   5.820  15.648   9.267 -0.1393  0.0235  0.1961
  498loPI   C3A 7961   5.832  15.669   8.882  0.1144  0.2562 -0.3260
  498loPI   C4A 7962   5.811  15.663   8.423  0.2341 -0.0996  0.3053
  498loPI   C5A 7963   5.576  15.744   8.047 -0.1715 -0.1805  0.1548
  498loPI   C6A 7964   5.474  15.512   7.658 -0.2951 -0.0242  0.0602
  498loPI   C1B 7965   6.009  15.136   9.589 -0.1117 -0.0400  0.6029
  498loPI   C2B 7966   6.085  15.076   9.190  0.4252  0.0231 -0.0324
  498loPI   C3B 7967   5.994  15.116   8.811  0.1612  0.0979 -0.3858
  498loPI   C4B 7968   5.904  15.167   8.403  0.0623  0.1388  0.0065
  499loPI    C1 7969  14.852  12.622   9.974  0.3068  0.0240 -0.0129
  499loPI    C2 7970  14.773  12.861  10.285  0.0574  0.0839 -0.1197
  499loPI    C3 7971  14.990  12.529  10.338  0.0340  0.1037  0.1138
  499loPI   PO4 7972  14.899  12.786   9.819 -0.1114 -0.1793 -0.1893
  499loPI   GL1 7973  15.069  12.859   9.547  0.1115  0.1503 -0.2396
  499loPI   GL2 7974  15.353  12.965   9.365 -0.0379 -0.1035  0.2655
  499loPI   C1A 7975  14.990  12.786   9.084 -0.2972 -0.2536  0.0197
  499loPI   C2A 7976  15.192  12.792   8.695  0.0157 -0.0278  0.1748
  499loPI   C3A 7977  15.292  12.747   8.201  0.0073  0.2081  0.0795
  499loPI   C4A 7978  15.401  12.679   7.826  0.1424  0.1369  0.2572
  499loPI   C5A 7979  15.617  12.370   7.497 -0.4167 -0.2979 -0.0098
  499loPI   C6A 7980  15.649  11.969   7.192 -0.1040  0.1021  0.0258
  499loPI   C1B 7981  15.562  12.991   9.023 -0.1700  0.2824 -0.0114
  499loPI   C2B 7982  15.682  12.927   8.654  0.3712  0.2704 -0.1800
  499loPI   C3B 7983  15.753  13.269   8.487 -0.2954 -0.1526 -0.0672
  499loPI   C4B 7984  15.961  13.316   8.038 -0.0986  0.0366  0.0112
  500loPI    C1 7985   2.187  16.221  10.207  0.2927 -0.0440 -0.2103
  500loPI    C2 7986   2.388  16.353  10.527  0.0673  0.3170 -0.2117
  500loPI    C3 7987   1.990  16.319  10.541  0.0985 -0.1580 -0.2902
  500loPI   PO4 7988   2.131  16.379  10.010 -0.1754  0.1078  0.2169
  500loPI   GL1 7989   2.355  16.640   9.724  0.0675  0.2524  0.2521
  500loPI   GL2 7990   2.612  16.520   9.543 -0.1343  0.0368 -0.1157
  500loPI   C1A 7991   2.096  16.447   9.338 -0.1335 -0.1127  0.1152
  500loPI   C2A 7992   2.247  16.367   8.932  0.1557 -0.4219 -0.1308
  500loPI   C3A 7993   2.115  16.082   8.646  0.0212  0.1411  0.0760
  500loPI   C4A 7994   2.060  15.997   8.221 -0.1222  0.1260  0.0342
  500loPI   C5A 7995   2.183  15.967   7.872 -0.3146  0.3399  0.0662
  500loPI   C6A 7996   2.407  16.049   7.598  0.0603  0.1804  0.2166
  500loPI   C1B 7997   2.671  16.554   9.196  0.0850 -0.0666  0.1077
  500loPI   C2B 7998   2.698  16.495   8.765 -0.2294  0.0198  0.0205
  500loPI   C3B 7999   2.545  16.505   8.366  0.2289  0.2224  0.2049
  500loPI   C4B 8000   2.571  16.433   7.896  0.0440  0.1355 -0.0694
  501loPI    C1 8001   8.497   7.024  10.745 -0.1029  0.3009  0.1518
  501loPI    C2 8002   8.116   6.914  10.693  0.0028 -0.0021 -0.0072
  501loPI    C3 8003   8.311   6.807  11.025 -0.0952  0.2893  0.1479
  501loPI   PO4 8004   8.541   6.927  10.481  0.1592  0.3535  0.1329
  501loPI   GL1 8005   8.301   6.873  10.234  0.2401 -0.0055 -0.0521
  501loPI   GL2 8006   8.524   7.006   9.998  0.1337  0.0563 -0.1972
  501loPI   C1A 8007   8.103   6.690   9.807  0.1290 -0.0832 -0.0099
  501loPI   C2A 8008   8.094   6.606   9.377  0.1716  0.0959 -0.1925
  501loPI   C3A 8009   7.985   6.668   8.964 -0.1768  0.3356 -0.1855
  501loPI   C4A 8010   8.065   6.449   8.552 -0.1270 -0.1114  0.0947
  501loPI   C5A 8011   8.467   6.297   8.235 -0.1026  0.0446 -0.1994
  501loPI   C6A 8012   8.421   6.417   7.911 -0.0352 -0.0032  0.0602
  501loPI   C1B 8013   8.557   7.038   9.622 -0.1171 -0.1387  0.1018
  501loPI   C2B 8014   8.416   7.012   9.219  0.0817  0.1372 -0.1740
  501loPI   C3B 8015   8.515   7.103   8.730  0.2095  0.2734 -0.2362
  501loPI   C4B 8016   8.398   6.874   8.421 -0.2066 -0.1026  0.2680
  502loPI    C1 8017   0.863   5.424  10.302 -0.0345 -0.2489 -0.1147
  502loPI    C2 8018   1.026   5.661  10.580 -0.0992  0.0615 -0.3355
  502loPI    C3 8019   0.692   5.457  10.662 -0.1377  0.1787 -0.1969
  502loPI   PO4 8020   1.089   5.560  10.070 -0.0926 -0.0289  0.1755
  502loPI   GL1 8021   1.249   5.639   9.724  0.0766  0.0823 -0.1876
  502loPI   GL2 8022   1.370   5.333   9.582 -0.0323  0.5151  0.3838
  502loPI   C1A 8023   1.196   5.671   9.294 -0.0490 -0.0402 -0.1998
  502loPI   C2A 8024   1.335   5.615   8.950  0.0380 -0.2424  0.1314
  502loPI   C3A 8025   1.283   5.607   8.558  0.0085 -0.1642 -0.2618
  502loPI   C4A 8026   1.361   5.680   8.145  0.1037  0.0643 -0.1733
  502loPI   C5A 8027   1.495   5.775   7.704  0.1979 -0.3732 -0.0806
  502loPI   C6A 8028   1.291   5.488   7.335  0.0528 -0.0047  0.3091
  502loPI   C1B 8029   1.328   5.198   9.194 -0.0867 -0.0683  0.2501
  502loPI   C2B 8030   1.395   5.151   8.713  0.0429  0.0231 -0.0243
  502loPI   C3B 8031   1.460   5.126   8.265  0.0119  0.1745 -0.1091
  502loPI   C4B 8032   1.433   5.270   7.857 -0.3200  0.0178 -0.2294
  503loPI    C1 8033  16.961   4.251   9.997 -0.0408 -0.0270  0.0350
  503loPI    C2 8034  16.638   4.063  10.137 -0.0167 -0.0071  0.1175
  503loPI    C3 8035  16.877   4.262  10.388  0.1652 -0.1821  0.0857
  503loPI   PO4 8036  17.057   3.991   9.705 -0.0160 -0.1171 -0.2528
  503loPI   GL1 8037  17.156   4.016   9.270 -0.2115 -0.1565  0.1109
  503loPI   GL2 8038  16.885   4.019   9.225  0.2677 -0.0879 -0.2306
  503loPI   C1A 8039  17.118   4.097   8.834 -0.2504 -0.0141 -0.4600
  503loPI   C2A 8040  17.215   4.160   8.332 -0.0241  0.2770  0.0378
  503loPI   C3A 8041  17.485   4.060   8.017 -0.0134 -0.0889 -0.1995
  503loPI   C4A 8042  17.567   3.677   7.941  0.0781 -0.0725 -0.2307
  503loPI   C5A 8043  17.502   3.465   7.592 -0.0206 -0.0313 -0.0253
  503loPI   C6A 8044  17.112   3.576   7.335 -0.0098 -0.0163  0.2338
  503loPI   C1B 8045  16.553   4.270   8.929 -0.1536 -0.1125 -0.2149
  503loPI   C2B 8046  16.347   4.471   8.581  0.1339  0.3380 -0.0115
  503loPI   C3B 8047  16.401   4.615   8.122 -0.7092  0.1243  0.3280
  503loPI   C4B 8048  16.312   4.612   7.725 -0.3410 -0.0314 -0.1535
  504loPI    C1 8049   6.580   5.178  10.951 -0.2083 -0.3466  0.0812
  504loPI    C2 8050   6.283   5.432  11.037  0.1210  0.0314  0.1302
  504loPI    C3 8051   6.389   5.152  11.302 -0.0581  0.0240  0.1956
  504loPI   PO4 8052   6.579   5.123  10.739 -0.2922 -0.3092  0.0521
  504loPI   GL1 8053   6.689   5.313  10.326 -0.1238  0.2047  0.2169
  504loPI   GL2 8054   6.966   5.280  10.392 -0.3268  0.1179 -0.0769
  504loPI   C1A 8055   6.662   5.489   9.915  0.0200 -0.1517  0.2141
  504loPI   C2A 8056   6.834   5.668   9.428 -0.1100  0.1663  0.1263
  504loPI   C3A 8057   6.816   5.649   8.932 -0.2339  0.0724 -0.1193
  504loPI   C4A 8058   6.834   5.508   8.490 -0.0971  0.0722 -0.0808
  504loPI   C5A 8059   6.876   5.702   8.119 -0.1531  0.2983 -0.1117
  504loPI   C6A 8060   7.267   5.746   7.904 -0.0587 -0.0958 -0.1130
  504loPI   C1B 8061   6.891   5.050   9.952  0.2384 -0.1717 -0.0181
  504loPI   C2B 8062   6.895   5.088   9.496 -0.0588 -0.0655 -0.1600
  504loPI   C3B 8063   6.900   5.107   9.102 -0.4948 -0.0570 -0.1794
  504loPI   C4B 8064   7.023   4.954   8.643  0.3267 -0.0115  0.0821
  505loPI    C1 8065  10.277   5.399  10.805 -0.0350  0.0213 -0.0439
  505loPI    C2 8066  10.202   5.251  11.169 -0.0648  0.1056 -0.0156
  505loPI    C3 8067  10.555   5.423  11.093 -0.0563  0.0825 -0.0282
  505loPI   PO4 8068   9.994   5.278  10.608 -0.0144  0.0399  0.1940
  505loPI   GL1 8069   9.518   5.160  10.377 -0.2739  0.0054  0.1267
  505loPI   GL2 8070   9.446   4.907  10.230 -0.0174  0.1277  0.0982
  505loPI   C1A 8071   9.843   4.968   9.944 -0.1070 -0.0562  0.3288
  505loPI   C2A 8072   9.782   4.996   9.560  0.1674  0.0631  0.2135
  505loPI   C3A 8073   9.783   5.072   9.094  0.1055 -0.0647  0.1374
  505loPI   C4A 8074   9.744   5.190   8.726 -0.1672  0.1094  0.3195
  505loPI   C5A 8075   9.756   5.175   8.310 -0.2012  0.1389  0.2257
  505loPI   C6A 8076   9.612   5.147   7.866 -0.2470 -0.4573  0.1474
  505loPI   C1B 8077   9.374   5.198   9.775 -0.0848 -0.2095 -0.0127
  505loPI   C2B 8078   9.218   5.173   9.490  0.1620  0.1907 -0.0203
  505loPI   C3B 8079   9.255   5.302   9.030 -0.1480  0.2196 -0.1884
  505loPI   C4B 8080   9.221   5.295   8.524  0.1971 -0.3202 -0.0610
  506loPI    C1 8081   0.047   3.574   9.868 -0.0339  0.1554  0.0102
  506loPI    C2 8082  -0.022   3.221  10.043 -0.0855  0.0808 -0.1579
  506loPI    C3 8083  -0.215   3.547  10.169  0.1625  0.1038  0.1791
  506loPI   PO4 8084   0.336   3.628   9.912  0.1842 -0.0337 -0.1992
  506loPI   GL1 8085   0.583   3.629   9.542  0.1623  0.2833 -0.2081
  506loPI   GL2 8086   0.853   3.559   9.655  0.0563  0.1838  0.0323
  506loPI   C1A 8087   0.631   3.606   9.089 -0.1143  0.2508  0.3422
  506loPI   C2A 8088   0.666   3.516   8.559 -0.0302  0.0935  0.0797
  506loPI   C3A 8089   0.769   3.603   8.253 -0.1102  0.2573  0.1849
  506loPI   C4A 8090   0.870   3.808   7.887  0.4585 -0.2645  0.1618
  506loPI   C5A 8091   0.915   3.893   7.495  0.1703  0.1251  0.0008
  506loPI   C6A 8092   0.554   3.932   7.362 -0.1029  0.1194 -0.4736
  506loPI   C1B 8093   1.112   3.452   9.317  0.1538 -0.2152  0.1478
  506loPI   C2B 8094   1.097   3.523   8.910 -0.0150 -0.0445 -0.2179
  506loPI   C3B 8095   1.262   3.485   8.555 -0.0806 -0.2535 -0.1157
  506loPI   C4B 8096   1.331   3.332   8.109 -0.1641  0.2957  0.0387
  507loPI    C1 8097  12.435   3.665  10.471  0.1924  0.2538  0.0712
  507loPI    C2 8098  12.436   3.709  10.868 -0.0669 -0.0756  0.1127
  507loPI    C3 8099  12.594   3.381  10.703  0.2945  0.1875 -0.0781
  507loPI   PO4 8100  12.202   3.703  10.355  0.1601  0.2908  0.1095
  507loPI   GL1 8101  12.141   3.538   9.942 -0.0784  0.0369  0.4087
  507loPI   GL2 8102  11.966   3.771   9.770  0.1266 -0.4152 -0.0907
  507loPI   C1A 8103  11.885   3.327   9.587 -0.0276 -0.3300 -0.0733
  507loPI   C2A 8104  12.010   3.255   9.242  0.2658  0.1410 -0.1449
  507loPI   C3A 8105  11.934   3.293   8.816 -0.6415 -0.1002  0.2788
  507loPI   C4A 8106  11.932   3.248   8.345 -0.0935  0.2628  0.3418
  507loPI   C5A 8107  11.879   3.287   7.946  0.0150  0.1542 -0.0777
  507loPI   C6A 8108  11.856   3.600   7.571  0.4096 -0.4313 -0.0728
  507loPI   C1B 8109  11.931   3.812   9.310  0.0894  0.1056  0.3454
  507loPI   C2B 8110  11.815   3.803   8.941  0.1197 -0.2180 -0.1106
  507loPI   C3B 8111  11.843   3.771   8.573  0.0256 -0.2581 -0.0540
  507loPI   C4B 8112  12.004   3.732   8.153  0.1739 -0.2999 -0.0155
  508loPI    C1 8113   5.080  10.996  10.322 -0.2204  0.3149  0.0768
  508loPI    C2 8114   4.841  10.881  10.622 -0.0387 -0.1568  0.0495
  508loPI    C3 8115   5.219  10.987  10.697 -0.0745 -0.0045  0.0185
  508loPI   PO4 8116   5.049  10.868  10.128 -0.1510  0.2609 -0.1857
  508loPI   GL1 8117   5.229  10.967   9.771  0.2440 -0.2227  0.0609
  508loPI   GL2 8118   4.920  11.094   9.660 -0.2590 -0.0119 -0.1668
  508loPI   C1A 8119   5.392  11.031   9.335  0.0064 -0.0354  0.0967
  508loPI   C2A 8120   5.403  10.995   8.914  0.2110  0.0124 -0.3933
  508loPI   C3A 8121   5.322  10.991   8.519 -0.0259 -0.0316 -0.0576
  508loPI   C4A 8122   5.272  10.854   8.092  0.1580 -0.1999  0.1436
  508loPI   C5A 8123   5.319  10.897   7.575 -0.0375 -0.2146 -0.3392
  508loPI   C6A 8124   5.757  11.071   7.360  0.1253 -0.1973 -0.1881
  508loPI   C1B 8125   4.919  11.281   9.253  0.3104  0.3685  0.2270
  508loPI   C2B 8126   4.947  11.140   8.805  0.1267 -0.2944  0.1246
  508loPI   C3B 8127   4.850  11.123   8.362 -0.1634 -0.1174 -0.1474
  508loPI   C4B 8128   4.841  11.099   7.934  0.0549  0.0728  0.0296
  509loPI    C1 8129   8.556   0.153  10.523  0.2414  0.1494 -0.1139
  509loPI    C2 8130   8.638  -0.132  10.255 -0.0337  0.0464 -0.0916
  509loPI    C3 8131   8.772  -0.166  10.631 -0.0734 -0.0589 -0.0866
  509loPI   PO4 8132   8.420   0.330  10.302 -0.1149  0.1362  0.0473
  509loPI   GL1 8133   8.272   0.103   9.987  0.0069  0.2536 -0.1007
  509loPI   GL2 8134   8.025  -0.040   9.943  0.1890 -0.0576  0.2195
  509loPI   C1A 8135   8.552   0.138   9.673  0.1855 -0.2430 -0.2167
  509loPI   C2A 8136   8.441   0.276   9.149 -0.0869 -0.1149 -0.2559
  509loPI   C3A 8137   8.330   0.226   8.689 -0.0873  0.2626  0.1554
  509loPI   C4A 8138   8.363   0.159   8.287  0.0564  0.0973  0.0843
  509loPI   C5A 8139   8.626   0.254   8.011  0.5305  0.1258  0.2210
  509loPI   C6A 8140   8.795   0.278   7.632 -0.2203 -0.3367  0.0301
  509loPI   C1B 8141   7.825   0.277   9.655  0.0439  0.2437  0.0119
  509loPI   C2B 8142   7.848   0.313   9.296  0.0769 -0.1077  0.0501
  509loPI   C3B 8143   7.858   0.381   8.769  0.1404 -0.2586  0.0763
  509loPI   C4B 8144   7.995   0.461   8.358  0.2578 -0.1125  0.0159
  510loPI    C1 8145  13.161  12.043  10.366  0.0155 -0.0916  0.1244
  510loPI    C2 8146  13.261  12.076  10.752 -0.1176  0.1480  0.1405
  510loPI    C3 8147  12.967  12.302  10.601 -0.1662 -0.0503 -0.0680
  510loPI   PO4 8148  13.359  11.818  10.282  0.1807 -0.1776  0.0556
  510loPI   GL1 8149  13.369  11.521   9.973 -0.3952  0.0632  0.4626
  510loPI   GL2 8150  13.398  11.877   9.809 -0.0517 -0.0341  0.1566
  510loPI   C1A 8151  13.236  11.535   9.509 -0.0589 -0.1540 -0.0996
  510loPI   C2A 8152  13.182  11.522   9.005 -0.2578 -0.2615  0.2699
  510loPI   C3A 8153  13.148  11.544   8.584 -0.1064  0.2867  0.0235
  510loPI   C4A 8154  12.925  11.600   8.224 -0.0501 -0.0821  0.0173
  510loPI   C5A 8155  12.585  11.822   8.004  0.2264  0.1890  0.2612
  510loPI   C6A 8156  12.522  12.034   7.623  0.1159 -0.0151 -0.5010
  510loPI   C1B 8157  13.274  12.117   9.398 -0.1040 -0.1431  0.1428
  510loPI   C2B 8158  13.067  12.206   8.976 -0.0876 -0.0395 -0.0707
  510loPI   C3B 8159  13.001  12.028   8.626 -0.0592  0.0056  0.1757
  510loPI   C4B 8160  12.946  12.138   8.245 -0.1015  0.1384 -0.2813
  511loPI    C1 8161   3.970  16.466  10.671  0.0477  0.0301  0.1863
  511loPI    C2 8162   4.269  16.368  10.919  0.0671  0.0819  0.1836
  511loPI    C3 8163   4.209  16.751  10.820  0.2198  0.0364 -0.0949
  511loPI   PO4 8164   4.045  16.322  10.335  0.3786  0.1237 -0.2976
  511loPI   GL1 8165   4.221  16.329   9.990 -0.0821  0.1002  0.1047
  511loPI   GL2 8166   4.367  16.139   9.764  0.0332  0.1470  0.1190
  511loPI   C1A 8167   4.309  16.690   9.662  0.0656 -0.0350 -0.5244
  511loPI   C2A 8168   4.216  16.677   9.101 -0.0405  0.0267  0.1042
  511loPI   C3A 8169   4.160  16.722   8.623  0.1688  0.1332  0.0627
  511loPI   C4A 8170   4.144  16.764   8.150 -0.1801  0.3393 -0.0003
  511loPI   C5A 8171   4.092  16.786   7.701  0.1807 -0.1573  0.0554
  511loPI   C6A 8172   3.780  16.389   7.484 -0.1134 -0.0874  0.1279
  511loPI   C1B 8173   4.324  16.266   9.358 -0.1841 -0.1171 -0.5291
  511loPI   C2B 8174   4.404  16.223   8.957  0.0048 -0.2796  0.0867
  511loPI   C3B 8175   4.341  16.235   8.498 -0.0513  0.0081 -0.0826
  511loPI   C4B 8176   4.283  16.163   8.007  0.0165  0.0101 -0.2537
  512loPI    C1 8177   6.971  11.616  10.529 -0.2114 -0.0955  0.0057
  512loPI    C2 8178   6.626  11.797  10.619 -0.0756  0.0882  0.1643
  512loPI    C3 8179   6.816  11.580  10.896 -0.0844 -0.0473  0.0647
  512loPI   PO4 8180   6.923  11.572  10.226 -0.0960  0.0765  0.1923
  512loPI   GL1 8181   6.670  11.405   9.916  0.0820 -0.0360 -0.1172
  512loPI   GL2 8182   6.362  11.223  10.005  0.2465  0.0967  0.1216
  512loPI   C1A 8183   6.794  11.459   9.473 -0.1495  0.3091 -0.0160
  512loPI   C2A 8184   6.749  11.489   9.058  0.1679  0.0894 -0.3431
  512loPI   C3A 8185   6.648  11.492   8.751 -0.1862 -0.1846  0.3746
  512loPI   C4A 8186   6.670  11.428   8.339 -0.0003  0.0830 -0.1733
  512loPI   C5A 8187   6.566  11.455   7.932 -0.3879  0.1085 -0.1058
  512loPI   C6A 8188   6.479  11.540   7.508  0.2912 -0.1126  0.2291
  512loPI   C1B 8189   6.310  11.166   9.583  0.1272 -0.1942  0.0771
  512loPI   C2B 8190   6.250  11.161   9.108  0.0228 -0.1413  0.1842
  512loPI   C3B 8191   6.290  11.158   8.650 -0.0183 -0.2188 -0.0194
  512loPI   C4B 8192   6.230  11.087   8.212 -0.1025  0.1180  0.0022
  513loPI    C1 8193   8.961  18.173  10.772  0.0997  0.1282 -0.1210
  513loPI    C2 8194   8.779  18.414  11.035  0.1957  0.1063 -0.0337
  513loPI    C3 8195   9.141  18.265  11.118  0.1654 -0.0154 -0.1165
  513loPI   PO4 8196   8.994  18.255  10.498  0.0763 -0.2571 -0.1169
  513loPI   GL1 8197   9.041  18.437  10.072 -0.2476  0.0832  0.0112
  513loPI   GL2 8198   8.938  18.687   9.856 -0.0982 -0.0932 -0.1200
  513loPI   C1A 8199   9.049  18.261   9.638  0.1065  0.3039 -0.2792
  513loPI   C2A 8200   8.992  18.362   9.275  0.0476  0.2416  0.1964
  513loPI   C3A 8201   8.954  18.441   8.865  0.1419  0.0755  0.0578
  513loPI   C4A 8202   9.082  18.302   8.628 -0.1708  0.0474  0.2400
  513loPI   C5A 8203   9.043  18.326   8.234 -0.1443  0.1149 -0.0262
  513loPI   C6A 8204   9.249  18.236   7.892  0.0841  0.1105  0.4632
  513loPI   C1B 8205   8.977  18.911   9.534  0.0202 -0.0359  0.3462
  513loPI   C2B 8206   8.906  18.943   9.156 -0.0681  0.0981 -0.1042
  513loPI   C3B 8207   8.797  18.860   8.735  0.0146  0.2012  0.0328
  513loPI   C4B 8208   8.990  18.851   8.335  0.1033  0.0821  0.0914
  514loPI    C1 8209  15.006  14.416  10.193 -0.1903 -0.2509 -0.0881
  514loPI    C2 8210  15.376  14.424  10.345 -0.2745 -0.2628  0.1208
  514loPI    C3 8211  15.080  14.620  10.529 -0.3167 -0.0162 -0.2009
  514loPI   PO4 8212  15.118  14.401   9.888 -0.2283 -0.0613  0.3343
  514loPI   GL1 8213  15.195  14.322   9.406  0.0521  0.0254 -0.0936
  514loPI   GL2 8214  15.144  14.602   9.364 -0.2371 -0.0790  0.2612
  514loPI   C1A 8215  14.747  14.059   9.231  0.0627 -0.2429  0.0555
  514loPI   C2A 8216  14.491  13.967   8.979 -0.0584  0.1169 -0.3246
  514loPI   C3A 8217  14.383  13.967   8.560 -0.1333 -0.0560  0.0232
  514loPI   C4A 8218  14.111  13.660   8.338  0.0522 -0.0993  0.1409
  514loPI   C5A 8219  14.166  13.570   7.955  0.1224  0.2387  0.2386
  514loPI   C6A 8220  14.256  13.776   7.626 -0.1476 -0.4686 -0.0028
  514loPI   C1B 8221  15.041  14.423   8.970 -0.1000  0.0087  0.1031
  514loPI   C2B 8222  15.230  14.327   8.498  0.2328 -0.1142  0.3116
  514loPI   C3B 8223  15.182  14.219   8.064  0.0124 -0.0908 -0.1444
  514loPI   C4B 8224  15.332  14.071   7.677 -0.3580  0.0225  0.0316
  515loPI    C1 8225  13.405   1.672  10.265 -0.1084  0.0370  0.0758
  515loPI    C2 8226  13.640   1.739   9.949 -0.3999 -0.0440 -0.1619
  515loPI    C3 8227  13.750   1.472  10.225  0.1086  0.4011  0.0844
  515loPI   PO4 8228  13.176   1.645  10.178  0.0648 -0.1059  0.1999
  515loPI   GL1 8229  12.899   1.404   9.918  0.1049 -0.0319  0.0486
  515loPI   GL2 8230  12.635   1.175   9.731 -0.1524 -0.1984  0.0553
  515loPI   C1A 8231  12.869   1.652   9.534  0.0104  0.1937  0.0612
  515loPI   C2A 8232  12.752   1.656   9.091  0.1623 -0.3359  0.3786
  515loPI   C3A 8233  12.721   1.625   8.625  0.2371 -0.2152 -0.0336
  515loPI   C4A 8234  12.646   1.551   8.207 -0.0586  0.0173 -0.1592
  515loPI   C5A 8235  12.702   1.446   7.780 -0.0309 -0.0141 -0.1877
  515loPI   C6A 8236  12.941   1.148   7.488  0.1480 -0.1241  0.0858
  515loPI   C1B 8237  12.496   1.341   9.340  0.0872 -0.1060  0.0718
  515loPI   C2B 8238  12.409   1.198   8.935  0.0435  0.1642  0.0397
  515loPI   C3B 8239  12.353   1.328   8.529  0.0737  0.4667 -0.1402
  515loPI   C4B 8240  12.269   1.162   8.097  0.0063 -0.0208 -0.3416
  516loPI    C1 8241  14.976   3.776  10.214 -0.0605  0.0275  0.0356
  516loPI    C2 8242  14.786   4.126  10.173 -0.3192 -0.1172 -0.0206
  516loPI    C3 8243  14.980   4.043  10.513 -0.0972  0.1555 -0.0771
  516loPI   PO4 8244  14.984   3.749   9.948 -0.0014  0.1716  0.0608
  516loPI   GL1 8245  14.774   3.733   9.512 -0.0559  0.1205  0.3501
  516loPI   GL2 8246  15.077   3.888   9.399  0.4172  0.1874 -0.0063
  516loPI   C1A 8247  14.691   3.775   9.013 -0.1253  0.0206 -0.0547
  516loPI   C2A 8248  14.596   3.661   8.577  0.0850 -0.0441  0.0415
  516loPI   C3A 8249  14.622   3.755   8.101 -0.2331  0.1766 -0.2857
  516loPI   C4A 8250  14.590   3.780   7.656  0.1238 -0.0070  0.0165
  516loPI   C5A 8251  14.527   3.511   7.255  0.1589 -0.2217 -0.0520
  516loPI   C6A 8252  14.625   3.058   7.088  0.3693 -0.3257 -0.0369
  516loPI   C1B 8253  15.064   4.038   8.922  0.1500  0.2982 -0.1488
  516loPI   C2B 8254  15.018   3.967   8.502  0.4008 -0.1428 -0.1812
  516loPI   C3B 8255  15.020   4.048   8.048  0.1223 -0.3168 -0.1691
  516loPI   C4B 8256  14.977   4.171   7.624  0.1233 -0.2508 -0.1467
  517loPI    C1 8257   1.667   6.991  10.257  0.0974  0.0095 -0.0643
  517loPI    C2 8258   2.042   7.026  10.391  0.1088  0.1195 -0.1241
  517loPI    C3 8259   1.736   7.140  10.622  0.1087 -0.0239 -0.0528
  517loPI   PO4 8260   1.648   7.180  10.071 -0.1270  0.1311 -0.0234
  517loPI   GL1 8261   1.654   7.086   9.612  0.0222  0.0801  0.0291
  517loPI   GL2 8262   1.285   7.106   9.528 -0.0167  0.3178 -0.1343
  517loPI   C1A 8263   1.553   6.644   9.473 -0.1082 -0.3981 -0.2859
  517loPI   C2A 8264   1.660   6.474   9.166 -0.0314  0.1733  0.2091
  517loPI   C3A 8265   1.603   6.471   8.821 -0.2380 -0.1031  0.2931
  517loPI   C4A 8266   1.570   6.465   8.376  0.1531  0.2116 -0.0214
  517loPI   C5A 8267   1.671   6.582   8.056  0.3031  0.1042  0.0363
  517loPI   C6A 8268   1.999   6.897   7.789  0.2136  0.0456  0.0148
  517loPI   C1B 8269   1.434   7.029   9.148 -0.0937 -0.0567 -0.0716
  517loPI   C2B 8270   1.442   7.021   8.724 -0.1893  0.5204  0.0030
  517loPI   C3B 8271   1.547   6.979   8.366 -0.0036 -0.0165  0.1175
  517loPI   C4B 8272   1.451   7.015   7.924 -0.0292  0.0643  0.0943
  518loPI    C1 8273   8.687  11.831  10.469  0.0019 -0.1528  0.1535
  518loPI    C2 8274   8.932  11.591  10.264  0.0066 -0.0059 -0.0145
  518loPI    C3 8275   8.758  11.460  10.599  0.1601 -0.1774 -0.0008
  518loPI   PO4 8276   8.811  12.106  10.242 -0.0594 -0.0736 -0.5053
  518loPI   GL1 8277   9.053  11.965   9.931 -0.0323 -0.0687  0.0196
  518loPI   GL2 8278   9.178  11.761   9.873  0.2521 -0.0703 -0.0140
  518loPI   C1A 8279   8.942  12.037   9.516  0.2786  0.2253  0.5268
  518loPI   C2A 8280   9.036  12.190   9.270 -0.0671 -0.0492  0.2516
  518loPI   C3A 8281   8.961  12.094   8.853  0.1736 -0.0153  0.0895
  518loPI   C4A 8282   8.825  12.098   8.536 -0.3950 -0.0186 -0.1868
  518loPI   C5A 8283   8.837  12.119   8.121 -0.0655  0.2244  0.2262
  518loPI   C6A 8284   9.071  12.293   7.852  0.2245  0.3753  0.2354
  518loPI   C1B 8285   9.199  11.630   9.499 -0.0920  0.1377 -0.0883
  518loPI   C2B 8286   9.116  11.653   9.143 -0.0875 -0.1211 -0.4720
  518loPI   C3B 8287   8.896  11.593   8.761  0.5739  0.1415 -0.0622
  518loPI   C4B 8288   8.979  11.655   8.346 -0.1027 -0.0054 -0.1884
  519loPI    C1 8289   1.435  11.940  10.052 -0.0684 -0.0803 -0.0423
  519loPI    C2 8290   1.735  12.093   9.836 -0.1954  0.0352 -0.1391
  519loPI    C3 8291   1.537  12.325  10.095  0.0287 -0.1299  0.1884
  519loPI   PO4 8292   1.259  11.809   9.894 -0.0458 -0.0181  0.1933
  519loPI   GL1 8293   1.189  11.818   9.404  0.0272  0.1146  0.0210
  519loPI   GL2 8294   1.402  11.512   9.246  0.0902  0.5726 -0.0692
  519loPI   C1A 8295   1.640  11.992   9.342 -0.0912 -0.1199  0.0684
  519loPI   C2A 8296   1.867  12.118   8.950 -0.0774  0.3869  0.0447
  519loPI   C3A 8297   1.825  12.090   8.529  0.2986 -0.0922 -0.0371
  519loPI   C4A 8298   1.798  12.092   8.148  0.0471  0.1629  0.0520
  519loPI   C5A 8299   1.564  11.843   7.922  0.0043  0.3402  0.0468
  519loPI   C6A 8300   1.215  11.545   7.944  0.0416  0.0038  0.0742
  519loPI   C1B 8301   1.517  11.396   8.881 -0.2784 -0.0313  0.1841
  519loPI   C2B 8302   1.518  11.197   8.351 -0.1315 -0.0676  0.0333
  519loPI   C3B 8303   1.621  11.257   7.912 -0.0431 -0.1045  0.0115
  519loPI   C4B 8304   1.658  11.480   7.550  0.2542 -0.2350  0.1972
  520loPI    C1 8305   3.353   2.630  10.578 -0.0964  0.1147  0.0499
  520loPI    C2 8306   3.203   2.453  10.904 -0.1627  0.2945  0.1185
  520loPI    C3 8307   3.568   2.617  10.915  0.1106 -0.2703 -0.0903
  520loPI   PO4 8308   3.296   2.475  10.384 -0.3091 -0.0598  0.2400
  520loPI   GL1 8309   3.228   2.294   9.992  0.0188 -0.0612 -0.0733
  520loPI   GL2 8310   2.944   2.388   9.956 -0.1435  0.2972  0.0853
  520loPI   C1A 8311   3.227   2.411   9.486 -0.2733  0.1279  0.0372
  520loPI   C2A 8312   3.186   2.498   9.044  0.2042 -0.0856 -0.0877
  520loPI   C3A 8313   3.318   2.442   8.655  0.3616  0.0895 -0.0530
  520loPI   C4A 8314   3.370   2.486   8.279 -0.0006  0.3474  0.0234
  520loPI   C5A 8315   3.351   2.857   8.015 -0.0314  0.0814 -0.0736
  520loPI   C6A 8316   3.427   3.287   7.880  0.1019 -0.0014  0.1772
  520loPI   C1B 8317   2.747   2.184   9.575 -0.0745 -0.1184  0.1563
  520loPI   C2B 8318   2.830   2.179   9.149 -0.1649 -0.5620 -0.2495
  520loPI   C3B 8319   2.862   2.225   8.694 -0.0354  0.2425  0.0040
  520loPI   C4B 8320   2.991   2.153   8.237 -0.1226 -0.0998  0.0045
  521loPI    C1 8321  17.871   8.498   9.963 -0.0104 -0.1219  0.1454
  521loPI    C2 8322  18.074   8.672  10.260 -0.0583  0.2285 -0.0215
  521loPI    C3 8323  17.697   8.554  10.318 -0.0274  0.1835  0.0914
  521loPI   PO4 8324  17.931   8.606   9.711 -0.0803  0.1440 -0.2316
  521loPI   GL1 8325  18.051   8.814   9.412  0.2022  0.0168  0.1129
  521loPI   GL2 8326  17.893   8.980   9.200 -0.3025  0.0014 -0.1483
  521loPI   C1A 8327  18.234   8.575   9.094  0.1066  0.2853 -0.1450
  521loPI   C2A 8328  18.383   8.520   8.658  0.1181 -0.3048  0.0655
  521loPI   C3A 8329  18.538   8.497   8.265  0.3801  0.1862  0.3449
  521loPI   C4A 8330  18.692   8.167   7.990  0.0054  0.6487  0.3278
  521loPI   C5A 8331  18.821   7.982   7.567  0.5499  0.0725 -0.0581
  521loPI   C6A 8332  18.611   7.971   7.214  0.0332  0.1348  0.3342
  521loPI   C1B 8333  17.966   8.870   8.763  0.1484 -0.2026 -0.0716
  521loPI   C2B 8334  18.067   8.802   8.317 -0.0988  0.2781  0.1078
  521loPI   C3B 8335  17.797   8.884   7.938 -0.0237 -0.2070 -0.1004
  521loPI   C4B 8336  17.683   8.776   7.575 -0.1233 -0.0982 -0.0921
  522loPI    C1 8337  18.754   2.019   9.826 -0.5604  0.0296  0.0674
  522loPI    C2 8338  19.008   1.864  10.093 -0.2395 -0.1705 -0.3412
  522loPI    C3 8339  18.708   2.098  10.215 -0.0213 -0.1460  0.1763
  522loPI   PO4 8340  18.921   2.049   9.634  0.2633  0.0321  0.3991
  522loPI   GL1 8341  18.844   2.207   9.298 -0.0973 -0.2847  0.1233
  522loPI   GL2 8342  18.876   2.428   9.103  0.0969  0.1428  0.0692
  522loPI   C1A 8343  18.623   2.106   8.823  0.4829 -0.0091  0.0089
  522loPI   C2A 8344  18.775   2.157   8.375 -0.2609 -0.0435  0.1607
  522loPI   C3A 8345  18.761   2.300   7.935 -0.0133  0.2673 -0.1540
  522loPI   C4A 8346  18.734   2.762   7.724 -0.0472  0.0347  0.4451
  522loPI   C5A 8347  18.777   2.869   7.314  0.2146 -0.2478  0.1598
  522loPI   C6A 8348  18.598   3.216   6.992 -0.0584  0.0131  0.1655
  522loPI   C1B 8349  18.969   2.450   8.722 -0.0749  0.4244 -0.3863
  522loPI   C2B 8350  19.134   2.587   8.320  0.0867  0.2802  0.1400
  522loPI   C3B 8351  19.172   2.627   7.936 -0.0348 -0.0252  0.0104
  522loPI   C4B 8352  19.133   2.292   7.548 -0.0450 -0.1045 -0.4336
  523loPI    C1 8353   8.955  17.708  10.720 -0.2500 -0.1779  0.0592
  523loPI    C2 8354   9.056  17.352  10.871  0.0966 -0.1351 -0.0627
  523loPI    C3 8355   9.210  17.687  11.027  0.2923 -0.0790 -0.3680
  523loPI   PO4 8356   8.787  17.684  10.566  0.0222  0.2218  0.5222
  523loPI   GL1 8357   8.810  17.566  10.150 -0.0353 -0.0076  0.2249
  523loPI   GL2 8358   8.844  17.230  10.038 -0.1254 -0.3175 -0.2045
  523loPI   C1A 8359   9.161  17.753   9.873 -0.0918 -0.1546 -0.0081
  523loPI   C2A 8360   9.180  17.856   9.405  0.2907  0.0645  0.1805
  523loPI   C3A 8361   9.107  17.818   8.997  0.1357 -0.3349 -0.0436
  523loPI   C4A 8362   9.149  17.844   8.677 -0.1513  0.2477  0.3436
  523loPI   C5A 8363   9.177  17.716   8.231 -0.1347 -0.0685  0.1911
  523loPI   C6A 8364   8.874  17.539   7.838 -0.0152 -0.0381  0.0143
  523loPI   C1B 8365   8.788  17.399   9.685 -0.0992  0.3045 -0.1612
  523loPI   C2B 8366   8.710  17.506   9.214  0.3542  0.0559  0.1550
  523loPI   C3B 8367   8.699  17.470   8.742  0.2867  0.0224 -0.0864
  523loPI   C4B 8368   8.716  17.577   8.403 -0.3785  0.3458  0.0034
  524loPI    C1 8369   2.239   4.164  10.183  0.0214 -0.0512 -0.2632
  524loPI    C2 8370   2.123   3.907  10.467  0.2231 -0.0308 -0.1607
  524loPI    C3 8371   2.214   4.284  10.563  0.1399  0.0197 -0.2774
  524loPI   PO4 8372   2.228   4.059   9.947 -0.0605 -0.0332  0.2903
  524loPI   GL1 8373   2.069   3.945   9.613 -0.0371 -0.1753 -0.1836
  524loPI   GL2 8374   1.784   4.156   9.609  0.0120  0.2772  0.0457
  524loPI   C1A 8375   1.892   3.743   9.253 -0.3763  0.0850  0.0634
  524loPI   C2A 8376   1.946   3.876   8.879 -0.0891  0.0412  0.2297
  524loPI   C3A 8377   2.013   3.874   8.542  0.1400  0.0145  0.2724
  524loPI   C4A 8378   2.269   3.900   8.279  0.0271  0.0785  0.1144
  524loPI   C5A 8379   2.139   3.944   7.761 -0.0649 -0.1131  0.0801
  524loPI   C6A 8380   2.235   4.109   7.298 -0.0517  0.0249 -0.0977
  524loPI   C1B 8381   1.610   4.241   9.262 -0.2834  0.1129 -0.0601
  524loPI   C2B 8382   1.788   4.381   8.900  0.0543 -0.2096  0.1109
  524loPI   C3B 8383   1.993   4.373   8.511  0.0194  0.0409  0.0969
  524loPI   C4B 8384   2.037   4.370   7.995 -0.0290 -0.0127  0.2300
  525loPI    C1 8385   4.355   0.173  10.584 -0.0355 -0.0788 -0.1382
  525loPI    C2 8386   4.271  -0.129  10.832  0.3116  0.1521  0.2733
  525loPI    C3 8387   4.633  -0.103  10.664  0.1828  0.1749 -0.0061
  525loPI   PO4 8388   4.189   0.236  10.422  0.2407 -0.0280  0.2390
  525loPI   GL1 8389   4.287   0.454  10.058  0.2374  0.3779 -0.2979
  525loPI   GL2 8390   4.030   0.655   9.918  0.2066  0.0977  0.1192
  525loPI   C1A 8391   4.196   0.241   9.675 -0.3087 -0.3294  0.1235
  525loPI   C2A 8392   4.216   0.341   9.271 -0.0343 -0.0721  0.0868
  525loPI   C3A 8393   4.299   0.266   8.770 -0.1625  0.1155  0.4195
  525loPI   C4A 8394   4.182   0.303   8.360 -0.0152  0.1458 -0.1612
  525loPI   C5A 8395   4.180   0.242   7.899  0.0997 -0.1883 -0.3220
  525loPI   C6A 8396   4.438   0.495   7.590  0.0160 -0.1089 -0.0020
  525loPI   C1B 8397   4.050   0.724   9.516  0.2909  0.0138 -0.1454
  525loPI   C2B 8398   4.196   0.846   9.146 -0.1215  0.2717 -0.1151
  525loPI   C3B 8399   4.141   0.787   8.701  0.1775 -0.0455 -0.0806
  525loPI   C4B 8400   4.061   0.835   8.370 -0.3217 -0.0399  0.0843
  526loPI    C1 8401   5.506   5.534  10.634  0.1494  0.0744  0.2342
  526loPI    C2 8402   5.814   5.321  10.493 -0.0006  0.1038 -0.1496
  526loPI    C3 8403   5.878   5.616  10.755  0.2235 -0.3184  0.2870
  526loPI   PO4 8404   5.353   5.470  10.370  0.0113  0.0846 -0.0756
  526loPI   GL1 8405   5.284   5.371  10.013  0.1071  0.1138  0.0474
  526loPI   GL2 8406   4.943   5.403   9.643  0.1666  0.1419  0.1404
  526loPI   C1A 8407   5.458   5.579   9.616  0.3123 -0.3132 -0.0170
  526loPI   C2A 8408   5.494   5.609   9.153 -0.1065  0.1237  0.3774
  526loPI   C3A 8409   5.533   5.670   8.692 -0.0480  0.2828  0.1101
  526loPI   C4A 8410   5.667   5.727   8.187 -0.0101 -0.0962  0.2659
  526loPI   C5A 8411   5.296   5.542   7.909  0.1269  0.2100 -0.0208
  526loPI   C6A 8412   4.976   5.270   7.677  0.0141 -0.2899 -0.0720
  526loPI   C1B 8413   4.958   5.226   9.182 -0.3021  0.0150  0.1908
  526loPI   C2B 8414   5.147   5.322   8.783  0.1276  0.2236 -0.2549
  526loPI   C3B 8415   5.315   5.308   8.397 -0.4820  0.1786 -0.1283
  526loPI   C4B 8416   5.455   5.115   8.046  0.0475  0.0393 -0.0544
  527loPI    C1 8417   7.449  16.987  10.654 -0.5159  0.0242  0.0704
  527loPI    C2 8418   7.428  16.683  10.912 -0.1481  0.0411  0.1252
  527loPI    C3 8419   7.414  17.060  11.045 -0.0576  0.0493  0.1120
  527loPI   PO4 8420   7.608  16.966  10.497  0.0587 -0.0524 -0.0415
  527loPI   GL1 8421   7.785  16.983  10.153 -0.0124 -0.2102 -0.0494
  527loPI   GL2 8422   7.808  17.209   9.986 -0.0208 -0.0056 -0.5062
  527loPI   C1A 8423   7.928  16.838   9.697  0.0264 -0.1938  0.0265
  527loPI   C2A 8424   8.010  16.793   9.194  0.1049  0.2292  0.0132
  527loPI   C3A 8425   7.914  16.886   8.742 -0.1984  0.0960  0.2554
  527loPI   C4A 8426   7.917  16.795   8.349 -0.2666 -0.3005 -0.0705
  527loPI   C5A 8427   7.798  16.997   7.981 -0.0329  0.3683 -0.0306
  527loPI   C6A 8428   7.552  17.241   7.637 -0.1222  0.1319  0.0188
  527loPI   C1B 8429   7.900  17.312   9.574 -0.0378  0.0962 -0.3136
  527loPI   C2B 8430   7.840  17.450   9.172 -0.0298 -0.1915  0.1459
  527loPI   C3B 8431   7.809  17.389   8.783 -0.0264 -0.0774 -0.1247
  527loPI   C4B 8432   7.756  17.345   8.330 -0.0987 -0.0150 -0.2849
  528loPI    C1 8433   3.314   3.252  10.258 -0.1277  0.0253  0.0243
  528loPI    C2 8434   3.373   3.110  10.627  0.0388 -0.2161 -0.0924
  528loPI    C3 8435   3.341   3.504  10.567 -0.1401 -0.1835  0.1979
  528loPI   PO4 8436   3.519   3.244  10.109  0.1404 -0.0262 -0.3598
  528loPI   GL1 8437   3.703   3.106   9.781  0.2460  0.0700  0.1442
  528loPI   GL2 8438   3.996   2.894   9.825 -0.0369  0.0850  0.1521
  528loPI   C1A 8439   3.643   3.319   9.368 -0.0028 -0.3520  0.0824
  528loPI   C2A 8440   3.531   3.482   9.024 -0.3097 -0.3567 -0.0315
  528loPI   C3A 8441   3.617   3.260   8.711  0.0935 -0.2324  0.1215
  528loPI   C4A 8442   3.675   3.290   8.275 -0.0573  0.2047  0.0259
  528loPI   C5A 8443   3.953   3.255   7.833  0.3744  0.2321 -0.1557
  528loPI   C6A 8444   4.094   3.159   7.422 -0.0328  0.1753 -0.1497
  528loPI   C1B 8445   4.180   2.717   9.468  0.1236 -0.2959 -0.1174
  528loPI   C2B 8446   4.115   2.627   9.108 -0.1873 -0.0782 -0.0296
  528loPI   C3B 8447   4.359   2.652   8.674  0.6293 -0.0266 -0.1689
  528loPI   C4B 8448   4.179   2.587   8.333  0.0174 -0.0035  0.0927
  529loPI    C1 8449   5.549  15.608  10.793 -0.0058  0.2835  0.0859
  529loPI    C2 8450   5.637  15.293  11.024  0.1731  0.1891 -0.1079
  529loPI    C3 8451   5.310  15.511  11.099  0.2045  0.1330  0.2051
  529loPI   PO4 8452   5.560  15.621  10.552  0.4967  0.4648 -0.0739
  529loPI   GL1 8453   5.142  15.494  10.261  0.2308  0.2597  0.2650
  529loPI   GL2 8454   4.941  15.706  10.108  0.0334 -0.0888 -0.1877
  529loPI   C1A 8455   5.443  15.480   9.928  0.1798  0.2275  0.4104
  529loPI   C2A 8456   5.498  15.277   9.467  0.0944  0.0606  0.3202
  529loPI   C3A 8457   5.538  15.192   9.063 -0.0188 -0.0229 -0.0290
  529loPI   C4A 8458   5.500  15.308   8.646  0.0067  0.0871  0.0694
  529loPI   C5A 8459   5.392  15.326   8.161 -0.1856  0.0328  0.0107
  529loPI   C6A 8460   4.943  15.253   7.961 -0.3398  0.0592 -0.0628
  529loPI   C1B 8461   4.901  15.515   9.668 -0.1641  0.0209  0.1441
  529loPI   C2B 8462   4.960  15.431   9.308 -0.1658  0.1276  0.2558
  529loPI   C3B 8463   4.918  15.445   8.929 -0.0937  0.0190 -0.0262
  529loPI   C4B 8464   5.022  15.353   8.529 -0.0134  0.1531  0.3988
  530loPI    C1 8465   0.717   4.741  10.376 -0.0843 -0.0786 -0.0416
  530loPI    C2 8466   0.326   4.723  10.295 -0.1440 -0.0854  0.2376
  530loPI    C3 8467   0.476   5.041  10.485 -0.0156 -0.0897  0.1442
  530loPI   PO4 8468   0.856   4.638   9.988 -0.2498 -0.1754  0.1110
  530loPI   GL1 8469   0.606   4.589   9.566 -0.0593 -0.0678  0.1679
  530loPI   GL2 8470   0.356   4.512   9.424  0.0929  0.3198 -0.1983
  530loPI   C1A 8471   0.593   4.908   9.207 -0.1538  0.0999 -0.2857
  530loPI   C2A 8472   0.556   4.831   8.751  0.0485  0.3446 -0.2963
  530loPI   C3A 8473   0.633   4.813   8.317 -0.0375  0.0063  0.1996
  530loPI   C4A 8474   0.625   4.979   7.933  0.1547 -0.2557 -0.3270
  530loPI   C5A 8475   0.517   5.006   7.483 -0.2170 -0.4274 -0.2406
  530loPI   C6A 8476   0.162   4.864   7.216  0.4852 -0.0338  0.0894
  530loPI   C1B 8477   0.766   4.449   9.124  0.3317  0.3170  0.0110
  530loPI   C2B 8478   0.809   4.425   8.615  0.2747 -0.1290 -0.1176
  530loPI   C3B 8479   1.237   4.295   8.396 -0.0072 -0.0941  0.0958
  530loPI   C4B 8480   1.158   4.255   7.825 -0.2823  0.1909  0.0888
  531loPI    C1 8481  16.349  14.982   9.957 -0.0678 -0.1439  0.1117
  531loPI    C2 8482  16.291  14.645   9.749 -0.2111 -0.0547  0.0052
  531loPI    C3 8483  15.978  14.853   9.885 -0.1218 -0.0021  0.1326
  531loPI   PO4 8484  16.455  15.108   9.809  0.2328 -0.0827  0.1242
  531loPI   GL1 8485  16.576  15.320   9.451  0.3812  0.2065 -0.0055
  531loPI   GL2 8486  16.181  15.267   9.455  0.1545  0.1161  0.0240
  531loPI   C1A 8487  16.472  15.546   9.072  0.2008  0.0826 -0.0816
  531loPI   C2A 8488  16.436  15.632   8.684 -0.4107  0.1433 -0.1952
  531loPI   C3A 8489  16.308  15.774   8.288 -0.1675 -0.4475  0.1112
  531loPI   C4A 8490  16.258  15.687   7.805 -0.1462  0.1299  0.3248
  531loPI   C5A 8491  16.142  15.694   7.389  0.1611  0.0100 -0.2195
  531loPI   C6A 8492  16.496  15.505   7.039 -0.3012 -0.2725  0.2844
  531loPI   C1B 8493  16.358  14.938   9.100 -0.4139  0.2331  0.0584
  531loPI   C2B 8494  16.420  14.728   8.750 -0.0584  0.1512 -0.4170
  531loPI   C3B 8495  16.256  14.475   8.474  0.3092  0.2698  0.2250
  531loPI   C4B 8496  16.288  14.136   8.229 -0.1057 -0.0751  0.2491
  532loPI    C1 8497  14.391  10.241  10.163  0.1495 -0.1862 -0.0648
  532loPI    C2 8498  14.551  10.597  10.254 -0.1624 -0.0408 -0.0711
  532loPI    C3 8499  14.642  10.274  10.473 -0.0448  0.0853  0.0682
  532loPI   PO4 8500  14.320  10.296   9.811 -0.4624  0.1355  0.0980
  532loPI   GL1 8501  14.183  10.555   9.518 -0.0238  0.2022 -0.1498
  532loPI   GL2 8502  14.041  10.800   9.641  0.2351 -0.1465  0.1080
  532loPI   C1A 8503  14.071  10.437   9.081  0.4511 -0.4604 -0.1979
  532loPI   C2A 8504  13.885  10.486   8.688  0.4374 -0.2097 -0.1344
  532loPI   C3A 8505  13.789  10.451   8.246 -0.3290 -0.0130  0.2365
  532loPI   C4A 8506  13.611  10.405   7.876  0.2732  0.2453 -0.3528
  532loPI   C5A 8507  13.382  10.232   7.603 -0.0402  0.0033 -0.0576
  532loPI   C6A 8508  13.419   9.819   7.416 -0.1189 -0.1862  0.0209
  532loPI   C1B 8509  13.839  10.852   9.242  0.0187 -0.2223 -0.5396
  532loPI   C2B 8510  13.731  10.955   8.958  0.1209  0.4331  0.0879
  532loPI   C3B 8511  13.608  10.880   8.513 -0.3473 -0.3079  0.2452
  532loPI   C4B 8512  13.610  10.967   8.115  0.0287  0.1530 -0.1757
  533loPI    C1 8513   5.813  18.386  10.691  0.1659  0.1315  0.1795
  533loPI    C2 8514   5.450  18.511  10.802 -0.0134 -0.0667 -0.1668
  533loPI    C3 8515   5.669  18.288  11.050 -0.2035 -0.0975 -0.0245
  533loPI   PO4 8516   5.843  18.472  10.435 -0.2423 -0.1231  0.0103
  533loPI   GL1 8517   6.068  18.538  10.066 -0.0855 -0.0549  0.0482
  533loPI   GL2 8518   6.077  18.835   9.984 -0.0913 -0.3624  0.2475
  533loPI   C1A 8519   6.172  18.357   9.690  0.1659 -0.1157 -0.1407
  533loPI   C2A 8520   6.187  18.376   9.301  0.0782 -0.0281  0.1908
  533loPI   C3A 8521   6.204  18.406   8.804  0.1204  0.0740 -0.0379
  533loPI   C4A 8522   6.218  18.389   8.380  0.0583  0.4002  0.1191
  533loPI   C5A 8523   6.545  18.203   8.084  0.0290  0.2044  0.2569
  533loPI   C6A 8524   6.472  17.894   7.825 -0.0604  0.1690 -0.0972
  533loPI   C1B 8525   6.104  19.018   9.530  0.0325 -0.0841  0.0300
  533loPI   C2B 8526   6.094  18.885   9.006  0.0453  0.3938 -0.1807
  533loPI   C3B 8527   6.083  18.901   8.542  0.1064 -0.0615  0.0351
  533loPI   C4B 8528   6.206  19.044   8.100  0.0613  0.0129 -0.0898
  534loPI    C1 8529   5.638   8.093  10.392  0.1032 -0.0823 -0.0354
  534loPI    C2 8530   5.314   7.908  10.247  0.1641 -0.1607 -0.0721
  534loPI    C3 8531   5.365   7.941  10.642 -0.0006  0.0501 -0.0663
  534loPI   PO4 8532   5.918   7.952  10.244  0.1711 -0.0427  0.2071
  534loPI   GL1 8533   5.989   7.702   9.772 -0.0378 -0.2926 -0.0701
  534loPI   GL2 8534   6.343   7.494   9.643  0.0840  0.0099 -0.3522
  534loPI   C1A 8535   5.989   7.805   9.398 -0.0040 -0.0441 -0.0044
  534loPI   C2A 8536   6.050   7.860   8.994 -0.0163  0.1524 -0.0080
  534loPI   C3A 8537   6.135   7.929   8.524  0.0245  0.0398  0.0520
  534loPI   C4A 8538   6.158   7.819   8.063 -0.1202  0.0709 -0.0313
  534loPI   C5A 8539   6.177   7.935   7.580 -0.1121  0.1271 -0.3065
  534loPI   C6A 8540   6.322   7.780   7.327  0.0054  0.0837  0.1715
  534loPI   C1B 8541   6.501   7.615   9.304 -0.3289 -0.0378  0.1633
  534loPI   C2B 8542   6.581   7.771   8.821 -0.1908 -0.1870 -0.0081
  534loPI   C3B 8543   6.630   7.688   8.281  0.1293 -0.4051 -0.0036
  534loPI   C4B 8544   6.591   7.726   7.786  0.0434  0.1887 -0.0059
  535loPI    C1 8545   4.377   7.648  10.588 -0.0553  0.1551  0.0493
  535loPI    C2 8546   4.616   7.333  10.647  0.0586  0.2494  0.0968
  535loPI    C3 8547   4.273   7.364  10.850  0.0194  0.1283  0.0503
  535loPI   PO4 8548   4.426   7.696  10.260  0.1725 -0.0850 -0.2304
  535loPI   GL1 8549   4.437   7.623   9.825 -0.4134 -0.0883  0.1419
  535loPI   GL2 8550   4.490   7.886   9.571  0.2843 -0.3749 -0.1940
  535loPI   C1A 8551   4.566   7.377   9.445  0.0349 -0.0643  0.4581
  535loPI   C2A 8552   4.621   7.433   8.907 -0.1794  0.1427  0.2526
  535loPI   C3A 8553   4.831   7.462   8.510  0.0862 -0.2825  0.1717
  535loPI   C4A 8554   4.814   7.399   8.016  0.3285  0.0822 -0.1251
  535loPI   C5A 8555   4.636   7.107   7.821  0.3035 -0.0151  0.0850
  535loPI   C6A 8556   4.298   6.841   7.606  0.2938 -0.2586 -0.1863
  535loPI   C1B 8557   4.455   7.852   9.128 -0.0033  0.1328 -0.0946
  535loPI   C2B 8558   4.592   7.844   8.685 -0.2378  0.0523 -0.1870
  535loPI   C3B 8559   4.800   7.896   8.269 -0.1561 -0.1402  0.3988
  535loPI   C4B 8560   4.728   7.933   7.859  0.2029 -0.0923 -0.1091
  536loPI    C1 8561  12.402   0.091  10.352 -0.0019 -0.0491  0.0895
  536loPI    C2 8562  12.304   0.351  10.639 -0.0081  0.0282  0.0179
  536loPI    C3 8563  12.553   0.049  10.720 -0.0520  0.0182  0.1179
  536loPI   PO4 8564  12.402   0.206  10.131 -0.0563  0.3347 -0.3769
  536loPI   GL1 8565  12.190   0.452   9.786  0.1649 -0.0398  0.1226
  536loPI   GL2 8566  12.507   0.636   9.900  0.1374 -0.1075  0.1051
  536loPI   C1A 8567  12.205   0.425   9.334 -0.0640  0.1037 -0.0073
  536loPI   C2A 8568  12.094   0.435   8.913  0.1681  0.0672 -0.4433
  536loPI   C3A 8569  11.981   0.304   8.493  0.1718  0.1090  0.1075
  536loPI   C4A 8570  11.967   0.422   8.009  0.0860  0.3244  0.3018
  536loPI   C5A 8571  12.084   0.764   7.761 -0.1642  0.0440 -0.0286
  536loPI   C6A 8572  11.764   1.195   7.787 -0.1785  0.0990 -0.5434
  536loPI   C1B 8573  12.532   0.778   9.481 -0.0529 -0.4859 -0.1722
  536loPI   C2B 8574  12.510   0.753   9.072 -0.0795 -0.1734  0.1804
  536loPI   C3B 8575  12.452   0.791   8.628  0.1867  0.0537 -0.0265
  536loPI   C4B 8576  12.372   0.651   8.170 -0.2489 -0.3128  0.0170
  537loPI    C1 8577   1.977  10.268  10.220  0.0658  0.0462 -0.1198
  537loPI    C2 8578   2.281  10.012  10.171 -0.1221 -0.2047 -0.0001
  537loPI    C3 8579   2.171  10.124  10.539  0.0078  0.1126 -0.0544
  537loPI   PO4 8580   2.074  10.487   9.909 -0.0687  0.0045 -0.2249
  537loPI   GL1 8581   1.992  10.251   9.579 -0.1104  0.0885  0.1288
  537loPI   GL2 8582   2.202  10.101   9.270 -0.1450  0.2047  0.0018
  537loPI   C1A 8583   1.752  10.307   9.116  0.2511 -0.1230  0.2208
  537loPI   C2A 8584   1.707  10.344   8.776 -0.1274  0.2526 -0.2275
  537loPI   C3A 8585   1.747  10.267   8.421  0.1012 -0.3433 -0.0454
  537loPI   C4A 8586   1.754  10.242   8.024  0.3074 -0.0307 -0.2208
  537loPI   C5A 8587   1.667  10.346   7.722 -0.2471  0.1142 -0.0529
  537loPI   C6A 8588   1.558  10.341   7.329  0.0502  0.2716  0.1481
  537loPI   C1B 8589   2.211  10.064   8.786  0.0680 -0.1887 -0.1135
  537loPI   C2B 8590   2.193  10.102   8.304 -0.1178 -0.0490 -0.1218
  537loPI   C3B 8591   2.259  10.107   7.808 -0.2370 -0.1337  0.1309
  537loPI   C4B 8592   1.977   9.953   7.522 -0.2297 -0.0805  0.0981
  538loPI    C1 8593   2.140  17.592  10.362  0.0090  0.0476  0.1551
  538loPI    C2 8594   2.499  17.518  10.520  0.0787  0.0381 -0.0059
  538loPI    C3 8595   2.271  17.216  10.392  0.0585  0.0519 -0.0023
  538loPI   PO4 8596   2.309  17.787  10.072  0.3142  0.3285 -0.0458
  538loPI   GL1 8597   2.385  17.946   9.718 -0.0037 -0.0581 -0.2811
  538loPI   GL2 8598   2.295  17.699   9.585  0.3049  0.2033 -0.0669
  538loPI   C1A 8599   2.573  17.923   9.222 -0.1930 -0.0491  0.0085
  538loPI   C2A 8600   2.659  17.833   8.846 -0.2361 -0.2346 -0.3136
  538loPI   C3A 8601   2.647  17.834   8.435 -0.0196  0.0222 -0.1192
  538loPI   C4A 8602   2.701  17.925   7.977 -0.3518 -0.0313 -0.2653
  538loPI   C5A 8603   3.061  18.053   7.620  0.1653  0.0610  0.0553
  538loPI   C6A 8604   3.274  17.947   7.191 -0.1186 -0.1917 -0.1840
  538loPI   C1B 8605   2.152  17.535   9.177  0.2610 -0.1928 -0.1452
  538loPI   C2B 8606   2.108  17.533   8.897 -0.1697  0.1695 -0.2526
  538loPI   C3B 8607   2.135  17.545   8.587  0.0612  0.3121 -0.3009
  538loPI   C4B 8608   2.240  17.466   8.244 -0.1981  0.1364 -0.2034
  539loPI    C1 8609  14.303  15.538  10.312 -0.2748 -0.0806  0.1812
  539loPI    C2 8610  14.576  15.367  10.550 -0.2062 -0.1607  0.0461
  539loPI    C3 8611  14.351  15.668  10.687 -0.0351 -0.0799  0.1519
  539loPI   PO4 8612  14.461  15.466  10.033  0.1126 -0.3268 -0.1804
  539loPI   GL1 8613  14.376  15.606   9.666 -0.5161  0.1266 -0.2993
  539loPI   GL2 8614  14.608  15.720   9.373  0.0633  0.1213  0.2030
  539loPI   C1A 8615  14.133  15.431   9.345 -0.0345 -0.0352 -0.2340
  539loPI   C2A 8616  13.981  15.360   8.903  0.1382 -0.0687  0.0531
  539loPI   C3A 8617  13.887  15.311   8.414  0.2211 -0.0329  0.1153
  539loPI   C4A 8618  13.956  15.286   7.932 -0.1039 -0.1250  0.1178
  539loPI   C5A 8619  13.610  15.069   7.765 -0.0719  0.0698  0.0206
  539loPI   C6A 8620  13.280  14.961   7.675 -0.3497 -0.0460  0.1556
  539loPI   C1B 8621  14.626  15.732   8.869  0.1391  0.1785  0.0999
  539loPI   C2B 8622  14.812  15.787   8.431  0.0378  0.3624  0.1097
  539loPI   C3B 8623  14.979  15.473   8.150  0.0263 -0.1431  0.0264
  539loPI   C4B 8624  14.793  14.974   8.015 -0.2280 -0.2274  0.2414
  540loPI    C1 8625  17.290  12.395   9.893 -0.0614 -0.0755  0.1539
  540loPI    C2 8626  16.974  12.447  10.132 -0.1639  0.0088  0.0015
  540loPI    C3 8627  17.133  12.759   9.939 -0.0248 -0.0434  0.0306
  540loPI   PO4 8628  17.183  12.190   9.709  0.0088 -0.0120 -0.0379
  540loPI   GL1 8629  17.329  12.140   9.366  0.1947 -0.0946 -0.2049
  540loPI   GL2 8630  17.135  11.963   9.253  0.3618  0.0022 -0.0134
  540loPI   C1A 8631  17.243  12.574   9.047  0.1870  0.0297 -0.0116
  540loPI   C2A 8632  17.151  12.566   8.606  0.1073  0.1688  0.3576
  540loPI   C3A 8633  16.965  12.628   8.227  0.0926  0.4056 -0.2022
  540loPI   C4A 8634  16.978  12.661   7.750  0.0406  0.1086  0.2950
  540loPI   C5A 8635  17.281  12.384   7.504 -0.4885  0.0850  0.0162
  540loPI   C6A 8636  17.572  11.961   7.622 -0.2155  0.0099 -0.1922
  540loPI   C1B 8637  16.963  12.087   8.846 -0.0097 -0.2530  0.1240
  540loPI   C2B 8638  16.994  12.139   8.402 -0.1624 -0.0936 -0.1012
  540loPI   C3B 8639  17.351  12.345   8.179  0.2049  0.1239  0.0267
  540loPI   C4B 8640  17.716  12.520   7.780  0.0111 -0.3303  0.0641
  541loPI    C1 8641   9.267  15.851  10.561  0.0186 -0.1011  0.0176
  541loPI    C2 8642   8.910  15.819  10.738 -0.1623  0.1938 -0.2823
  541loPI    C3 8643   9.244  15.798  10.957 -0.3651  0.0612  0.0218
  541loPI   PO4 8644   9.173  15.866  10.237  0.0112 -0.1651  0.3135
  541loPI   GL1 8645   9.305  15.956   9.739 -0.4508  0.0192  0.0461
  541loPI   GL2 8646   9.041  15.907   9.732 -0.1333  0.1603  0.3033
  541loPI   C1A 8647   9.650  15.875   9.395 -0.3167 -0.0960  0.0642
  541loPI   C2A 8648   9.565  15.830   8.939  0.2248  0.2896 -0.2096
  541loPI   C3A 8649   9.520  15.769   8.494  0.2956 -0.0690  0.0011
  541loPI   C4A 8650   9.626  15.810   8.113 -0.2607  0.0969 -0.4291
  541loPI   C5A 8651   9.981  15.683   7.822 -0.0875 -0.0226 -0.2893
  541loPI   C6A 8652  10.422  15.710   7.567  0.3683 -0.0704  0.2732
  541loPI   C1B 8653   9.108  15.970   9.216 -0.1274  0.2925 -0.0536
  541loPI   C2B 8654   9.082  15.926   8.816 -0.0437  0.1806  0.2883
  541loPI   C3B 8655   8.984  15.974   8.439 -0.2520  0.0897 -0.0292
  541loPI   C4B 8656   9.056  15.897   8.017  0.2074  0.0386  0.2079
  542loPI    C1 8657  17.843  11.494   9.749  0.0580  0.0116 -0.0956
  542loPI    C2 8658  18.234  11.515   9.670  0.1035  0.1203  0.1493
  542loPI    C3 8659  18.061  11.159   9.731  0.0850  0.0403 -0.3328
  542loPI   PO4 8660  17.680  11.617   9.601  0.2209 -0.1908  0.1543
  542loPI   GL1 8661  17.685  11.875   9.155 -0.0699  0.1873 -0.4255
  542loPI   GL2 8662  17.501  11.953   8.867  0.1122  0.1456 -0.1689
  542loPI   C1A 8663  17.981  11.843   8.788  0.0280  0.1240 -0.1483
  542loPI   C2A 8664  17.998  11.643   8.345  0.0115 -0.0383  0.1995
  542loPI   C3A 8665  17.800  11.541   7.867  0.1477  0.1263 -0.1563
  542loPI   C4A 8666  17.860  11.584   7.468 -0.2228  0.0968  0.1460
  542loPI   C5A 8667  18.066  11.842   7.207  0.1527  0.3798  0.2442
  542loPI   C6A 8668  18.377  12.108   7.189  0.0636 -0.2337  0.0736
  542loPI   C1B 8669  17.586  11.928   8.457  0.1104  0.0072 -0.0467
  542loPI   C2B 8670  17.357  11.815   8.148 -0.3015 -0.1286  0.1289
  542loPI   C3B 8671  17.133  12.007   7.898  0.0227 -0.2470 -0.2986
  542loPI   C4B 8672  17.078  11.949   7.414  0.0411 -0.0264  0.1959
  543loPI    C1 8673  13.194  12.728  10.550  0.0840 -0.1086  0.1947
  543loPI    C2 8674  13.286  13.092  10.687  0.0335 -0.0425  0.0553
  543loPI    C3 8675  13.095  12.832  10.923 -0.0777  0.0795  0.1011
  543loPI   PO4 8676  13.064  12.673  10.226 -0.1020  0.0881 -0.0461
  543loPI   GL1 8677  12.753  12.899   9.949 -0.2990 -0.0403  0.3846
  543loPI   GL2 8678  13.120  12.909   9.796  0.1724  0.1454  0.2974
  543loPI   C1A 8679  12.571  13.049   9.628 -0.0634  0.1038 -0.1168
  543loPI   C2A 8680  12.446  12.961   9.132  0.0258 -0.0013  0.1078
  543loPI   C3A 8681  12.478  12.790   8.773  0.2807 -0.0175  0.1485
  543loPI   C4A 8682  12.348  12.877   8.281 -0.0321  0.0744  0.1448
  543loPI   C5A 8683  12.423  12.994   7.873  0.1411  0.0580  0.1400
  543loPI   C6A 8684  12.772  12.867   7.644 -0.0290  0.3978 -0.0477
  543loPI   C1B 8685  12.942  13.113   9.318 -0.2816 -0.2637 -0.1030
  543loPI   C2B 8686  12.934  13.234   8.918 -0.2946 -0.1510  0.2639
  543loPI   C3B 8687  12.790  13.153   8.614  0.0232  0.0415  0.0185
  543loPI   C4B 8688  12.805  13.148   8.182  0.0108 -0.0827 -0.1739
  544loPI    C1 8689  11.310  13.977  10.454  0.0153  0.2447  0.0123
  544loPI    C2 8690  11.591  14.082  10.719  0.1970 -0.3902  0.0877
  544loPI    C3 8691  11.233  13.956  10.846  0.2165 -0.5082  0.0271
  544loPI   PO4 8692  11.523  13.795  10.267  0.0071 -0.0717  0.2091
  544loPI   GL1 8693  11.624  13.574   9.865  0.2375  0.1366  0.1096
  544loPI   GL2 8694  11.684  13.339   9.793  0.5039 -0.0428 -0.2095
  544loPI   C1A 8695  11.493  13.890   9.592  0.2346  0.1089  0.2538
  544loPI   C2A 8696  11.355  13.775   9.185 -0.2012 -0.4117 -0.1825
  544loPI   C3A 8697  11.407  13.753   8.758  0.0408 -0.1740 -0.1814
  544loPI   C4A 8698  11.354  13.698   8.322 -0.0830  0.1867 -0.1580
  544loPI   C5A 8699  11.334  13.760   7.858 -0.1729  0.0568  0.0321
  544loPI   C6A 8700  10.997  13.727   7.547 -0.0410 -0.0030  0.1899
  544loPI   C1B 8701  11.528  13.321   9.328  0.0354 -0.0630 -0.2796
  544loPI   C2B 8702  11.457  13.317   8.959  0.0242 -0.2504 -0.2024
  544loPI   C3B 8703  11.393  13.222   8.541  0.0979 -0.5344  0.2045
  544loPI   C4B 8704  11.378  13.224   8.139  0.2949 -0.0366  0.1187
  545loPI    C1 8705   8.852   3.021  10.751  0.1090 -0.5296  0.1095
  545loPI    C2 8706   8.954   3.153  11.114  0.1648  0.2094 -0.1586
  545loPI    C3 8707   8.596   2.984  11.057  0.1700  0.0509  0.2414
  545loPI   PO4 8708   9.130   2.910  10.523 -0.2142  0.0684  0.0202
  545loPI   GL1 8709   9.262   2.713  10.142 -0.0846 -0.3469 -0.2154
  545loPI   GL2 8710   8.953   2.502  10.040 -0.2804 -0.2401 -0.3781
  545loPI   C1A 8711   9.392   2.718   9.726  0.0508  0.3888 -0.0554
  545loPI   C2A 8712   9.393   2.701   9.318  0.3619  0.1352  0.2075
  545loPI   C3A 8713   9.390   2.779   8.898 -0.0411  0.2416  0.3611
  545loPI   C4A 8714   9.431   2.780   8.551  0.1021  0.1904 -0.0882
  545loPI   C5A 8715   9.388   2.839   8.092 -0.2003 -0.0267 -0.0705
  545loPI   C6A 8716   9.314   3.023   7.772  0.1454  0.3876 -0.0194
  545loPI   C1B 8717   8.967   2.390   9.561  0.0810  0.0664  0.2673
  545loPI   C2B 8718   8.992   2.343   9.123 -0.0913  0.0272 -0.3245
  545loPI   C3B 8719   8.912   2.499   8.752 -0.1339  0.4380 -0.1201
  545loPI   C4B 8720   9.036   2.467   8.259  0.3978  0.0154 -0.4806
  546loPI    C1 8721  14.262   1.717  10.294 -0.0758  0.0323  0.1990
  546loPI    C2 8722  14.617   1.534  10.268 -0.0327  0.1129  0.2181
  546loPI    C3 8723  14.580   1.870  10.482 -0.1037  0.1459  0.1543
  546loPI   PO4 8724  14.143   1.765  10.014 -0.1412  0.2296 -0.0301
  546loPI   GL1 8725  14.035   1.601   9.563 -0.0815 -0.1860 -0.3881
  546loPI   GL2 8726  13.777   1.815   9.442 -0.3658  0.1682  0.0073
  546loPI   C1A 8727  14.235   1.635   9.136  0.1309 -0.2155  0.3655
  546loPI   C2A 8728  14.097   1.593   8.648  0.4368 -0.1185 -0.1377
  546loPI   C3A 8729  14.049   1.585   8.202 -0.0722 -0.0138  0.0882
  546loPI   C4A 8730  14.012   1.614   7.729 -0.1629 -0.0622 -0.0818
  546loPI   C5A 8731  13.919   1.568   7.388 -0.0906  0.3336 -0.1419
  546loPI   C6A 8732  13.983   1.466   6.940 -0.2215 -0.3948 -0.3586
  546loPI   C1B 8733  13.688   1.829   9.038  0.1456 -0.3151  0.2399
  546loPI   C2B 8734  13.589   1.779   8.591  0.2568  0.0795  0.0822
  546loPI   C3B 8735  13.456   1.833   8.098  0.0960  0.5635 -0.0618
  546loPI   C4B 8736  13.594   1.938   7.616 -0.3380 -0.1189  0.1433
  547loPI    C1 8737  13.709   3.322  10.348 -0.0987 -0.0793 -0.2569
  547loPI    C2 8738  13.318   3.399  10.379 -0.0633  0.1389 -0.3361
  547loPI    C3 8739  13.557   3.452  10.694 -0.1513 -0.3386 -0.1798
  547loPI   PO4 8740  13.749   3.159  10.139 -0.0275  0.0245 -0.0869
  547loPI   GL1 8741  13.513   3.212   9.823 -0.2546  0.2228  0.2807
  547loPI   GL2 8742  13.230   3.097  10.006  0.1720 -0.0072  0.4049
  547loPI   C1A 8743  13.533   3.390   9.469  0.5464  0.0964 -0.1175
  547loPI   C2A 8744  13.418   3.307   8.978 -0.0288 -0.0636  0.2246
  547loPI   C3A 8745  13.375   3.333   8.642 -0.3381 -0.3200  0.1375
  547loPI   C4A 8746  13.078   3.361   8.211 -0.1018 -0.1441 -0.1159
  547loPI   C5A 8747  13.139   3.428   7.769  0.3750 -0.1896 -0.1646
  547loPI   C6A 8748  13.489   3.376   7.458  0.1581 -0.0589 -0.0636
  547loPI   C1B 8749  13.107   3.015   9.563 -0.0918 -0.0763 -0.0562
  547loPI   C2B 8750  12.936   2.961   9.192 -0.4153  0.0105 -0.1394
  547loPI   C3B 8751  13.023   3.064   8.805 -0.1594 -0.2547 -0.1810
  547loPI   C4B 8752  12.951   2.971   8.418  0.4592 -0.0137  0.0871
  548loPI    C1 8753   7.251   3.192  10.133  0.3348  0.0752 -0.2104
  548loPI    C2 8754   7.439   2.990  10.423  0.0878  0.0914 -0.0361
  548loPI    C3 8755   7.510   3.380  10.373  0.1483  0.0834 -0.0129
  548loPI   PO4 8756   7.033   3.011  10.073  0.0944 -0.3473 -0.1669
  548loPI   GL1 8757   7.089   2.878   9.712 -0.3078 -0.1959 -0.0206
  548loPI   GL2 8758   6.977   2.531   9.755  0.2082  0.0475  0.0002
  548loPI   C1A 8759   7.327   2.998   9.302 -0.0781 -0.1548  0.0906
  548loPI   C2A 8760   7.337   3.007   8.871 -0.1953  0.0418 -0.2163
  548loPI   C3A 8761   7.355   2.940   8.492 -0.0575 -0.1036  0.2016
  548loPI   C4A 8762   7.417   2.985   8.064  0.0423 -0.2161 -0.1180
  548loPI   C5A 8763   7.585   3.104   7.623  0.3679  0.0364  0.0538
  548loPI   C6A 8764   7.638   3.150   7.195 -0.1182  0.3155 -0.0927
  548loPI   C1B 8765   6.994   2.616   9.321 -0.2329  0.1515 -0.0133
  548loPI   C2B 8766   7.058   2.612   8.970  0.0648 -0.3666 -0.2983
  548loPI   C3B 8767   6.943   2.619   8.545 -0.2431 -0.1078  0.0541
  548loPI   C4B 8768   6.960   2.714   8.150  0.1687  0.3945 -0.0405
  549loPI    C1 8769   5.921  12.558  10.417  0.0830  0.2130  0.1058
  549loPI    C2 8770   6.238  12.626  10.653  0.1990 -0.0273  0.0215
  549loPI    C3 8771   5.894  12.497  10.812  0.1071  0.3365  0.1272
  549loPI   PO4 8772   6.091  12.455  10.212  0.3187 -0.1296 -0.2593
  549loPI   GL1 8773   6.236  12.521   9.815  0.3387 -0.2035 -0.1592
  549loPI   GL2 8774   6.492  12.410   9.766 -0.0419 -0.0015  0.1622
  549loPI   C1A 8775   6.005  12.604   9.437 -0.1391 -0.0998 -0.2286
  549loPI   C2A 8776   6.010  12.671   8.953 -0.3032  0.4554 -0.0129
  549loPI   C3A 8777   5.920  12.646   8.488  0.1719 -0.0118 -0.0282
  549loPI   C4A 8778   6.021  12.692   8.010 -0.0774  0.0059 -0.4083
  549loPI   C5A 8779   6.088  12.456   7.642 -0.0074 -0.0233  0.0520
  549loPI   C6A 8780   6.179  12.312   7.233 -0.1514 -0.0316 -0.2299
  549loPI   C1B 8781   6.568  12.478   9.307 -0.0866 -0.0424 -0.1539
  549loPI   C2B 8782   6.517  12.485   8.920 -0.0018 -0.1055  0.1324
  549loPI   C3B 8783   6.430  12.496   8.497  0.0793 -0.1972 -0.1474
  549loPI   C4B 8784   6.511  12.338   8.073 -0.3604 -0.0189 -0.1299
  550loPI    C1 8785   0.541   9.365  10.004 -0.2033 -0.0822 -0.1162
  550loPI    C2 8786   0.496   9.616  10.312 -0.2057 -0.0799 -0.1183
  550loPI    C3 8787   0.848   9.590  10.124 -0.1364 -0.2502  0.0317
  550loPI   PO4 8788   0.385   9.357   9.858  0.1485  0.0220  0.0413
  550loPI   GL1 8789   0.263   9.043   9.516 -0.1282 -0.1206 -0.3099
  550loPI   GL2 8790   0.591   9.163   9.422  0.0078 -0.2371 -0.0196
  550loPI   C1A 8791   0.021   9.231   9.151  0.0004  0.1717 -0.0108
  550loPI   C2A 8792   0.068   9.220   8.703  0.1684 -0.0242 -0.1299
  550loPI   C3A 8793   0.112   8.972   8.403 -0.0129 -0.1584 -0.0106
  550loPI   C4A 8794   0.093   8.802   7.970 -0.0453  0.3452  0.1847
  550loPI   C5A 8795  -0.129   8.559   7.684 -0.1793  0.2307  0.1369
  550loPI   C6A 8796  -0.561   8.395   7.669  0.0119 -0.1815 -0.0190
  550loPI   C1B 8797   0.500   9.279   8.954 -0.2218 -0.0504  0.0448
  550loPI   C2B 8798   0.554   9.292   8.438  0.0156 -0.2630  0.1278
  550loPI   C3B 8799   0.453   9.191   8.095  0.2306 -0.2486 -0.0735
  550loPI   C4B 8800   0.510   9.091   7.687 -0.0397  0.0810 -0.1360
  551loPI    C1 8801   2.701  11.690  10.014 -0.4484  0.2336 -0.0850
  551loPI    C2 8802   2.720  11.697  10.413 -0.1548 -0.2901 -0.0802
  551loPI    C3 8803   2.605  11.364  10.225  0.2023 -0.2152 -0.4456
  551loPI   PO4 8804   2.970  11.827   9.976  0.1575 -0.3583  0.2077
  551loPI   GL1 8805   3.024  11.938   9.626 -0.2375  0.1565  0.4033
  551loPI   GL2 8806   3.393  11.969   9.614 -0.1658  0.0103 -0.1566
  551loPI   C1A 8807   2.943  11.855   9.143  0.1041 -0.1131  0.2141
  551loPI   C2A 8808   2.930  11.770   8.702  0.0815 -0.2706  0.0399
  551loPI   C3A 8809   2.910  11.868   8.279 -0.1026  0.1025 -0.1041
  551loPI   C4A 8810   3.037  11.900   7.770 -0.4184  0.3229 -0.4001
  551loPI   C5A 8811   3.075  11.564   7.498 -0.2375  0.5281  0.0900
  551loPI   C6A 8812   3.263  11.092   7.338 -0.4419  0.0767 -0.0376
  551loPI   C1B 8813   3.387  12.065   9.225  0.1044 -0.2568  0.0590
  551loPI   C2B 8814   3.297  12.130   8.741 -0.0960 -0.1167 -0.0913
  551loPI   C3B 8815   3.323  12.165   8.338 -0.3162  0.1875 -0.1704
  551loPI   C4B 8816   3.289  12.339   7.977 -0.0631  0.0213  0.0632
  552loPI    C1 8817  14.712  13.283   9.912  0.1417 -0.1786  0.1753
  552loPI    C2 8818  14.624  13.355  10.295  0.3015 -0.1327  0.2043
  552loPI    C3 8819  14.929  13.547  10.120 -0.0881  0.2350 -0.0953
  552loPI   PO4 8820  14.513  13.098   9.905  0.2852 -0.2679  0.1147
  552loPI   GL1 8821  14.500  12.760   9.505 -0.2494 -0.0341 -0.0616
  552loPI   GL2 8822  14.564  13.065   9.443 -0.0097 -0.4160  0.1095
  552loPI   C1A 8823  14.538  12.569   9.174  0.0605 -0.0863 -0.0495
  552loPI   C2A 8824  14.405  12.564   8.747 -0.0713  0.0080  0.3320
  552loPI   C3A 8825  14.318  12.650   8.304  0.3023 -0.0846  0.0700
  552loPI   C4A 8826  14.500  12.575   7.839 -0.1442 -0.1714  0.3779
  552loPI   C5A 8827  14.916  12.683   7.629 -0.0620  0.0026 -0.0861
  552loPI   C6A 8828  15.214  12.672   7.290 -0.1879  0.0644 -0.0209
  552loPI   C1B 8829  14.570  13.015   8.926 -0.4524  0.1033  0.0870
  552loPI   C2B 8830  14.729  12.911   8.454  0.0201 -0.0740 -0.2575
  552loPI   C3B 8831  14.776  12.954   8.136 -0.0842  0.3093 -0.0029
  552loPI   C4B 8832  15.006  13.128   7.710  0.0272  0.0957  0.0085
  553loPI    C1 8833  17.392   5.315   9.675 -0.2075  0.1140  0.0234
  553loPI    C2 8834  17.336   5.619   9.928 -0.2064  0.0139  0.1452
  553loPI    C3 8835  17.291   5.243  10.056  0.4445 -0.0642  0.1754
  553loPI   PO4 8836  17.333   5.354   9.463  0.2048 -0.1066  0.1691
  553loPI   GL1 8837  17.131   5.366   9.124  0.0715 -0.1268 -0.0665
  553loPI   GL2 8838  17.066   5.036   9.007 -0.0105  0.1861 -0.2644
  553loPI   C1A 8839  16.791   5.492   8.789 -0.1915  0.0161  0.1602
  553loPI   C2A 8840  16.726   5.499   8.422 -0.0855  0.1000 -0.0725
  553loPI   C3A 8841  16.967   5.373   8.099  0.0927 -0.1168 -0.0175
  553loPI   C4A 8842  17.146   5.431   7.714  0.0939  0.0199 -0.2314
  553loPI   C5A 8843  17.062   5.170   7.266  0.0369  0.0481  0.3212
  553loPI   C6A 8844  17.026   4.787   7.016  0.2156 -0.0763 -0.0780
  553loPI   C1B 8845  16.967   5.085   8.585  0.2277 -0.2888 -0.1222
  553loPI   C2B 8846  17.192   4.967   8.172  0.0263  0.1771  0.2001
  553loPI   C3B 8847  17.527   5.015   7.843  0.1454  0.2741 -0.0543
  553loPI   C4B 8848  17.581   5.249   7.368 -0.2193  0.1297 -0.1664
  554loPI    C1 8849  13.161   9.234  10.622 -0.0688  0.0349  0.1198
  554loPI    C2 8850  13.159   9.043  10.974  0.2602  0.0144  0.1138
  554loPI    C3 8851  13.271   9.427  10.955 -0.0528  0.1063  0.0734
  554loPI   PO4 8852  12.871   9.104  10.507 -0.2809 -0.1635 -0.0865
  554loPI   GL1 8853  12.663   9.145  10.209  0.0209  0.0656  0.3020
  554loPI   GL2 8854  12.345   9.279  10.005 -0.5536  0.1504 -0.3158
  554loPI   C1A 8855  12.785   9.027   9.813  0.0703  0.2811 -0.0736
  554loPI   C2A 8856  12.839   8.960   9.315 -0.0209  0.1397  0.5167
  554loPI   C3A 8857  12.816   8.895   8.937 -0.0519 -0.0968  0.0003
  554loPI   C4A 8858  12.765   8.811   8.491  0.0497  0.2571  0.0124
  554loPI   C5A 8859  12.827   8.881   8.117 -0.0266  0.3570  0.0587
  554loPI   C6A 8860  13.089   9.092   7.845 -0.0099  0.1385 -0.2238
  554loPI   C1B 8861  12.283   9.251   9.605 -0.0135 -0.0040  0.0251
  554loPI   C2B 8862  12.392   9.147   9.260 -0.0719  0.4002 -0.3711
  554loPI   C3B 8863  12.305   9.014   8.863 -0.0205 -0.3024  0.1945
  554loPI   C4B 8864  12.233   8.897   8.424  0.0674 -0.1388  0.0250
  555loPI    C1 8865   3.850   8.605  10.165 -0.2114 -0.0779 -0.2510
  555loPI    C2 8866   3.649   8.906  10.336 -0.0075 -0.0183 -0.1116
  555loPI    C3 8867   3.941   8.721  10.537 -0.0040 -0.1845 -0.2669
  555loPI   PO4 8868   3.871   8.654   9.942 -0.1026  0.3606  0.0853
  555loPI   GL1 8869   3.728   8.569   9.580  0.1900  0.1545 -0.1266
  555loPI   GL2 8870   3.493   8.700   9.382  0.1456 -0.1856  0.0223
  555loPI   C1A 8871   3.943   8.540   9.174 -0.0390 -0.7228  0.0008
  555loPI   C2A 8872   3.927   8.549   8.715  0.2135 -0.2879  0.1155
  555loPI   C3A 8873   4.044   8.513   8.259 -0.0751 -0.4008 -0.3638
  555loPI   C4A 8874   4.095   8.370   7.874 -0.0884  0.2054  0.0747
  555loPI   C5A 8875   4.392   8.077   7.559 -0.4128 -0.0138  0.1040
  555loPI   C6A 8876   4.560   8.229   7.164  0.1514  0.0728  0.0577
  555loPI   C1B 8877   3.383   8.749   8.851  0.2410 -0.3261 -0.0590
  555loPI   C2B 8878   3.539   8.720   8.407  0.1641  0.0690  0.1319
  555loPI   C3B 8879   3.620   8.712   8.044 -0.0098 -0.1974  0.2123
  555loPI   C4B 8880   3.457   8.547   7.614 -0.3526 -0.2165  0.3271
  556loPI    C1 8881  16.066  13.334   9.954  0.0452 -0.1979  0.0323
  556loPI    C2 8882  16.228  13.155  10.273  0.0121 -0.3369 -0.0281
  556loPI    C3 8883  15.856  13.061  10.158  0.0420 -0.3239 -0.1369
  556loPI   PO4 8884  16.160  13.243   9.759 -0.1029  0.3721 -0.0286
  556loPI   GL1 8885  16.183  13.231   9.373  0.0235  0.0815 -0.0341
  556loPI   GL2 8886  15.893  13.293   9.241  0.4370  0.2014 -0.2943
  556loPI   C1A 8887  16.125  12.961   8.955  0.0325  0.3583 -0.1307
  556loPI   C2A 8888  16.221  13.067   8.575 -0.1077  0.0090 -0.1609
  556loPI   C3A 8889  16.449  13.134   8.199 -0.1146  0.2349 -0.1228
  556loPI   C4A 8890  16.428  13.063   7.839 -0.2884  0.0645  0.3365
  556loPI   C5A 8891  16.582  12.926   7.465 -0.0749  0.0829  0.1656
  556loPI   C6A 8892  16.882  12.851   7.115  0.0358 -0.0862 -0.3055
  556loPI   C1B 8893  15.897  13.400   8.928  0.1312 -0.0867  0.0245
  556loPI   C2B 8894  15.596  13.681   8.694  0.0692 -0.2976  0.0756
  556loPI   C3B 8895  15.328  13.819   8.386  0.1144 -0.0086  0.0806
  556loPI   C4B 8896  14.948  13.803   8.284 -0.1643 -0.0653  0.0544
  557loPI    C1 8897  12.720   9.770  10.673 -0.2542 -0.1775 -0.2527
  557loPI    C2 8898  12.540  10.105  10.549 -0.1109 -0.0372 -0.0871
  557loPI    C3 8899  12.705  10.090  10.913 -0.0497 -0.2633 -0.1229
  557loPI   PO4 8900  12.875   9.632  10.538 -0.0804 -0.1732  0.2637
  557loPI   GL1 8901  12.882   9.566  10.253  0.2365 -0.0869 -0.2265
  557loPI   GL2 8902  12.521   9.751  10.189 -0.1370  0.0776 -0.0606
  557loPI   C1A 8903  12.772   9.526   9.821 -0.1565 -0.0183 -0.1379
  557loPI   C2A 8904  12.702   9.503   9.361 -0.0494 -0.2588  0.0149
  557loPI   C3A 8905  12.734   9.410   8.954 -0.3601 -0.2747 -0.1140
  557loPI   C4A 8906  12.700   9.335   8.544  0.1241  0.2867 -0.1333
  557loPI   C5A 8907  12.458   9.381   8.185  0.3756 -0.0059 -0.1312
  557loPI   C6A 8908  12.573   9.462   7.825 -0.1342 -0.0091 -0.4959
  557loPI   C1B 8909  12.282   9.805   9.841  0.2594 -0.3300  0.1432
  557loPI   C2B 8910  12.159   9.806   9.420  0.0954  0.0146 -0.3037
  557loPI   C3B 8911  12.165   9.570   9.106 -0.0877  0.0867  0.0111
  557loPI   C4B 8912  12.124   9.462   8.617  0.0508  0.1047 -0.2111
  558loPI    C1 8913  14.998   6.369  10.127  0.0736  0.1033 -0.0586
  558loPI    C2 8914  14.645   6.425  10.307 -0.0156 -0.0874 -0.1703
  558loPI    C3 8915  14.967   6.326  10.523 -0.0589 -0.0394 -0.0832
  558loPI   PO4 8916  14.913   6.179   9.815 -0.0968 -0.2711 -0.0900
  558loPI   GL1 8917  15.009   6.383   9.338 -0.2348 -0.1693  0.1114
  558loPI   GL2 8918  14.800   6.595   9.360 -0.0694  0.3165 -0.1399
  558loPI   C1A 8919  15.072   6.455   8.909 -0.2832 -0.1077  0.1500
  558loPI   C2A 8920  15.100   6.556   8.471  0.0103 -0.1895  0.2153
  558loPI   C3A 8921  15.152   6.473   8.051 -0.1047 -0.2589 -0.2337
  558loPI   C4A 8922  15.062   6.453   7.651 -0.0002 -0.0640  0.1548
  558loPI   C5A 8923  15.307   6.479   7.320 -0.1441  0.2934 -0.1631
  558loPI   C6A 8924  15.455   6.557   6.980 -0.1116 -0.1506 -0.0243
  558loPI   C1B 8925  14.606   6.620   8.980 -0.0499  0.1828 -0.1209
  558loPI   C2B 8926  14.589   6.584   8.513 -0.0632 -0.2394  0.0094
  558loPI   C3B 8927  14.481   6.717   8.048  0.0990 -0.2721 -0.0278
  558loPI   C4B 8928  14.564   6.840   7.592 -0.0979  0.0049 -0.1144
  559loPI    C1 8929  11.965   9.673  10.803 -0.0617 -0.1208  0.2511
  559loPI    C2 8930  11.576   9.605  10.744 -0.0667 -0.0565  0.2090
  559loPI    C3 8931  11.713   9.671  11.114 -0.1101  0.0109  0.2133
  559loPI   PO4 8932  12.083   9.897  10.610  0.0784  0.0290  0.0507
  559loPI   GL1 8933  12.055   9.613  10.257 -0.1763 -0.1217 -0.1692
  559loPI   GL2 8934  11.982   9.290  10.370  0.3173 -0.0769  0.3722
  559loPI   C1A 8935  11.783   9.833   9.947  0.0290  0.1488 -0.0907
  559loPI   C2A 8936  11.693   9.887   9.632 -0.3682  0.1216 -0.2175
  559loPI   C3A 8937  11.679   9.802   9.205  0.1895 -0.1344 -0.2481
  559loPI   C4A 8938  11.647   9.784   8.781 -0.1376 -0.1870  0.2477
  559loPI   C5A 8939  11.640   9.783   8.337  0.2330 -0.3955 -0.2615
  559loPI   C6A 8940  11.562   9.556   7.986 -0.4750  0.2923  0.0763
  559loPI   C1B 8941  11.904   9.293   9.899  0.0288  0.6200  0.1966
  559loPI   C2B 8942  11.848   9.405   9.458 -0.3127 -0.1953 -0.0344
  559loPI   C3B 8943  11.817   9.244   8.976  0.2001  0.0021  0.0363
  559loPI   C4B 8944  11.709   9.120   8.631  0.0536 -0.4079 -0.1660
  560loPI    C1 8945   3.140  10.250   9.848  0.1232  0.2935 -0.0468
  560loPI    C2 8946   3.413  10.026  10.037 -0.0417 -0.1817 -0.3553
  560loPI    C3 8947   3.098  10.170  10.238  0.2935  0.1519 -0.0561
  560loPI   PO4 8948   3.054  10.091   9.652  0.1795  0.0196  0.1833
  560loPI   GL1 8949   3.117   9.774   9.341  0.0577  0.0081  0.0753
  560loPI   GL2 8950   3.171   9.474   9.359  0.3805 -0.1261  0.0884
  560loPI   C1A 8951   3.305   9.748   8.930 -0.2706 -0.1529  0.2217
  560loPI   C2A 8952   3.347   9.699   8.560 -0.1494  0.0659 -0.3869
  560loPI   C3A 8953   3.169   9.766   8.239  0.1044  0.4872  0.1878
  560loPI   C4A 8954   3.018   9.803   7.702 -0.1488 -0.1255 -0.0364
  560loPI   C5A 8955   2.710   9.864   7.351  0.3857 -0.3138  0.0080
  560loPI   C6A 8956   2.339   9.667   7.291 -0.1731 -0.0473  0.0618
  560loPI   C1B 8957   2.861   9.516   9.029  0.1586  0.1061 -0.1033
  560loPI   C2B 8958   2.840   9.572   8.676  0.0937  0.1279  0.2052
  560loPI   C3B 8959   2.672   9.824   8.372 -0.1723  0.3546  0.3146
  560loPI   C4B 8960   2.741  10.043   8.004 -0.0137 -0.2249  0.0058
  561loPI    C1 8961  18.160   5.903   9.677  0.1616 -0.0426 -0.0518
  561loPI    C2 8962  18.194   6.179   9.965  0.0050 -0.0648 -0.0111
  561loPI    C3 8963  18.274   6.275   9.585 -0.0211  0.0291  0.0071
  561loPI   PO4 8964  18.269   5.726   9.655 -0.1133 -0.0779  0.1370
  561loPI   GL1 8965  18.187   5.511   9.307 -0.0519 -0.0865 -0.2961
  561loPI   GL2 8966  18.368   5.257   9.269  0.0820  0.0793  0.2788
  561loPI   C1A 8967  18.151   5.685   8.880  0.1901 -0.0403  0.0187
  561loPI   C2A 8968  18.236   5.799   8.518 -0.0035  0.1486  0.0915
  561loPI   C3A 8969  18.342   5.926   8.087 -0.0926  0.2256  0.0363
  561loPI   C4A 8970  18.230   5.764   7.706 -0.1387  0.0808  0.2542
  561loPI   C5A 8971  17.940   5.871   7.446  0.0946  0.0780  0.1169
  561loPI   C6A 8972  17.861   6.037   7.037 -0.0488 -0.0983 -0.2140
  561loPI   C1B 8973  18.460   5.067   8.861 -0.0762 -0.3576 -0.0906
  561loPI   C2B 8974  18.404   5.226   8.492 -0.1420 -0.0735 -0.1158
  561loPI   C3B 8975  18.328   5.416   8.101 -0.2967  0.0287 -0.0293
  561loPI   C4B 8976  18.585   5.339   7.776  0.2779 -0.2078 -0.2527
  562loPI    C1 8977  17.669  17.619   9.639 -0.1484  0.0917 -0.1387
  562loPI    C2 8978  17.349  17.397   9.730 -0.2472  0.2753 -0.0315
  562loPI    C3 8979  17.472  17.683   9.981  0.1227  0.0742  0.0228
  562loPI   PO4 8980  17.635  17.674   9.371 -0.0513  0.0534  0.3043
  562loPI   GL1 8981  17.828  17.443   9.158 -0.1677  0.2375  0.3789
  562loPI   GL2 8982  18.087  17.613   9.094 -0.0284  0.2849  0.1575
  562loPI   C1A 8983  17.578  17.274   8.822  0.0303  0.2485 -0.0771
  562loPI   C2A 8984  17.806  17.172   8.332 -0.1936  0.1635  0.2903
  562loPI   C3A 8985  17.854  17.281   7.919 -0.1776 -0.1945  0.0757
  562loPI   C4A 8986  17.802  17.691   7.691 -0.2666  0.2274 -0.0021
  562loPI   C5A 8987  18.066  18.019   7.516 -0.1154  0.0672  0.2230
  562loPI   C6A 8988  18.215  18.201   7.031 -0.0090 -0.0614  0.2520
  562loPI   C1B 8989  17.904  17.643   8.650 -0.0891 -0.0183  0.1013
  562loPI   C2B 8990  17.858  17.765   8.250 -0.2493 -0.1955  0.1732
  562loPI   C3B 8991  18.067  18.025   8.005  0.2988 -0.0586 -0.0475
  562loPI   C4B 8992  18.025  18.468   7.755 -0.0970  0.2471 -0.3423
  563loPI    C1 8993  11.815  13.375  10.312 -0.2307  0.0596  0.1390
  563loPI    C2 8994  11.960  13.232  10.656  0.0394  0.0105  0.0078
  563loPI    C3 8995  11.616  13.436  10.653 -0.1142 -0.2374  0.2637
  563loPI   PO4 8996  11.918  13.195  10.183  0.0122 -0.0728  0.0282
  563loPI   GL1 8997  12.135  13.121   9.782 -0.0995 -0.0373 -0.1220
  563loPI   GL2 8998  12.202  12.708   9.876  0.3427 -0.0108  0.0561
  563loPI   C1A 8999  11.970  13.176   9.367  0.2298 -0.2872 -0.1369
  563loPI   C2A 9000  11.957  12.980   8.947 -0.2637 -0.2389  0.0606
  563loPI   C3A 9001  11.893  13.116   8.507  0.2061  0.1687  0.1305
  563loPI   C4A 9002  11.893  13.056   8.107 -0.3101  0.2572 -0.3944
  563loPI   C5A 9003  11.733  13.013   7.709  0.3107 -0.1614  0.1796
  563loPI   C6A 9004  11.593  13.063   7.301  0.0793  0.1020 -0.0547
  563loPI   C1B 9005  12.202  12.612   9.399  0.1465 -0.3401  0.0776
  563loPI   C2B 9006  12.001  12.491   8.976 -0.0318 -0.0489  0.2053
  563loPI   C3B 9007  12.069  12.615   8.602 -0.1446 -0.1111 -0.5734
  563loPI   C4B 9008  11.995  12.508   8.298  0.0472 -0.1660  0.1532
  564loPI    C1 9009  15.009  18.470   9.842  0.3735 -0.1024  0.0753
  564loPI    C2 9010  14.857  18.839   9.822  0.0238 -0.2459 -0.0014
  564loPI    C3 9011  15.199  18.774  10.019 -0.0530  0.0729  0.2474
  564loPI   PO4 9012  14.965  18.446   9.498 -0.2327  0.0449  0.2008
  564loPI   GL1 9013  15.268  18.300   9.131  0.1321 -0.1091 -0.0244
  564loPI   GL2 9014  15.160  18.588   9.005  0.0057 -0.0548  0.1858
  564loPI   C1A 9015  15.216  18.228   8.672  0.0230 -0.0547 -0.1609
  564loPI   C2A 9016  14.897  17.992   8.521 -0.0264 -0.1215 -0.0183
  564loPI   C3A 9017  14.741  18.122   8.158  0.2608  0.2094 -0.0374
  564loPI   C4A 9018  14.653  18.125   7.773 -0.2572 -0.1772  0.0147
  564loPI   C5A 9019  14.524  18.422   7.505 -0.1640  0.1256 -0.0263
  564loPI   C6A 9020  14.536  18.767   7.272 -0.0990 -0.1997  0.0463
  564loPI   C1B 9021  15.059  18.822   8.683  0.1797  0.2150  0.0688
  564loPI   C2B 9022  15.033  18.980   8.266 -0.0458 -0.0930 -0.1340
  564loPI   C3B 9023  15.327  18.873   7.837  0.4388  0.1734 -0.0861
  564loPI   C4B 9024  15.673  18.799   7.566  0.1737  0.4379  0.0941
  565loPI    C1 9025  10.013  14.353  10.455  0.0195  0.1182 -0.0920
  565loPI    C2 9026  10.286  14.309  10.743 -0.1329  0.2782  0.0793
  565loPI    C3 9027   9.934  14.120  10.770 -0.0702  0.1315 -0.1043
  565loPI   PO4 9028  10.193  14.553  10.289  0.1554  0.4118 -0.1030
  565loPI   GL1 9029  10.365  14.542   9.972 -0.2795  0.0586 -0.4414
  565loPI   GL2 9030  10.626  14.515   9.932  0.0801 -0.2683  0.1289
  565loPI   C1A 9031  10.402  14.692   9.548  0.0617  0.0171 -0.0834
  565loPI   C2A 9032  10.373  14.630   9.075  0.2091  0.2067  0.1053
  565loPI   C3A 9033  10.228  14.560   8.660 -0.1244 -0.2875  0.1350
  565loPI   C4A 9034  10.278  14.614   8.194 -0.1651  0.1062  0.1880
  565loPI   C5A 9035  10.155  14.791   7.819 -0.0701  0.0255 -0.1196
  565loPI   C6A 9036   9.798  14.542   7.568  0.0473 -0.0154  0.0865
  565loPI   C1B 9037  10.881  14.487   9.580 -0.0606  0.0513  0.1444
  565loPI   C2B 9038  10.886  14.475   9.121  0.0771 -0.1181  0.0638
  565loPI   C3B 9039  10.721  14.531   8.655  0.2289  0.2453  0.1836
  565loPI   C4B 9040  10.755  14.425   8.240  0.1770  0.1800  0.0301
  566loPI    C1 9041   7.000  14.127  10.479 -0.1528  0.0574  0.2525
  566loPI    C2 9042   7.310  13.919  10.624 -0.0386  0.2211  0.2463
  566loPI    C3 9043   7.206  14.267  10.792 -0.1804  0.1978  0.2089
  566loPI   PO4 9044   7.055  14.159  10.213 -0.3292  0.2975  0.1604
  566loPI   GL1 9045   7.319  14.178   9.952 -0.0856  0.0348 -0.2727
  566loPI   GL2 9046   7.370  14.514   9.940  0.0622  0.0104  0.1473
  566loPI   C1A 9047   7.159  14.273   9.448 -0.0590  0.0203 -0.1145
  566loPI   C2A 9048   7.226  14.290   9.125  0.1005  0.1346 -0.1078
  566loPI   C3A 9049   7.061  14.102   8.766 -0.0063 -0.0419  0.3871
  566loPI   C4A 9050   7.050  14.298   8.354  0.0078  0.0949 -0.0031
  566loPI   C5A 9051   7.095  14.154   7.931 -0.2238 -0.0124  0.2097
  566loPI   C6A 9052   6.980  13.808   7.616 -0.0713 -0.0466 -0.2253
  566loPI   C1B 9053   7.609  14.419   9.616 -0.1670 -0.2516  0.2059
  566loPI   C2B 9054   7.597  14.554   9.122  0.2148 -0.1567 -0.2252
  566loPI   C3B 9055   7.505  14.545   8.609  0.1189 -0.1453  0.1709
  566loPI   C4B 9056   7.455  14.529   8.097 -0.1399  0.1484 -0.3469
  567loPI    C1 9057  17.224   6.126  10.162 -0.0544  0.0603 -0.2855
  567loPI    C2 9058  17.369   6.497  10.123 -0.2509  0.1600 -0.0896
  567loPI    C3 9059  17.135   6.406  10.434 -0.0688 -0.1736 -0.0460
  567loPI   PO4 9060  17.187   6.090   9.810 -0.0601 -0.2582 -0.2525
  567loPI   GL1 9061  17.159   5.987   9.468  0.0233  0.0987  0.1720
  567loPI   GL2 9062  17.516   5.987   9.354 -0.0326 -0.1539 -0.0593
  567loPI   C1A 9063  17.091   6.012   9.094  0.0991 -0.0546 -0.1655
  567loPI   C2A 9064  17.124   5.882   8.680 -0.2224 -0.1282 -0.1643
  567loPI   C3A 9065  16.829   6.033   8.412 -0.4028  0.3486 -0.1792
  567loPI   C4A 9066  16.756   5.830   7.993 -0.0867  0.0471 -0.0338
  567loPI   C5A 9067  16.678   5.554   7.636  0.0674 -0.0136  0.3989
  567loPI   C6A 9068  16.679   5.430   7.176  0.2419  0.2304 -0.0262
  567loPI   C1B 9069  17.953   6.033   9.162 -0.1756  0.2075  0.0535
  567loPI   C2B 9070  18.182   6.235   8.893  0.3407 -0.1477  0.2182
  567loPI   C3B 9071  18.205   6.291   8.458  0.0505  0.1471  0.4048
  567loPI   C4B 9072  18.287   6.454   8.119  0.0314 -0.0086  0.0392
  568loPI    C1 9073   9.317   7.541  10.842 -0.0790 -0.0013 -0.1450
  568loPI    C2 9074   9.368   7.920  10.727  0.5619 -0.0252  0.0205
  568loPI    C3 9075   9.301   7.835  11.112 -0.3763 -0.0357 -0.1222
  568loPI   PO4 9076   9.349   7.353  10.647 -0.2136 -0.0913 -0.0687
  568loPI   GL1 9077   9.396   7.443  10.242 -0.1390  0.1545 -0.1498
  568loPI   GL2 9078   9.301   7.763  10.259 -0.1949  0.0247  0.0630
  568loPI   C1A 9079   9.521   7.199   9.861 -0.1256 -0.0297  0.0815
  568loPI   C2A 9080   9.456   7.154   9.476  0.2209 -0.1777 -0.1096
  568loPI   C3A 9081   9.399   7.134   9.065 -0.1763  0.1433 -0.0144
  568loPI   C4A 9082   9.278   7.148   8.676  0.1465 -0.1825  0.0511
  568loPI   C5A 9083   9.274   7.287   8.325  0.2768  0.0708  0.3760
  568loPI   C6A 9084   9.436   7.300   8.026 -0.1443 -0.0547  0.2085
  568loPI   C1B 9085   9.296   7.647   9.793  0.1397  0.1561  0.1073
  568loPI   C2B 9086   9.308   7.638   9.315  0.1010 -0.3541  0.3441
  568loPI   C3B 9087   9.235   7.622   8.946  0.1466 -0.0760  0.3658
  568loPI   C4B 9088   9.295   7.720   8.559 -0.3772 -0.0994  0.0335
  569loPI    C1 9089   1.848   8.730  10.229  0.0349 -0.2707 -0.3059
  569loPI    C2 9090   2.127   8.640  10.501 -0.1619  0.1290  0.0405
  569loPI    C3 9091   1.746   8.687  10.613 -0.2613  0.2202 -0.3208
  569loPI   PO4 9092   2.043   8.839  10.054  0.0557 -0.3088  0.0564
  569loPI   GL1 9093   2.189   8.805   9.613 -0.1900 -0.1461  0.2992
  569loPI   GL2 9094   2.387   8.598   9.582  0.1717 -0.1612  0.1061
  569loPI   C1A 9095   2.090   8.916   9.232  0.3639 -0.1029 -0.1936
  569loPI   C2A 9096   2.005   8.775   8.809  0.2546  0.0834 -0.0938
  569loPI   C3A 9097   1.994   8.729   8.374  0.0192 -0.2233  0.0211
  569loPI   C4A 9098   2.382   8.697   8.101  0.0217 -0.0822  0.0230
  569loPI   C5A 9099   2.697   8.659   7.832  0.0538  0.0771  0.0646
  569loPI   C6A 9100   3.065   8.817   7.648  0.1484 -0.0869  0.0416
  569loPI   C1B 9101   2.550   8.702   9.182  0.0247 -0.2125  0.0279
  569loPI   C2B 9102   2.495   8.671   8.747 -0.1839 -0.0714  0.1210
  569loPI   C3B 9103   2.711   8.577   8.418  0.0170  0.1224  0.0499
  569loPI   C4B 9104   3.101   8.791   8.126 -0.0401  0.0798 -0.0720
  570loPI    C1 9105   4.933   0.704  10.408  0.2392  0.1743  0.0882
  570loPI    C2 9106   4.703   0.397  10.293  0.1930  0.2439 -0.0067
  570loPI    C3 9107   4.853   0.407  10.664  0.1788  0.1164  0.0027
  570loPI   PO4 9108   5.092   0.685  10.254 -0.1506 -0.0323 -0.0585
  570loPI   GL1 9109   5.054   0.158  10.009  0.0345 -0.1926  0.0973
  570loPI   GL2 9110   5.198   0.398   9.871  0.1610 -0.0937  0.1037
  570loPI   C1A 9111   4.759   0.163   9.607  0.0463 -0.0048 -0.1149
  570loPI   C2A 9112   4.724   0.194   9.126 -0.5192 -0.0872 -0.3210
  570loPI   C3A 9113   4.816   0.031   8.692 -0.2554  0.3094 -0.0512
  570loPI   C4A 9114   4.784   0.066   8.227  0.0943 -0.2162 -0.1202
  570loPI   C5A 9115   4.587   0.016   7.793 -0.3286 -0.0416  0.2532
  570loPI   C6A 9116   4.368  -0.349   7.672 -0.0199 -0.0767 -0.0964
  570loPI   C1B 9117   5.119   0.588   9.522  0.1226 -0.3164  0.0121
  570loPI   C2B 9118   5.132   0.453   9.130 -0.0410 -0.1705  0.0144
  570loPI   C3B 9119   5.121   0.363   8.709 -0.3496  0.0794  0.2833
  570loPI   C4B 9120   5.153   0.351   8.293 -0.0037  0.0901  0.1713
  571loPI    C1 9121   5.450  18.744  10.347  0.0275 -0.1206  0.1515
  571loPI    C2 9122   5.290  19.093  10.459 -0.0372 -0.0201 -0.2396
  571loPI    C3 9123   5.074  18.757  10.483 -0.0558  0.0023 -0.0851
  571loPI   PO4 9124   5.561  18.816  10.074  0.0056 -0.2276  0.0404
  571loPI   GL1 9125   5.393  18.762   9.742  0.3113 -0.2685  0.1291
  571loPI   GL2 9126   5.647  18.551   9.680 -0.3158 -0.1085 -0.1010
  571loPI   C1A 9127   5.268  18.882   9.387  0.0774 -0.0917  0.0236
  571loPI   C2A 9128   5.199  18.816   8.986 -0.0295  0.0984  0.0354
  571loPI   C3A 9129   5.290  18.750   8.514  0.0518 -0.0668 -0.1324
  571loPI   C4A 9130   5.193  18.718   8.140  0.1395  0.2627  0.3119
  571loPI   C5A 9131   5.326  18.451   7.786 -0.0390 -0.1985  0.0269
  571loPI   C6A 9132   5.727  18.267   7.623  0.2274 -0.1285  0.2216
  571loPI   C1B 9133   5.756  18.771   9.352 -0.2543 -0.0956 -0.1025
  571loPI   C2B 9134   5.680  18.708   8.881  0.0900 -0.1280 -0.3355
  571loPI   C3B 9135   5.743  18.580   8.425 -0.2053  0.1485  0.0036
  571loPI   C4B 9136   5.880  18.662   7.972 -0.0639  0.1051 -0.0768
  572loPI    C1 9137  15.262   5.329   9.625 -0.0274 -0.2817  0.3859
  572loPI    C2 9138  15.077   5.063   9.390  0.0173  0.1326 -0.1369
  572loPI    C3 9139  14.863   5.301   9.629 -0.0669  0.0629 -0.1425
  572loPI   PO4 9140  15.354   5.497   9.454  0.4266  0.2573 -0.2561
  572loPI   GL1 9141  15.178   5.908   9.442 -0.0594 -0.1330 -0.1279
  572loPI   GL2 9142  14.873   5.797   9.518  0.0416  0.2102 -0.3385
  572loPI   C1A 9143  15.235   6.000   8.981  0.3087  0.2434 -0.1674
  572loPI   C2A 9144  15.284   6.083   8.518 -0.0290 -0.1518  0.2813
  572loPI   C3A 9145  15.536   6.187   8.290  0.3457  0.0215 -0.2433
  572loPI   C4A 9146  15.494   6.120   7.868  0.0681  0.2386 -0.1983
  572loPI   C5A 9147  15.421   5.924   7.483 -0.3064 -0.1540  0.2674
  572loPI   C6A 9148  15.182   5.991   7.119  0.0250 -0.3362  0.1260
  572loPI   C1B 9149  14.701   6.046   9.146  0.2371  0.2304 -0.0923
  572loPI   C2B 9150  14.621   6.109   8.604  0.3178 -0.1132 -0.0561
  572loPI   C3B 9151  14.761   6.189   8.185 -0.2222  0.2719  0.1899
  572loPI   C4B 9152  14.961   5.997   7.848  0.0797 -0.0035  0.0013
  573loPI    C1 9153  14.864   4.794   9.759 -0.0003 -0.2376  0.0133
  573loPI    C2 9154  15.017   4.516  10.002  0.2162 -0.1378 -0.0060
  573loPI    C3 9155  14.687   4.716  10.110  0.3546 -0.0391  0.2430
  573loPI   PO4 9156  14.740   4.695   9.550  0.4292  0.0207  0.1193
  573loPI   GL1 9157  14.815   4.412   9.176 -0.0207  0.2335  0.1012
  573loPI   GL2 9158  14.639   4.231   9.150 -0.0759 -0.1814 -0.2235
  573loPI   C1A 9159  14.856   4.869   8.972 -0.1063  0.0687  0.1852
  573loPI   C2A 9160  15.120   4.995   8.710  0.2557 -0.0209  0.2224
  573loPI   C3A 9161  15.001   5.185   8.339  0.1998  0.1991  0.3635
  573loPI   C4A 9162  14.873   5.117   8.022  0.1687 -0.0036 -0.1022
  573loPI   C5A 9163  14.751   5.075   7.551 -0.2322 -0.0079 -0.0812
  573loPI   C6A 9164  14.896   5.042   7.177  0.2708 -0.2240  0.0722
  573loPI   C1B 9165  14.563   4.221   8.713 -0.3651 -0.0686  0.0605
  573loPI   C2B 9166  14.569   4.278   8.275 -0.0120 -0.2916  0.0026
  573loPI   C3B 9167  14.810   4.560   8.009 -0.1714 -0.1351 -0.0459
  573loPI   C4B 9168  15.112   4.663   7.554 -0.2694  0.2371  0.1304
  574loPI    C1 9169  11.356   2.233  10.742 -0.0395 -0.0535  0.2781
  574loPI    C2 9170  11.609   2.427  10.984 -0.1521 -0.1334  0.4621
  574loPI    C3 9171  11.632   2.029  10.948  0.1059 -0.0875  0.0533
  574loPI   PO4 9172  11.324   2.385  10.588 -0.0791  0.0354  0.0894
  574loPI   GL1 9173  11.161   2.549  10.229  0.0629  0.2047 -0.3255
  574loPI   GL2 9174  10.763   2.446  10.271  0.2662 -0.4465  0.0292
  574loPI   C1A 9175  11.312   2.532   9.662  0.0512  0.2514  0.0976
  574loPI   C2A 9176  11.227   2.608   9.266 -0.1784 -0.2855 -0.5849
  574loPI   C3A 9177  11.208   2.527   8.909  0.0512  0.0855 -0.0348
  574loPI   C4A 9178  11.174   2.612   8.598  0.0711  0.1116 -0.0283
  574loPI   C5A 9179  11.102   2.609   8.184  0.0171 -0.1675  0.2812
  574loPI   C6A 9180  11.009   2.821   7.835  0.1557  0.2113 -0.1456
  574loPI   C1B 9181  10.882   2.666   9.866 -0.0795  0.1395 -0.1418
  574loPI   C2B 9182  10.768   2.801   9.478 -0.1259 -0.0195  0.1229
  574loPI   C3B 9183  10.665   2.775   9.093 -0.0316 -0.1174  0.3367
  574loPI   C4B 9184  10.722   2.787   8.630  0.0488  0.1389 -0.0190
  575loPI    C1 9185   6.775   7.221  10.587  0.0980 -0.0342  0.0611
  575loPI    C2 9186   6.536   7.524  10.693 -0.0949 -0.1310 -0.0887
  575loPI    C3 9187   6.552   7.194  10.918 -0.1095 -0.1285 -0.0839
  575loPI   PO4 9188   6.739   7.254  10.272  0.0907 -0.2821 -0.1505
  575loPI   GL1 9189   6.940   7.534   9.933  0.2937 -0.0849 -0.0371
  575loPI   GL2 9190   7.205   7.723  10.024  0.2049  0.0540 -0.0229
  575loPI   C1A 9191   6.960   7.448   9.467  0.0539 -0.1034  0.1245
  575loPI   C2A 9192   7.089   7.481   9.015 -0.1600 -0.3337 -0.0786
  575loPI   C3A 9193   7.146   7.493   8.584 -0.0027 -0.1164  0.2378
  575loPI   C4A 9194   7.129   7.323   8.126 -0.0637  0.0697  0.0693
  575loPI   C5A 9195   7.369   7.155   7.889  0.1247 -0.1124  0.3379
  575loPI   C6A 9196   7.567   6.725   7.983  0.3571 -0.1637  0.2482
  575loPI   C1B 9197   7.329   7.759   9.555 -0.5335  0.0006 -0.0727
  575loPI   C2B 9198   7.413   7.903   9.178  0.0168 -0.1781  0.1421
  575loPI   C3B 9199   7.425   7.953   8.643  0.0978 -0.0547  0.0515
  575loPI   C4B 9200   7.442   7.736   8.228  0.1673 -0.0011  0.3927
  576loPI    C1 9201  13.259  17.501   9.978  0.2574  0.0544  0.1994
  576loPI    C2 9202  12.896  17.612  10.105  0.0286 -0.1757 -0.2309
  576loPI    C3 9203  13.102  17.333  10.305  0.0739  0.1220  0.1474
  576loPI   PO4 9204  13.224  17.466   9.717 -0.3331  0.0665  0.0070
  576loPI   GL1 9205  13.092  17.588   9.379  0.1439  0.1536  0.0686
  576loPI   GL2 9206  13.258  17.944   9.266 -0.0763  0.3176 -0.1622
  576loPI   C1A 9207  13.009  17.591   8.955 -0.0027  0.3335  0.2232
  576loPI   C2A 9208  12.878  17.520   8.465 -0.0750  0.1495  0.0700
  576loPI   C3A 9209  12.839  17.555   7.982  0.0147 -0.1357  0.3051
  576loPI   C4A 9210  12.754  17.770   7.570 -0.1172 -0.0489  0.0006
  576loPI   C5A 9211  12.506  18.224   7.435  0.1718  0.1105 -0.0415
  576loPI   C6A 9212  12.189  18.533   7.384  0.0681 -0.1500  0.3976
  576loPI   C1B 9213  13.405  17.945   8.856 -0.0573 -0.3658  0.1474
  576loPI   C2B 9214  13.292  17.932   8.409  0.1904 -0.0002  0.0209
  576loPI   C3B 9215  13.194  17.893   7.969 -0.1826  0.1951  0.2073
  576loPI   C4B 9216  12.954  18.243   7.706 -0.0842 -0.0227 -0.0950
  577loPI    C1 9217  10.781   6.587  10.733  0.0813 -0.0969  0.0889
  577loPI    C2 9218  11.012   6.309  10.905 -0.0650 -0.2113  0.1022
  577loPI    C3 9219  10.673   6.425  11.083  0.0107 -0.0013  0.1115
  577loPI   PO4 9220  10.896   6.664  10.491  0.1348  0.0161 -0.1582
  577loPI   GL1 9221  10.624   6.486  10.149 -0.0030  0.0420  0.0288
  577loPI   GL2 9222  10.858   6.334  10.119  0.1807 -0.1236  0.3367
  577loPI   C1A 9223  10.508   6.708   9.757 -0.1882  0.0355 -0.3197
  577loPI   C2A 9224  10.525   6.804   9.350 -0.2811  0.3034  0.2415
  577loPI   C3A 9225  10.427   6.771   8.968 -0.2792 -0.1279  0.0993
  577loPI   C4A 9226  10.384   6.718   8.570  0.0271 -0.1270  0.1535
  577loPI   C5A 9227  10.347   6.633   8.113  0.0111  0.2805 -0.5669
  577loPI   C6A 9228  10.680   6.310   8.016  0.3480 -0.4721 -0.0502
  577loPI   C1B 9229  10.976   6.552   9.671  0.2588  0.0502  0.2272
  577loPI   C2B 9230  10.982   6.723   9.245 -0.2260  0.2568  0.2066
  577loPI   C3B 9231  10.906   6.605   8.879 -0.2685  0.1521  0.0350
  577loPI   C4B 9232  10.834   6.556   8.423 -0.3907 -0.2559  0.0743
  578loPI    C1 9233  14.361   6.986  10.451 -0.0365 -0.1319  0.0204
  578loPI    C2 9234  14.667   7.231  10.534 -0.1022  0.0279 -0.2005
  578loPI    C3 9235  14.677   6.851  10.657  0.1690  0.0414 -0.1747
  578loPI   PO4 9236  14.332   6.962  10.114  0.2573 -0.3218  0.3170
  578loPI   GL1 9237  13.985   6.843   9.782  0.1620 -0.2226 -0.1594
  578loPI   GL2 9238  14.205   6.900   9.536  0.0486  0.2351  0.0006
  578loPI   C1A 9239  13.722   6.705   9.349  0.4046 -0.2007  0.0806
  578loPI   C2A 9240  13.646   6.558   8.961 -0.0810  0.0170  0.2676
  578loPI   C3A 9241  13.620   6.508   8.538 -0.1496 -0.0473  0.3322
  578loPI   C4A 9242  13.420   6.608   8.012  0.0511 -0.3549  0.0491
  578loPI   C5A 9243  13.135   6.652   7.750  0.0696  0.1928  0.1273
  578loPI   C6A 9244  12.866   6.802   7.604 -0.0542 -0.2775  0.1103
  578loPI   C1B 9245  14.122   6.780   8.981  0.2641  0.0055  0.1709
  578loPI   C2B 9246  14.011   6.834   8.654  0.1839  0.1382 -0.0155
  578loPI   C3B 9247  13.975   6.706   8.248 -0.0082  0.1577 -0.0762
  578loPI   C4B 9248  14.028   6.753   7.788 -0.2519 -0.1235 -0.0565
  579loPI    C1 9249   4.687   6.644  10.453  0.0880 -0.1259  0.0765
  579loPI    C2 9250   4.809   6.867  10.762 -0.3503  0.2016  0.0222
  579loPI    C3 9251   4.636   6.513  10.828 -0.2863  0.1926  0.1438
  579loPI   PO4 9252   4.551   6.836  10.267  0.1283  0.2376  0.0363
  579loPI   GL1 9253   4.478   6.830   9.815 -0.0981 -0.0510 -0.0230
  579loPI   GL2 9254   4.266   7.128   9.845 -0.2800  0.0210  0.1474
  579loPI   C1A 9255   4.673   6.800   9.500 -0.0874 -0.1049 -0.0478
  579loPI   C2A 9256   4.716   6.792   9.038 -0.0984 -0.0642 -0.0787
  579loPI   C3A 9257   4.774   6.780   8.636  0.1660 -0.2462  0.0009
  579loPI   C4A 9258   4.865   6.919   8.299 -0.1225  0.0961 -0.1113
  579loPI   C5A 9259   5.117   7.029   7.910  0.1642 -0.1976 -0.0196
  579loPI   C6A 9260   5.188   6.994   7.514 -0.1735 -0.4118  0.1867
  579loPI   C1B 9261   4.238   6.981   9.388 -0.2165  0.0517 -0.1501
  579loPI   C2B 9262   4.209   6.927   8.937  0.1237 -0.1875  0.0642
  579loPI   C3B 9263   4.278   7.029   8.575  0.0001  0.0274  0.2771
  579loPI   C4B 9264   4.272   6.952   8.142 -0.2991  0.0480 -0.3923
  580loPI    C1 9265   4.417   2.839  10.461 -0.0956  0.1156 -0.0820
  580loPI    C2 9266   4.722   2.927  10.704 -0.0606  0.1330 -0.1321
  580loPI    C3 9267   4.423   2.696  10.835  0.0277  0.0259 -0.1181
  580loPI   PO4 9268   4.326   2.919  10.273  0.2819 -0.1064 -0.2111
  580loPI   GL1 9269   4.451   3.098   9.947  0.1662 -0.1730 -0.0740
  580loPI   GL2 9270   4.335   3.380   9.884  0.2034  0.1115  0.0287
  580loPI   C1A 9271   4.624   2.987   9.512 -0.4291 -0.1578  0.1711
  580loPI   C2A 9272   4.513   2.908   9.174  0.0761 -0.0999 -0.1996
  580loPI   C3A 9273   4.656   3.037   8.771 -0.0465 -0.1735 -0.0925
  580loPI   C4A 9274   4.640   2.945   8.396 -0.0119 -0.0665  0.6176
  580loPI   C5A 9275   4.549   2.815   8.053  0.0129 -0.2086  0.5553
  580loPI   C6A 9276   4.564   3.229   7.778  0.1752  0.0521 -0.0208
  580loPI   C1B 9277   4.176   3.211   9.468 -0.1010  0.0996  0.1119
  580loPI   C2B 9278   4.038   3.226   9.061  0.4921  0.3687 -0.0045
  580loPI   C3B 9279   4.117   3.084   8.658 -0.0123 -0.3219 -0.1316
  580loPI   C4B 9280   4.152   3.190   8.254  0.1166 -0.1616  0.2259
  581loPI    C1 9281  13.833  10.911  10.334  0.0806  0.2492 -0.0371
  581loPI    C2 9282  14.123  10.730  10.127  0.0213 -0.0297  0.1191
  581loPI    C3 9283  14.212  11.031  10.375  0.1050  0.2421 -0.2335
  581loPI   PO4 9284  13.617  10.858  10.218 -0.3052  0.3884  0.1407
  581loPI   GL1 9285  13.628  10.652   9.900  0.2830 -0.1384  0.0517
  581loPI   GL2 9286  13.768  10.372   9.789 -0.1567  0.1446 -0.0567
  581loPI   C1A 9287  13.486  10.616   9.475  0.1883 -0.0627 -0.2288
  581loPI   C2A 9288  13.453  10.488   9.092 -0.0470 -0.3731  0.0906
  581loPI   C3A 9289  13.289  10.591   8.676 -0.0072  0.0698 -0.0529
  581loPI   C4A 9290  13.209  10.607   8.298 -0.1093 -0.0646  0.1929
  581loPI   C5A 9291  13.159  10.635   7.845  0.1380  0.5946  0.1826
  581loPI   C6A 9292  13.564  10.793   7.613 -0.1061 -0.2107 -0.1693
  581loPI   C1B 9293  13.633  10.130   9.375 -0.2049  0.2215  0.2116
  581loPI   C2B 9294  13.502  10.051   8.850  0.0423 -0.0566 -0.2602
  581loPI   C3B 9295  13.398  10.141   8.430  0.1652 -0.1057 -0.0062
  581loPI   C4B 9296  13.154  10.125   8.041  0.1791  0.1797 -0.3094
  582loPI    C1 9297  13.047  18.032  10.338  0.0056  0.2415  0.0800
  582loPI    C2 9298  12.957  18.107  10.720  0.0519 -0.0417  0.1490
  582loPI    C3 9299  12.736  17.848  10.510  0.0334  0.1046 -0.0143
  582loPI   PO4 9300  13.073  18.284  10.235  0.2310  0.0870  0.1418
  582loPI   GL1 9301  12.962  18.421   9.827  0.2008 -0.0286  0.1354
  582loPI   GL2 9302  13.154  18.427   9.676 -0.2275  0.0304 -0.4150
  582loPI   C1A 9303  12.812  18.547   9.413 -0.0091 -0.1742 -0.0499
  582loPI   C2A 9304  12.653  18.599   8.945  0.0753  0.0099  0.0294
  582loPI   C3A 9305  12.725  18.588   8.528 -0.2765  0.4351 -0.0674
  582loPI   C4A 9306  12.650  18.552   8.145  0.0238 -0.0687  0.2863
  582loPI   C5A 9307  12.690  18.720   7.760 -0.0085  0.0199  0.0305
  582loPI   C6A 9308  12.529  18.935   7.356 -0.0144  0.0037 -0.3117
  582loPI   C1B 9309  13.310  18.390   9.310  0.1831  0.1561 -0.1375
  582loPI   C2B 9310  13.182  18.420   8.946  0.3160  0.1015 -0.0004
  582loPI   C3B 9311  13.257  18.444   8.512  0.0198  0.0784  0.1260
  582loPI   C4B 9312  13.210  18.369   8.145 -0.1674 -0.1790  0.1599
  583loPI    C1 9313   1.470  13.085   9.837  0.2499 -0.0987 -0.1008
  583loPI    C2 9314   1.319  12.744   9.981 -0.0847  0.1695  0.2038
  583loPI    C3 9315   1.689  12.858  10.082  0.0142 -0.0801  0.1319
  583loPI   PO4 9316   1.475  13.069   9.604  0.0644  0.1143 -0.0923
  583loPI   GL1 9317   1.792  12.859   9.397  0.2048 -0.4176 -0.2478
  583loPI   GL2 9318   1.757  12.618   9.533 -0.0145  0.0469  0.2001
  583loPI   C1A 9319   1.699  13.001   8.936  0.1147  0.1173 -0.1880
  583loPI   C2A 9320   1.574  13.107   8.538  0.0698 -0.0750  0.0271
  583loPI   C3A 9321   1.658  13.314   8.160  0.5067  0.0290  0.0992
  583loPI   C4A 9322   1.417  13.368   7.809 -0.1776 -0.1331 -0.0682
  583loPI   C5A 9323   1.142  13.284   7.433 -0.1361 -0.0265 -0.0141
  583loPI   C6A 9324   1.088  13.034   7.090  0.0170  0.1055 -0.3104
  583loPI   C1B 9325   1.582  12.500   9.147  0.0155 -0.2504 -0.4466
  583loPI   C2B 9326   1.674  12.536   8.736 -0.0022 -0.2790  0.0973
  583loPI   C3B 9327   1.760  12.628   8.337 -0.4017 -0.0607 -0.0308
  583loPI   C4B 9328   1.533  12.566   7.927 -0.1360 -0.0169 -0.0309
  584loPI    C1 9329   9.208  13.680  10.347  0.1855 -0.0020  0.0438
  584loPI    C2 9330   9.319  13.297  10.320  0.2040  0.0199 -0.2200
  584loPI    C3 9331   9.169  13.438  10.663 -0.4324 -0.3933 -0.3109
  584loPI   PO4 9332   9.013  13.809  10.172 -0.1222 -0.2987  0.1291
  584loPI   GL1 9333   8.983  14.014   9.906 -0.0176  0.0393  0.1212
  584loPI   GL2 9334   9.310  14.096   9.881 -0.0322 -0.0902 -0.1818
  584loPI   C1A 9335   8.695  13.739   9.646 -0.4667  0.3649 -0.0273
  584loPI   C2A 9336   8.733  13.693   9.238  0.1084  0.0698  0.1140
  584loPI   C3A 9337   8.625  13.747   8.798  0.0517  0.1532 -0.0583
  584loPI   C4A 9338   8.512  13.735   8.389  0.4132 -0.0852 -0.1112
  584loPI   C5A 9339   8.462  13.641   7.949 -0.6221 -0.2236  0.0230
  584loPI   C6A 9340   8.701  13.369   7.738  0.0351  0.1684  0.0020
  584loPI   C1B 9341   9.105  14.050   9.370  0.2769  0.0821 -0.1439
  584loPI   C2B 9342   9.022  14.075   8.989  0.1718  0.1369 -0.1777
  584loPI   C3B 9343   8.945  14.084   8.521 -0.0582  0.0668 -0.0155
  584loPI   C4B 9344   8.765  14.121   8.136  0.2074  0.0357 -0.2032
  585loPI    C1 9345   9.438  16.343  10.513  0.3456 -0.0694  0.1664
  585loPI    C2 9346   9.287  16.315  10.882 -0.0234  0.1148  0.0339
  585loPI    C3 9347   9.378  16.673  10.730  0.0381  0.0472 -0.0895
  585loPI   PO4 9348   9.613  16.269  10.453  0.1693 -0.2529 -0.1206
  585loPI   GL1 9349   9.822  16.255   9.966 -0.0816 -0.3219  0.4540
  585loPI   GL2 9350   9.479  16.316   9.997  0.0894  0.2739 -0.0261
  585loPI   C1A 9351  10.025  16.198   9.485  0.1913  0.0190  0.0611
  585loPI   C2A 9352   9.945  16.126   9.058 -0.0354 -0.0754 -0.1224
  585loPI   C3A 9353   9.943  16.216   8.580 -0.2069 -0.2539 -0.3964
  585loPI   C4A 9354   9.936  16.143   8.124  0.2446  0.1457 -0.0684
  585loPI   C5A 9355   9.934  16.257   7.900 -0.1296 -0.2291 -0.0231
  585loPI   C6A 9356   9.917  16.108   7.548 -0.0912 -0.0803 -0.5436
  585loPI   C1B 9357   9.458  16.332   9.523  0.2024  0.1091  0.2065
  585loPI   C2B 9358   9.440  16.327   9.044  0.0494  0.2011 -0.1159
  585loPI   C3B 9359   9.448  16.278   8.605 -0.4623  0.2876 -0.0963
  585loPI   C4B 9360   9.507  16.373   8.168  0.0973 -0.0644  0.0898
  586loPI    C1 9361  13.523   0.686  10.088  0.0306 -0.0143  0.2360
  586loPI    C2 9362  13.765   0.516  10.358  0.0668 -0.4552 -0.0620
  586loPI    C3 9363  13.393   0.622  10.460  0.2855 -0.0222  0.3260
  586loPI   PO4 9364  13.685   0.953  10.024  0.1896  0.1995  0.1247
  586loPI   GL1 9365  13.654   1.313   9.660  0.1853  0.2407  0.1894
  586loPI   GL2 9366  13.420   1.339   9.772  0.2070 -0.0256  0.1183
  586loPI   C1A 9367  13.845   1.316   9.224 -0.2420 -0.0086  0.3384
  586loPI   C2A 9368  13.756   1.324   8.892 -0.1119  0.6250  0.0679
  586loPI   C3A 9369  13.696   1.210   8.566 -0.2324  0.0004  0.2340
  586loPI   C4A 9370  13.645   1.351   8.185 -0.2626 -0.1306  0.2744
  586loPI   C5A 9371  13.553   1.383   7.791  0.0967  0.1773 -0.3248
  586loPI   C6A 9372  13.167   1.608   7.541 -0.1221 -0.0541  0.0411
  586loPI   C1B 9373  13.286   1.514   9.339  0.0117 -0.0510 -0.3162
  586loPI   C2B 9374  13.223   1.517   8.896 -0.2071 -0.3481  0.1341
  586loPI   C3B 9375  13.132   1.426   8.437  0.1373 -0.0611 -0.3153
  586loPI   C4B 9376  13.132   1.434   8.066  0.3539 -0.1635  0.1500
  587loPI    C1 9377   1.294   4.657  10.389  0.0945 -0.1096 -0.1148
  587loPI    C2 9378   1.461   4.450  10.688 -0.3900 -0.0468  0.2116
  587loPI    C3 9379   1.523   4.844  10.659 -0.0151 -0.1173 -0.0156
  587loPI   PO4 9380   1.374   4.585  10.141 -0.3051 -0.2196 -0.1241
  587loPI   GL1 9381   1.279   4.666   9.781  0.0395 -0.1709  0.0805
  587loPI   GL2 9382   1.579   4.603   9.566 -0.0099  0.2132  0.0328
  587loPI   C1A 9383   1.030   4.910   9.475 -0.0048  0.1831  0.2247
  587loPI   C2A 9384   1.052   4.843   8.977  0.1128 -0.1065 -0.0909
  587loPI   C3A 9385   1.101   4.816   8.452 -0.0663 -0.2377 -0.0122
  587loPI   C4A 9386   1.040   4.656   8.063  0.2794 -0.0649 -0.4474
  587loPI   C5A 9387   0.918   4.666   7.673 -0.0349 -0.2563 -0.0728
  587loPI   C6A 9388   1.176   4.670   7.339 -0.1467 -0.2155  0.3859
  587loPI   C1B 9389   1.579   4.758   9.133  0.2141  0.0559 -0.0723
  587loPI   C2B 9390   1.887   4.937   8.850  0.2110  0.0547 -0.1328
  587loPI   C3B 9391   1.930   5.057   8.447  0.0418  0.2738 -0.1222
  587loPI   C4B 9392   1.966   4.926   8.022  0.2058 -0.1370 -0.1117
  588loPI    C1 9393  11.830   3.133  10.452  0.0154 -0.0455  0.0855
  588loPI    C2 9394  12.089   3.307  10.701 -0.1337  0.1015  0.1392
  588loPI    C3 9395  11.699   3.302  10.789 -0.2077  0.2886 -0.1624
  588loPI   PO4 9396  11.880   3.255  10.216  0.2330  0.0169  0.0938
  588loPI   GL1 9397  11.604   3.441   9.929  0.2490 -0.2010  0.1084
  588loPI   GL2 9398  11.335   3.424  10.035 -0.2555 -0.1352 -0.0647
  588loPI   C1A 9399  11.413   3.457   9.506  0.1806  0.1358 -0.1115
  588loPI   C2A 9400  11.524   3.425   9.070 -0.2821  0.2109  0.0782
  588loPI   C3A 9401  11.426   3.454   8.670  0.0372 -0.0410 -0.0292
  588loPI   C4A 9402  11.468   3.420   8.273 -0.1936 -0.1422  0.0194
  588loPI   C5A 9403  11.335   3.208   7.860  0.0885 -0.0913 -0.2321
  588loPI   C6A 9404  11.398   2.793   7.535  0.1534 -0.4356  0.0441
  588loPI   C1B 9405  10.992   3.669   9.741  0.2813  0.0847  0.2807
  588loPI   C2B 9406  10.906   3.617   9.324  0.1503 -0.0003 -0.4612
  588loPI   C3B 9407  10.927   3.584   8.950 -0.1666  0.0168 -0.2894
  588loPI   C4B 9408  10.998   3.673   8.577 -0.0114 -0.0990 -0.1242
  589loPI    C1 9409   4.140  11.019  10.288 -0.1035  0.0745 -0.0844
  589loPI    C2 9410   3.966  11.270  10.547 -0.1020  0.0154 -0.0259
  589loPI    C3 9411   4.337  11.135  10.616 -0.1326 -0.0650 -0.0168
  589loPI   PO4 9412   4.099  11.203  10.050 -0.3350  0.2083 -0.0875
  589loPI   GL1 9413   3.897  11.272   9.635  0.0487  0.6149 -0.1596
  589loPI   GL2 9414   4.021  11.007   9.617  0.2285 -0.1577 -0.1393
  589loPI   C1A 9415   3.880  11.573   9.245  0.0509 -0.1983  0.0528
  589loPI   C2A 9416   3.892  11.510   8.782 -0.1080 -0.0139 -0.5188
  589loPI   C3A 9417   3.872  11.543   8.305  0.0657 -0.0601 -0.0796
  589loPI   C4A 9418   3.867  11.501   7.889  0.1279  0.0980 -0.0785
  589loPI   C5A 9419   4.016  11.361   7.479 -0.0615  0.1171 -0.1657
  589loPI   C6A 9420   3.768  11.060   7.308 -0.0427 -0.1843 -0.1650
  589loPI   C1B 9421   3.938  10.951   9.171 -0.1239  0.1778 -0.0284
  589loPI   C2B 9422   3.987  10.987   8.702 -0.1670  0.0384  0.2720
  589loPI   C3B 9423   4.026  10.950   8.301 -0.4448  0.1914  0.0428
  589loPI   C4B 9424   3.916  10.943   7.866 -0.0859  0.2392 -0.3474
  590loPI    C1 9425  10.027  15.453  10.552 -0.0666 -0.1114 -0.0983
  590loPI    C2 9426  10.253  15.319  10.853 -0.0285  0.1980  0.0145
  590loPI    C3 9427   9.925  15.118  10.745  0.1033 -0.0594  0.0852
  590loPI   PO4 9428  10.215  15.502  10.396  0.1416  0.5766  0.1003
  590loPI   GL1 9429  10.126  15.675  10.054 -0.3057 -0.0002  0.1848
  590loPI   GL2 9430  10.423  15.584   9.930 -0.1435 -0.4647 -0.2329
  590loPI   C1A 9431  10.050  15.721   9.591 -0.0773  0.0558 -0.2474
  590loPI   C2A 9432  10.142  15.677   9.163 -0.2525  0.2244 -0.1179
  590loPI   C3A 9433  10.013  15.720   8.730 -0.1588 -0.3955  0.1538
  590loPI   C4A 9434   9.955  15.521   8.321  0.1125  0.3253  0.2021
  590loPI   C5A 9435  10.161  15.242   7.963 -0.0190 -0.0007  0.0616
  590loPI   C6A 9436  10.313  15.237   7.578 -0.1987  0.0102  0.1914
  590loPI   C1B 9437  10.560  15.581   9.531  0.0297  0.1694  0.0310
  590loPI   C2B 9438  10.625  15.520   9.084 -0.0346 -0.0732  0.2833
  590loPI   C3B 9439  10.418  15.491   8.673  0.2312  0.2591 -0.1583
  590loPI   C4B 9440  10.443  15.590   8.218 -0.1837  0.3987  0.0942
  591loPI    C1 9441  14.193   3.343  10.403 -0.0218  0.0447  0.0674
  591loPI    C2 9442  14.043   3.647  10.616 -0.0354  0.0605  0.0356
  591loPI    C3 9443  14.028   3.274  10.761 -0.0252  0.0740  0.0716
  591loPI   PO4 9444  14.136   3.588  10.137  0.2184 -0.0187 -0.1400
  591loPI   GL1 9445  14.014   3.584   9.613 -0.0691  0.1408  0.1029
  591loPI   GL2 9446  13.967   3.231   9.640 -0.1110  0.1609  0.1539
  591loPI   C1A 9447  13.842   3.718   9.175 -0.1414  0.1954 -0.0144
  591loPI   C2A 9448  13.708   3.674   8.738  0.3030 -0.0891 -0.1352
  591loPI   C3A 9449  13.805   3.688   8.303 -0.0232 -0.1273  0.2362
  591loPI   C4A 9450  13.731   3.842   7.925 -0.3471  0.0068  0.0649
  591loPI   C5A 9451  13.531   3.961   7.576 -0.1855  0.2048  0.1638
  591loPI   C6A 9452  13.442   3.757   7.166  0.1278  0.0462 -0.2998
  591loPI   C1B 9453  13.878   3.088   9.281 -0.2829  0.4447 -0.0135
  591loPI   C2B 9454  13.815   3.153   8.802 -0.1487 -0.0676 -0.1735
  591loPI   C3B 9455  13.832   3.158   8.340  0.3708 -0.0279 -0.1669
  591loPI   C4B 9456  13.548   3.313   8.062  0.0964  0.1041  0.0159
  592loPI    C1 9457   5.968   1.986  10.197 -0.0616  0.1598 -0.1645
  592loPI    C2 9458   6.125   2.308  10.377 -0.1223  0.0418  0.1040
  592loPI    C3 9459   5.793   2.138  10.523  0.0109 -0.2516  0.0735
  592loPI   PO4 9460   5.925   2.010   9.972 -0.0162  0.1648  0.1608
  592loPI   GL1 9461   6.153   2.201   9.769  0.0864 -0.1464 -0.0559
  592loPI   GL2 9462   6.313   2.339   9.930  0.0283 -0.1900 -0.0614
  592loPI   C1A 9463   6.276   2.019   9.345 -0.1940  0.1630  0.0348
  592loPI   C2A 9464   6.263   2.012   8.976 -0.1456 -0.2124 -0.0568
  592loPI   C3A 9465   6.268   1.964   8.545  0.2168 -0.2693  0.1916
  592loPI   C4A 9466   6.316   1.934   8.086 -0.0262 -0.2334 -0.0074
  592loPI   C5A 9467   6.102   1.961   7.590 -0.2211  0.4431 -0.1273
  592loPI   C6A 9468   6.115   1.971   7.243 -0.2262  0.1278 -0.0263
  592loPI   C1B 9469   6.580   2.352   9.507  0.0386 -0.1252 -0.1406
  592loPI   C2B 9470   6.645   2.374   9.078  0.3100 -0.2286 -0.4684
  592loPI   C3B 9471   6.569   2.312   8.698  0.1256 -0.2059  0.0384
  592loPI   C4B 9472   6.549   2.340   8.299  0.3733  0.3870  0.2780
  593loPI    C1 9473  16.518   4.889   9.740 -0.0835 -0.2742 -0.0998
  593loPI    C2 9474  16.628   4.604   9.999  0.1677 -0.1501 -0.0668
  593loPI    C3 9475  16.440   4.933  10.130  0.2553 -0.1076 -0.0471
  593loPI   PO4 9476  16.450   4.747   9.572  0.3155  0.2182  0.2132
  593loPI   GL1 9477  16.363   4.655   9.163 -0.2655  0.0138  0.2593
  593loPI   GL2 9478  16.465   5.062   9.109 -0.1242  0.0964  0.0886
  593loPI   C1A 9479  16.082   4.740   8.931 -0.0797  0.2577  0.0526
  593loPI   C2A 9480  16.012   4.812   8.413  0.1270 -0.2126  0.0822
  593loPI   C3A 9481  15.929   4.733   8.038 -0.3256 -0.2517  0.0572
  593loPI   C4A 9482  15.904   4.821   7.587 -0.3903  0.0208 -0.4077
  593loPI   C5A 9483  16.133   4.597   7.212  0.4337  0.0720  0.3852
  593loPI   C6A 9484  16.285   4.825   6.963 -0.3332  0.1220  0.1688
  593loPI   C1B 9485  16.458   5.098   8.705  0.0959  0.2677 -0.1608
  593loPI   C2B 9486  16.656   5.029   8.233  0.2616  0.1482  0.0579
  593loPI   C3B 9487  16.789   4.908   7.817 -0.3936  0.0359 -0.2907
  593loPI   C4B 9488  16.664   4.666   7.381 -0.2244 -0.3943  0.0707
  594loPI    C1 9489  15.489   4.930   9.715  0.1577 -0.2438 -0.3594
  594loPI    C2 9490  15.643   4.595   9.871  0.0991 -0.0448  0.1465
  594loPI    C3 9491  15.584   4.915  10.103 -0.2279  0.1854 -0.2392
  594loPI   PO4 9492  15.538   4.941   9.493  0.2114  0.0571 -0.0912
  594loPI   GL1 9493  15.622   4.977   9.187  0.2050  0.0097  0.1100
  594loPI   GL2 9494  15.394   5.269   9.028  0.0911 -0.1855 -0.0095
  594loPI   C1A 9495  15.610   4.878   8.734 -0.0995  0.1706 -0.0768
  594loPI   C2A 9496  15.409   4.990   8.256 -0.3933  0.2018 -0.4744
  594loPI   C3A 9497  15.274   5.044   7.819 -0.1502  0.0112  0.3474
  594loPI   C4A 9498  15.350   5.168   7.424  0.3002  0.4023 -0.0753
  594loPI   C5A 9499  15.344   5.507   7.108  0.2661  0.1171  0.1827
  594loPI   C6A 9500  15.407   5.774   6.732  0.0457 -0.0700  0.0396
  594loPI   C1B 9501  15.340   5.385   8.588  0.2252  0.1977  0.1485
  594loPI   C2B 9502  15.353   5.492   8.188  0.2654 -0.2480  0.1599
  594loPI   C3B 9503  15.157   5.525   7.713 -0.2562 -0.4835 -0.2209
  594loPI   C4B 9504  14.964   5.605   7.441  0.1703  0.7822 -0.3024
  595loPI    C1 9505  17.214  16.122   9.823  0.0185  0.0737 -0.0409
  595loPI    C2 9506  17.447  16.109  10.148  0.0612 -0.0711 -0.0771
  595loPI    C3 9507  17.301  16.459  10.021  0.3915  0.0442 -0.1476
  595loPI   PO4 9508  17.486  15.982   9.553 -0.1153  0.2917  0.1097
  595loPI   GL1 9509  17.597  15.876   9.171 -0.0164 -0.0326  0.3216
  595loPI   GL2 9510  17.324  15.895   8.983 -0.3644 -0.3443 -0.0967
  595loPI   C1A 9511  17.632  16.256   8.870 -0.0052 -0.1047  0.2390
  595loPI   C2A 9512  17.580  16.308   8.462  0.1173 -0.0597  0.3212
  595loPI   C3A 9513  17.415  16.310   7.967 -0.3967  0.0030  0.0672
  595loPI   C4A 9514  17.664  16.158   7.625  0.0562  0.2011  0.0444
  595loPI   C5A 9515  17.761  16.177   7.087  0.2319 -0.2218  0.0268
  595loPI   C6A 9516  18.064  16.178   6.815 -0.0108 -0.1225 -0.1646
  595loPI   C1B 9517  17.252  15.874   8.524  0.0148  0.1213 -0.2551
  595loPI   C2B 9518  17.083  15.966   8.153 -0.1159  0.0663  0.0693
  595loPI   C3B 9519  17.078  15.917   7.784 -0.4272 -0.0130 -0.0099
  595loPI   C4B 9520  16.868  16.038   7.493 -0.4406 -0.1998  0.2083
  596loPI    C1 9521   2.206   7.457  10.255  0.0288 -0.0682 -0.0212
  596loPI    C2 9522   1.831   7.553  10.354  0.0549  0.0242 -0.0114
  596loPI    C3 9523   2.138   7.741  10.528  0.1050 -0.0147 -0.0576
  596loPI   PO4 9524   2.166   7.441   9.922  0.0979 -0.0181  0.1398
  596loPI   GL1 9525   2.193   7.359   9.524  0.3457 -0.0064  0.2570
  596loPI   GL2 9526   2.543   7.572   9.539 -0.1462 -0.2423 -0.1395
  596loPI   C1A 9527   2.343   7.204   9.118  0.3379  0.2378 -0.0235
  596loPI   C2A 9528   2.324   7.123   8.723 -0.2320  0.3264 -0.1117
  596loPI   C3A 9529   2.469   7.207   8.313 -0.0545  0.2421  0.0309
  596loPI   C4A 9530   2.421   7.177   7.904  0.1087  0.0397 -0.2550
  596loPI   C5A 9531   2.192   7.340   7.625  0.0281 -0.1608 -0.2218
  596loPI   C6A 9532   2.042   7.119   7.274 -0.0099 -0.0675 -0.0671
  596loPI   C1B 9533   2.757   7.512   9.211  0.1506 -0.2154  0.2328
  596loPI   C2B 9534   2.745   7.508   8.694 -0.1304  0.1399  0.3364
  596loPI   C3B 9535   2.863   7.621   8.254  0.2031  0.0623  0.0167
  596loPI   C4B 9536   2.875   7.661   7.821  0.0299  0.3768  0.5272
  597loPI    C1 9537  10.406  16.898  10.340 -0.0297  0.0350  0.0402
  597loPI    C2 9538  10.413  16.837  10.735  0.0144  0.1528  0.0581
  597loPI    C3 9539  10.349  17.204  10.591 -0.1839  0.0787 -0.0469
  597loPI   PO4 9540  10.571  16.593  10.282 -0.0652  0.1646  0.1848
  597loPI   GL1 9541  10.349  16.260   9.910 -0.1801 -0.0329  0.3599
  597loPI   GL2 9542  10.405  16.044   9.753  0.2262 -0.3143  0.0762
  597loPI   C1A 9543  10.385  16.513   9.429 -0.0989 -0.4300  0.1622
  597loPI   C2A 9544  10.325  16.447   9.021 -0.1054 -0.2361  0.1435
  597loPI   C3A 9545  10.342  16.496   8.614  0.1963  0.0411  0.1620
  597loPI   C4A 9546  10.395  16.536   8.231 -0.3065 -0.4636 -0.1944
  597loPI   C5A 9547  10.710  16.501   7.977 -0.1113 -0.0219  0.4836
  597loPI   C6A 9548  11.064  16.609   7.627 -0.1518  0.2637 -0.0733
  597loPI   C1B 9549  10.483  16.032   9.285  0.1044  0.0442 -0.0875
  597loPI   C2B 9550  10.433  16.016   8.899 -0.1874  0.2028  0.0225
  597loPI   C3B 9551  10.385  16.002   8.513 -0.2491 -0.1043  0.0358
  597loPI   C4B 9552  10.422  16.058   8.094 -0.2122 -0.0154  0.0837
  598loPI    C1 9553  12.823   2.013  10.354  0.1466 -0.0187 -0.0573
  598loPI    C2 9554  13.052   1.839  10.632 -0.0748 -0.1794  0.0271
  598loPI    C3 9555  12.833   2.160  10.726  0.0916 -0.0434 -0.0459
  598loPI   PO4 9556  12.930   2.088  10.144  0.0199 -0.0689 -0.2758
  598loPI   GL1 9557  12.844   2.433   9.905 -0.0129 -0.3284 -0.0785
  598loPI   GL2 9558  13.041   2.636   9.913 -0.2783  0.0432 -0.1150
  598loPI   C1A 9559  12.770   2.200   9.529  0.0226 -0.2709  0.0516
  598loPI   C2A 9560  12.645   2.140   9.010 -0.0774  0.1070 -0.0265
  598loPI   C3A 9561  12.632   2.114   8.468  0.1409  0.2908 -0.0490
  598loPI   C4A 9562  12.543   2.083   8.128 -0.3238  0.0001 -0.0700
  598loPI   C5A 9563  12.469   1.948   7.689  0.0626  0.1354  0.0140
  598loPI   C6A 9564  12.091   1.795   7.497  0.4695  0.1838 -0.0181
  598loPI   C1B 9565  13.084   2.515   9.412 -0.1476 -0.0359  0.4332
  598loPI   C2B 9566  13.074   2.493   8.966  0.1682  0.0672 -0.0440
  598loPI   C3B 9567  13.019   2.392   8.483 -0.0713  0.1595 -0.1768
  598loPI   C4B 9568  12.961   2.545   8.052 -0.4934  0.1343 -0.2195
  599loPI    C1 9569   1.530  13.699   9.908 -0.0048 -0.5268  0.0841
  599loPI    C2 9570   1.187  13.880   9.814  0.0781 -0.5126 -0.1990
  599loPI    C3 9571   1.202  13.633  10.128  0.0143  0.1295  0.3321
  599loPI   PO4 9572   1.621  13.582   9.688 -0.1228  0.2699 -0.2854
  599loPI   GL1 9573   1.265  13.521   9.429 -0.1410  0.0971  0.2526
  599loPI   GL2 9574   1.105  13.790   9.272  0.2248 -0.1286 -0.2026
  599loPI   C1A 9575   1.527  13.424   9.053  0.3126  0.0262 -0.0712
  599loPI   C2A 9576   1.563  13.646   8.587 -0.0290 -0.1231 -0.0560
  599loPI   C3A 9577   1.544  13.815   8.106 -0.1973  0.0761 -0.1377
  599loPI   C4A 9578   1.206  13.798   7.746 -0.1120 -0.1877  0.1408
  599loPI   C5A 9579   1.157  13.866   7.357  0.1719  0.0598 -0.2492
  599loPI   C6A 9580   1.475  13.806   7.131  0.2456 -0.0879 -0.3087
  599loPI   C1B 9581   1.152  13.759   8.837 -0.1191 -0.2079 -0.1435
  599loPI   C2B 9582   1.067  13.880   8.444 -0.0717 -0.3802  0.2440
  599loPI   C3B 9583   0.866  13.941   8.042  0.2212  0.2273  0.1797
  599loPI   C4B 9584   0.672  13.894   7.703 -0.1539  0.1213  0.0142
  600loPI    C1 9585   7.691  14.925  10.647  0.0438  0.0814 -0.0792
  600loPI    C2 9586   7.315  14.989  10.767 -0.0788 -0.1241 -0.3441
  600loPI    C3 9587   7.620  15.087  11.006 -0.2947  0.1659 -0.1803
  600loPI   PO4 9588   7.584  14.923  10.338  0.0412  0.5320  0.3097
  600loPI   GL1 9589   7.618  14.942   9.924  0.1057  0.3461  0.1462
  600loPI   GL2 9590   7.374  15.043   9.726 -0.3034 -0.2263 -0.1008
  600loPI   C1A 9591   7.897  14.864   9.519 -0.4469 -0.0398  0.0248
  600loPI   C2A 9592   7.988  14.863   9.038 -0.2795  0.1692 -0.2630
  600loPI   C3A 9593   7.901  14.972   8.631 -0.1664  0.0749  0.0422
  600loPI   C4A 9594   8.000  14.906   8.109  0.1204  0.1031  0.2523
  600loPI   C5A 9595   8.098  14.999   7.645  0.1120 -0.5635 -0.1171
  600loPI   C6A 9596   7.907  15.155   7.224  0.1518 -0.2344 -0.0810
  600loPI   C1B 9597   7.479  14.967   9.307 -0.0600  0.0481  0.1011
  600loPI   C2B 9598   7.404  15.037   8.814  0.1010 -0.0677 -0.0116
  600loPI   C3B 9599   7.438  15.099   8.392 -0.0151  0.2350  0.3086
  600loPI   C4B 9600   7.188  15.161   8.126  0.2996 -0.1755  0.1223
  601loPI    C1 9601   4.456  14.286  10.332 -0.1284  0.2920  0.0132
  601loPI    C2 9602   4.518  14.109  10.685 -0.0038  0.0602 -0.1225
  601loPI    C3 9603   4.393  14.489  10.671 -0.1035  0.0407  0.1707
  601loPI   PO4 9604   4.242  14.092  10.208  0.3278 -0.1280  0.1410
  601loPI   GL1 9605   4.204  13.810   9.800 -0.0785 -0.0879  0.0351
  601loPI   GL2 9606   4.570  13.637   9.819 -0.0592 -0.1024  0.3306
  601loPI   C1A 9607   4.140  14.077   9.538 -0.4507 -0.0981  0.1104
  601loPI   C2A 9608   4.385  14.216   9.136 -0.2762 -0.0668 -0.0720
  601loPI   C3A 9609   4.399  14.282   8.703  0.2581  0.2258 -0.2423
  601loPI   C4A 9610   4.328  14.290   8.254  0.1539 -0.3576  0.0884
  601loPI   C5A 9611   4.330  14.470   7.822 -0.2524 -0.0039  0.0095
  601loPI   C6A 9612   4.384  14.651   7.445 -0.0077 -0.5105  0.2510
  601loPI   C1B 9613   4.314  13.659   9.331  0.3431 -0.0086  0.5777
  601loPI   C2B 9614   4.388  13.677   8.879 -0.1414 -0.1002 -0.1553
  601loPI   C3B 9615   4.434  13.744   8.422 -0.2051  0.0828 -0.1877
  601loPI   C4B 9616   4.437  13.757   8.017  0.4443  0.3716  0.0888
  602loPI    C1 9617  14.421  18.784  10.098 -0.2197  0.1754  0.0557
  602loPI    C2 9618  14.702  18.992  10.291  0.0056  0.1108 -0.1973
  602loPI    C3 9619  14.711  18.592  10.295 -0.2931  0.1034  0.0940
  602loPI   PO4 9620  14.352  19.006   9.887 -0.1799  0.0703 -0.0754
  602loPI   GL1 9621  14.523  19.099   9.478 -0.2686  0.1258  0.3261
  602loPI   GL2 9622  14.520  18.788   9.448  0.3868 -0.0230  0.1233
  602loPI   C1A 9623  14.619  19.097   9.050 -0.1561  0.0990  0.3352
  602loPI   C2A 9624  14.600  19.035   8.576 -0.1667 -0.2595 -0.3662
  602loPI   C3A 9625  14.428  19.073   8.113 -0.1682  0.1042 -0.1793
  602loPI   C4A 9626  14.235  19.008   7.723  0.2491 -0.2449  0.0536
  602loPI   C5A 9627  14.010  18.805   7.357  0.0067  0.0450 -0.0195
  602loPI   C6A 9628  13.989  18.479   7.214  0.0748  0.6287 -0.0283
  602loPI   C1B 9629  14.265  18.675   9.062 -0.0543  0.0060 -0.0424
  602loPI   C2B 9630  14.128  18.674   8.587  0.2522  0.0807  0.0709
  602loPI   C3B 9631  14.029  18.662   8.139  0.0996  0.0770  0.2741
  602loPI   C4B 9632  13.997  18.467   7.700  0.1237 -0.0774 -0.1687
  603loPI    C1 9633   4.780  16.262  10.897 -0.3394 -0.1034 -0.0502
  603loPI    C2 9634   5.076  16.515  10.991 -0.2525 -0.1582 -0.1746
  603loPI    C3 9635   4.695  16.626  11.041 -0.2103 -0.2120  0.3136
  603loPI   PO4 9636   4.914  16.173  10.623 -0.0132  0.4311  0.1333
  603loPI   GL1 9637   4.905  16.256  10.180  0.1839 -0.0104 -0.0026
  603loPI   GL2 9638   5.117  16.411  10.043  0.0388 -0.0376 -0.2659
  603loPI   C1A 9639   4.841  16.093   9.781 -0.1658  0.0848 -0.0214
  603loPI   C2A 9640   4.782  15.935   9.368 -0.0340 -0.1816 -0.1102
  603loPI   C3A 9641   4.883  16.096   8.985  0.4703 -0.1162 -0.2764
  603loPI   C4A 9642   4.787  16.115   8.562 -0.0699 -0.0454 -0.1745
  603loPI   C5A 9643   4.790  16.328   8.109  0.1803 -0.1093 -0.3074
  603loPI   C6A 9644   4.539  16.626   7.896  0.0557  0.2133 -0.0128
  603loPI   C1B 9645   4.852  16.603   9.742  0.2769  0.0337  0.2119
  603loPI   C2B 9646   4.742  16.523   9.357  0.1169  0.2392  0.0346
  603loPI   C3B 9647   4.725  16.529   8.955 -0.0736  0.0141  0.3247
  603loPI   C4B 9648   4.675  16.600   8.530 -0.1100  0.0123  0.0811
  604loPI    C1 9649   0.804   7.193  10.240 -0.0706 -0.2139 -0.0232
  604loPI    C2 9650   1.122   7.203   9.997 -0.0130  0.0453  0.0590
  604loPI    C3 9651   1.114   6.949  10.306 -0.0409 -0.2107 -0.1482
  604loPI   PO4 9652   0.526   7.182  10.057 -0.0568 -0.1470  0.0987
  604loPI   GL1 9653   0.132   7.219   9.777 -0.1340 -0.2193  0.0961
  604loPI   GL2 9654  -0.219   7.126   9.657 -0.1997  0.1675  0.1244
  604loPI   C1A 9655   0.236   7.418   9.416  0.0550 -0.1924  0.2320
  604loPI   C2A 9656   0.365   7.455   9.003 -0.3702 -0.0845  0.0664
  604loPI   C3A 9657   0.419   7.394   8.541 -0.2320 -0.1698  0.0254
  604loPI   C4A 9658   0.448   7.492   8.091  0.1123 -0.0264  0.3492
  604loPI   C5A 9659   0.333   7.604   7.666  0.1806 -0.0377  0.0635
  604loPI   C6A 9660   0.446   7.907   7.451 -0.1361 -0.2572 -0.1234
  604loPI   C1B 9661  -0.012   6.906   9.197 -0.1248 -0.1372  0.3187
  604loPI   C2B 9662   0.266   6.925   8.815  0.5712 -0.0962  0.1586
  604loPI   C3B 9663   0.598   6.885   8.573  0.1671 -0.5128 -0.0934
  604loPI   C4B 9664   0.629   6.872   8.175  0.0211  0.1389  0.1226
  605loPI    C1 9665   2.418  15.499   9.982 -0.0244 -0.0519 -0.3371
  605loPI    C2 9666   2.545  15.469  10.360 -0.1084 -0.0562 -0.3090
  605loPI    C3 9667   2.737  15.274  10.068 -0.1169 -0.1513 -0.2514
  605loPI   PO4 9668   2.441  15.797  10.013 -0.0024  0.2040 -0.2509
  605loPI   GL1 9669   2.795  15.929   9.781  0.2457 -0.4189  0.0001
  605loPI   GL2 9670   2.849  15.637   9.598  0.4396  0.0888  0.1300
  605loPI   C1A 9671   2.916  16.143   9.469 -0.0393 -0.3714 -0.0496
  605loPI   C2A 9672   3.048  16.181   9.055  0.1530  0.0792  0.0322
  605loPI   C3A 9673   3.043  16.040   8.651  0.1190 -0.1074  0.0565
  605loPI   C4A 9674   2.932  16.217   8.314  0.2087  0.1503 -0.0559
  605loPI   C5A 9675   2.865  16.058   7.911 -0.1828 -0.0870 -0.0393
  605loPI   C6A 9676   2.777  15.728   7.648  0.0148  0.2625 -0.1601
  605loPI   C1B 9677   3.135  15.669   9.257  0.2205 -0.1183  0.0825
  605loPI   C2B 9678   3.194  15.613   8.850  0.1094 -0.1831 -0.2741
  605loPI   C3B 9679   3.195  15.560   8.446  0.0443 -0.1218  0.2324
  605loPI   C4B 9680   3.287  15.574   8.000 -0.0839  0.0635 -0.3803
  606loPI    C1 9681  17.622  10.842   9.986 -0.2147 -0.0102  0.1810
  606loPI    C2 9682  17.483  10.752  10.351  0.0524 -0.4668  0.1776
  606loPI    C3 9683  17.873  10.823  10.297 -0.0323 -0.0870  0.0306
  606loPI   PO4 9684  17.470  10.619   9.729  0.2743 -0.1089 -0.0272
  606loPI   GL1 9685  17.410  10.579   9.328 -0.1558  0.4146 -0.1181
  606loPI   GL2 9686  17.538  10.417   9.084  0.1042  0.1173 -0.0203
  606loPI   C1A 9687  17.078  10.549   9.127 -0.0197  0.0503  0.0806
  606loPI   C2A 9688  17.201  10.521   8.586 -0.1157 -0.1212  0.2318
  606loPI   C3A 9689  17.249  10.554   8.118 -0.0721  0.2757 -0.1603
  606loPI   C4A 9690  17.184  10.326   7.804 -0.3482 -0.0318 -0.1871
  606loPI   C5A 9691  17.322  10.417   7.457  0.2323  0.0645 -0.0424
  606loPI   C6A 9692  17.592  10.599   7.317 -0.0806 -0.1411  0.2679
  606loPI   C1B 9693  17.738  10.334   8.716 -0.1995  0.3584  0.1563
  606loPI   C2B 9694  17.622  10.192   8.348  0.1479  0.0352  0.0379
  606loPI   C3B 9695  17.360   9.871   7.963 -0.1431  0.1932  0.0293
  606loPI   C4B 9696  17.323   9.911   7.555  0.1291  0.3112 -0.2634
  607loPI    C1 9697   6.780  11.029  10.278 -0.1770 -0.0128 -0.0515
  607loPI    C2 9698   6.544  11.301  10.450 -0.0584  0.0482  0.0163
  607loPI    C3 9699   6.483  10.912  10.519 -0.0119  0.0723  0.1964
  607loPI   PO4 9700   7.042  11.075  10.218  0.0207 -0.1694 -0.0495
  607loPI   GL1 9701   7.182  11.283   9.845 -0.0527  0.0456 -0.0014
  607loPI   GL2 9702   7.404  11.551   9.778 -0.2509 -0.2202  0.2636
  607loPI   C1A 9703   7.213  11.225   9.457 -0.1981  0.1156 -0.0269
  607loPI   C2A 9704   7.226  11.221   8.933  0.0815 -0.0218 -0.1192
  607loPI   C3A 9705   7.109  11.331   8.510  0.3007  0.2766 -0.2668
  607loPI   C4A 9706   7.087  11.520   8.063  0.0678 -0.6906 -0.1617
  607loPI   C5A 9707   6.952  11.684   7.637  0.2211  0.3439  0.1559
  607loPI   C6A 9708   6.970  11.654   7.245 -0.0932 -0.1640 -0.1039
  607loPI   C1B 9709   7.254  11.730   9.484 -0.0761 -0.2700 -0.1449
  607loPI   C2B 9710   7.076  11.788   8.987 -0.1417 -0.0440  0.0097
  607loPI   C3B 9711   6.972  11.793   8.585 -0.2296 -0.0128  0.0151
  607loPI   C4B 9712   6.844  11.909   8.178  0.2151 -0.0220 -0.1712
  608loPI    C1 9713   4.035  14.526  10.280  0.0490 -0.0719 -0.1626
  608loPI    C2 9714   3.876  14.633  10.631 -0.0203  0.0919 -0.2429
  608loPI    C3 9715   3.904  14.246  10.534  0.3595  0.0236  0.1103
  608loPI   PO4 9716   3.942  14.789  10.150  0.2389  0.1131  0.0676
  608loPI   GL1 9717   3.728  14.924   9.770 -0.1536  0.2176  0.1641
  608loPI   GL2 9718   3.472  14.907   9.942  0.0082  0.3121 -0.2636
  608loPI   C1A 9719   3.702  14.988   9.287 -0.3856 -0.1217  0.1106
  608loPI   C2A 9720   3.749  14.830   8.866 -0.0312  0.1986  0.1022
  608loPI   C3A 9721   3.720  14.825   8.501 -0.0424  0.0161  0.0960
  608loPI   C4A 9722   3.612  14.772   8.025 -0.1262 -0.1655 -0.0020
  608loPI   C5A 9723   3.422  15.017   7.765 -0.0773 -0.0443  0.3376
  608loPI   C6A 9724   3.011  15.188   7.774  0.0092  0.1546 -0.0722
  608loPI   C1B 9725   3.328  14.678   9.681 -0.0468 -0.1237 -0.0384
  608loPI   C2B 9726   3.325  14.658   9.254  0.0371 -0.0301 -0.1608
  608loPI   C3B 9727   3.252  14.616   8.741 -0.1273  0.2179  0.0445
  608loPI   C4B 9728   3.367  14.506   8.368  0.3086 -0.1226 -0.1895
  609POPI    C1 9729   3.151   7.132  10.216  0.2040 -0.0978  0.1747
  609POPI    C2 9730   3.015   7.387  10.492 -0.0707  0.0712 -0.1090
  609POPI    C3 9731   2.859   7.019  10.465  0.0625  0.0011  0.0557
  609POPI   PO4 9732   3.176   7.329   9.964 -0.3236 -0.3243 -0.0433
  609POPI   GL1 9733   2.976   7.273   9.606  0.0549 -0.1460 -0.0266
  609POPI   GL2 9734   2.812   7.056   9.345  0.1723  0.3629  0.2773
  609POPI   C1A 9735   3.251   7.342   9.211 -0.2049 -0.0004 -0.0375
  609POPI   D2A 9736   3.226   7.339   8.705 -0.2768 -0.1648 -0.0566
  609POPI   C3A 9737   3.404   7.395   8.394  0.1253  0.0528 -0.0231
  609POPI   C4A 9738   3.338   7.341   7.974 -0.2177 -0.2397 -0.4089
  609POPI   C1B 9739   2.816   7.024   8.924  0.1959  0.1841  0.0644
  609POPI   C2B 9740   2.846   7.034   8.554 -0.0008 -0.2288  0.0637
  609POPI   C3B 9741   2.892   7.138   8.055  0.0795 -0.2944 -0.2476
  609POPI   C4B 9742   2.944   6.954   7.739  0.1329 -0.2395  0.1534
  610POPI    C1 9743  15.333   0.573  10.043 -0.1408 -0.0795 -0.0616
  610POPI    C2 9744  15.100   0.492  10.357 -0.0173 -0.1338  0.0170
  610POPI    C3 9745  15.437   0.285  10.300  0.0739  0.0253 -0.0286
  610POPI   PO4 9746  15.155   0.416   9.798  0.0360  0.2845  0.1972
  610POPI   GL1 9747  15.198   0.598   9.348  0.1032  0.3883  0.3038
  610POPI   GL2 9748  14.913   0.570   9.341  0.1870  0.3387 -0.0107
  610POPI   C1A 9749  15.374   0.751   8.941 -0.0817 -0.1403 -0.1188
  610POPI   D2A 9750  15.306   0.885   8.534  0.3550  0.0152 -0.1351
  610POPI   C3A 9751  15.202   0.892   8.074  0.2893  0.0368  0.1664
  610POPI   C4A 9752  15.094   0.723   7.659 -0.3020 -0.0322 -0.2434
  610POPI   C1B 9753  14.994   0.499   8.858 -0.0803 -0.1960 -0.3387
  610POPI   C2B 9754  14.964   0.547   8.457 -0.1174  0.2359  0.2938
  610POPI   C3B 9755  14.869   0.504   8.056  0.2994  0.0202 -0.0735
  610POPI   C4B 9756  14.592   0.477   7.669 -0.0115  0.0839 -0.3055
  611POPI    C1 9757  14.643  11.107  10.120 -0.1170  0.1127  0.0221
  611POPI    C2 9758  14.587  11.328  10.449  0.0534 -0.0204  0.1427
  611POPI    C3 9759  14.942  11.331  10.264 -0.1122  0.2404 -0.1820
  611POPI   PO4 9760  14.412  11.213   9.910  0.4441 -0.2398 -0.0969
  611POPI   GL1 9761  14.303  11.216   9.482  0.1012  0.1621  0.3782
  611POPI   GL2 9762  14.424  10.946   9.334  0.0021 -0.0217  0.0974
  611POPI   C1A 9763  14.155  11.248   9.124  0.4272 -0.0566 -0.0593
  611POPI   D2A 9764  14.053  11.130   8.668 -0.1498 -0.3944  0.0893
  611POPI   C3A 9765  13.995  11.301   8.240  0.0161  0.1997  0.1844
  611POPI   C4A 9766  13.986  11.315   7.845  0.4244  0.0504  0.0368
  611POPI   C1B 9767  14.341  10.859   8.948  0.0417  0.1474  0.0071
  611POPI   C2B 9768  14.446  10.948   8.470 -0.1209 -0.3044 -0.0021
  611POPI   C3B 9769  14.142  10.769   8.229  0.0241 -0.1423  0.1728
  611POPI   C4B 9770  14.024  10.703   7.772  0.0454  0.3287 -0.1181
  612POPI    C1 9771  13.250   5.929  10.569  0.2093  0.0393  0.0875
  612POPI    C2 9772  13.281   5.540  10.660 -0.1891 -0.0639 -0.1905
  612POPI    C3 9773  13.156   5.801  10.936 -0.1298 -0.1663 -0.0660
  612POPI   PO4 9774  13.336   6.065  10.309  0.1990  0.2383  0.0341
  612POPI   GL1 9775  13.430   5.966   9.883  0.0424  0.1634  0.2379
  612POPI   GL2 9776  13.758   5.977   9.714 -0.2006 -0.1443 -0.2253
  612POPI   C1A 9777  13.232   5.935   9.571  0.2725 -0.2112  0.3116
  612POPI   D2A 9778  12.845   5.940   9.282  0.0672 -0.0222  0.0427
  612POPI   C3A 9779  12.876   5.958   8.957  0.1598  0.1662  0.3872
  612POPI   C4A 9780  12.870   5.836   8.546  0.2271 -0.0756  0.2231
  612POPI   C1B 9781  13.793   6.124   9.268  0.1181 -0.2164  0.0881
  612POPI   C2B 9782  13.827   6.061   8.856 -0.1017 -0.3243  0.2761
  612POPI   C3B 9783  13.772   6.055   8.392 -0.0417  0.1543 -0.2588
  612POPI   C4B 9784  13.838   6.304   7.945 -0.2025  0.1238 -0.3070
  613POPI    C1 9785  15.584  17.598   9.778 -0.0238  0.0810  0.0749
  613POPI    C2 9786  15.975  17.564   9.857 -0.0414  0.0393  0.1452
  613POPI    C3 9787  15.708  17.368  10.082 -0.0960 -0.0295  0.0216
  613POPI   PO4 9788  15.583  17.532   9.524 -0.2362 -0.1308  0.1605
  613POPI   GL1 9789  15.444  17.758   9.156  0.3709  0.0279  0.1136
  613POPI   GL2 9790  15.329  17.424   9.119  0.0666 -0.2676  0.0929
  613POPI   C1A 9791  15.625  18.030   8.829  0.0798 -0.2040  0.1486
  613POPI   D2A 9792  15.561  18.094   8.324 -0.1116 -0.0688  0.1031
  613POPI   C3A 9793  15.347  17.984   8.085 -0.3394  0.0882  0.0613
  613POPI   C4A 9794  15.069  17.852   7.918  0.2881 -0.0045  0.3281
  613POPI   C1B 9795  15.054  17.057   8.876 -0.1483  0.0636  0.1831
  613POPI   C2B 9796  14.899  16.941   8.526  0.2425  0.1124 -0.0678
  613POPI   C3B 9797  14.854  16.958   8.097  0.2072  0.2903 -0.1190
  613POPI   C4B 9798  14.697  16.900   7.707 -0.1626  0.0640  0.0531
  614POPI    C1 9799   8.396  16.409  10.668 -0.1426  0.1243 -0.2549
  614POPI    C2 9800   8.544  16.093  10.864 -0.0944  0.1432 -0.2606
  614POPI    C3 9801   8.412  16.411  11.068 -0.1405  0.1205 -0.2549
  614POPI   PO4 9802   8.247  16.159  10.431 -0.0648 -0.3859  0.0833
  614POPI   GL1 9803   8.012  16.090  10.121 -0.2450  0.0658  0.1217
  614POPI   GL2 9804   8.220  15.793   9.815 -0.0442  0.1332 -0.0907
  614POPI   C1A 9805   8.087  16.261   9.737  0.0238 -0.1045 -0.0215
  614POPI   D2A 9806   8.149  16.243   9.247 -0.0165 -0.2491 -0.2561
  614POPI   C3A 9807   8.082  16.234   8.821  0.3499 -0.3740  0.2549
  614POPI   C4A 9808   8.059  16.331   8.440 -0.2147 -0.0009 -0.2478
  614POPI   C1B 9809   8.220  15.697   9.342  0.1165  0.0575 -0.1893
  614POPI   C2B 9810   8.212  15.672   8.860 -0.1207  0.0671  0.0413
  614POPI   C3B 9811   8.157  15.820   8.529 -0.3138  0.0477 -0.0386
  614POPI   C4B 9812   8.080  15.856   8.081  0.3765 -0.1328 -0.1462
  615POPI    C1 9813   6.515  14.069  10.432  0.1225 -0.0837  0.2149
  615POPI    C2 9814   6.402  13.759  10.658  0.0091 -0.1081  0.1260
  615POPI    C3 9815   6.199  14.104  10.674  0.0271 -0.0959  0.0933
  615POPI   PO4 9816   6.588  13.974  10.113 -0.0990  0.0373 -0.1282
  615POPI   GL1 9817   6.717  13.839   9.674  0.4474  0.2184 -0.2669
  615POPI   GL2 9818   6.958  13.894   9.781 -0.2974  0.1471  0.0404
  615POPI   C1A 9819   6.764  13.857   9.225 -0.1300  0.2573 -0.0721
  615POPI   D2A 9820   6.709  13.728   8.807 -0.0244  0.0685 -0.1786
  615POPI   C3A 9821   6.728  13.893   8.455  0.1954 -0.1099 -0.2369
  615POPI   C4A 9822   6.653  14.070   8.131  0.1985  0.0385 -0.0213
  615POPI   C1B 9823   7.211  13.726   9.528  0.1119  0.0511 -0.0192
  615POPI   C2B 9824   7.252  13.689   9.101 -0.1679  0.2328  0.0113
  615POPI   C3B 9825   7.263  13.598   8.631  0.0860 -0.4977 -0.3024
  615POPI   C4B 9826   7.201  13.714   8.184 -0.2699  0.2391  0.1770
  616POPI    C1 9827  18.847   7.611  10.040  0.1509 -0.0665 -0.1337
  616POPI    C2 9828  18.939   7.999  10.075 -0.1255  0.0022 -0.1444
  616POPI    C3 9829  19.011   7.748  10.378 -0.1249  0.0997 -0.0634
  616POPI   PO4 9830  18.680   7.698   9.842 -0.2548 -0.0196  0.1730
  616POPI   GL1 9831  18.458   7.595   9.511  0.0618  0.0213 -0.2904
  616POPI   GL2 9832  18.158   7.365   9.550 -0.0806  0.0016  0.0934
  616POPI   C1A 9833  18.140   7.632   9.090  0.1573 -0.1853 -0.4106
  616POPI   D2A 9834  17.912   7.749   8.676  0.3807  0.1927 -0.4629
  616POPI   C3A 9835  18.043   7.642   8.292  0.2885  0.2081  0.3170
  616POPI   C4A 9836  18.142   7.323   7.917 -0.0658 -0.0647 -0.3083
  616POPI   C1B 9837  18.524   7.284   9.144  0.0297 -0.0606  0.3341
  616POPI   C2B 9838  18.778   7.238   8.794 -0.1255  0.0102  0.1205
  616POPI   C3B 9839  18.781   7.483   8.459 -0.0929  0.2225  0.2018
  616POPI   C4B 9840  18.519   7.338   8.227 -0.0959 -0.1270  0.1547
  617POPI    C1 9841  13.799  15.452  10.416 -0.2257 -0.0735 -0.1542
  617POPI    C2 9842  13.565  15.329  10.715 -0.1148  0.0724 -0.0051
  617POPI    C3 9843  13.839  15.613  10.780 -0.1469  0.1657 -0.2660
  617POPI   PO4 9844  13.928  15.202  10.174  0.0348  0.0169  0.0733
  617POPI   GL1 9845  13.990  15.155   9.759 -0.2131  0.2581  0.0392
  617POPI   GL2 9846  14.267  15.022   9.663 -0.0131 -0.2293  0.0823
  617POPI   C1A 9847  13.768  15.083   9.334  0.2173 -0.2257 -0.0548
  617POPI   D2A 9848  13.663  14.920   9.018 -0.2931 -0.1353 -0.1619
  617POPI   C3A 9849  13.525  14.991   8.695 -0.2859  0.0268 -0.0955
  617POPI   C4A 9850  13.389  14.901   8.202  0.0567  0.0430  0.2240
  617POPI   C1B 9851  14.204  14.917   9.239 -0.1871  0.3218 -0.0027
  617POPI   C2B 9852  14.080  14.824   8.827  0.1735  0.0850  0.4257
  617POPI   C3B 9853  13.863  14.760   8.374  0.0250 -0.2491 -0.0537
  617POPI   C4B 9854  13.969  14.788   7.929  0.2850 -0.4450 -0.2432
  618POPI    C1 9855  18.334  16.474   9.838 -0.2419  0.0531  0.2933
  618POPI    C2 9856  18.575  16.159   9.891  0.0338  0.1448 -0.3363
  618POPI    C3 9857  18.669  16.513  10.053 -0.0233  0.0252 -0.0361
  618POPI   PO4 9858  18.244  16.470   9.550  0.2456  0.1314  0.0360
  618POPI   GL1 9859  18.495  16.575   9.150 -0.0711 -0.1556  0.0160
  618POPI   GL2 9860  18.838  16.707   9.203  0.3155 -0.2423 -0.0124
  618POPI   C1A 9861  18.387  16.728   8.867  0.3984 -0.2026 -0.2659
  618POPI   D2A 9862  18.341  16.856   8.455 -0.3554  0.0406  0.0361
  618POPI   C3A 9863  18.286  17.044   8.124  0.3720  0.0458 -0.1992
  618POPI   C4A 9864  18.308  16.994   7.679  0.1548  0.0742  0.0566
  618POPI   C1B 9865  18.845  16.649   8.668 -0.0089 -0.2154  0.0423
  618POPI   C2B 9866  19.029  16.699   8.238 -0.1413  0.0105 -0.1486
  618POPI   C3B 9867  18.950  16.704   7.760 -0.2576  0.1938 -0.0655
  618POPI   C4B 9868  18.825  16.382   7.422 -0.2176  0.0237 -0.1078
  619POPI    C1 9869  18.077  18.817   9.833 -0.0496  0.2446  0.0073
  619POPI    C2 9870  18.173  18.429   9.823 -0.0486  0.2496 -0.2100
  619POPI    C3 9871  18.156  18.621  10.173 -0.1174  0.0371 -0.0948
  619POPI   PO4 9872  18.267  18.989   9.587  0.0470 -0.5733 -0.0497
  619POPI   GL1 9873  18.579  18.970   9.205 -0.0688 -0.2603  0.2097
  619POPI   GL2 9874  18.532  18.776   8.959  0.3574 -0.2539 -0.1302
  619POPI   C1A 9875  18.586  19.370   9.162 -0.0815  0.0667 -0.1445
  619POPI   D2A 9876  18.272  19.674   8.976 -0.4579  0.0329  0.1688
  619POPI   C3A 9877  18.201  19.385   8.656 -0.1565 -0.1538 -0.0686
  619POPI   C4A 9878  18.117  19.047   8.614 -0.2127 -0.3558  0.0519
  619POPI   C1B 9879  18.816  18.684   8.586  0.0936 -0.0288 -0.1773
  619POPI   C2B 9880  18.869  18.623   8.094 -0.0848  0.0546 -0.2321
  619POPI   C3B 9881  19.052  18.723   7.704 -0.3382 -0.0300  0.0320
  619POPI   C4B 9882  19.176  18.889   7.307 -0.0285  0.1392 -0.1463
  620POPI    C1 9883   7.994  12.599  10.510 -0.0605  0.0634 -0.1128
  620POPI    C2 9884   8.119  12.978  10.538  0.0434  0.0169  0.0764
  620POPI    C3 9885   8.064  12.761  10.869 -0.1260 -0.0989 -0.0256
  620POPI   PO4 9886   8.155  12.465  10.355 -0.2483 -0.1781 -0.0400
  620POPI   GL1 9887   8.358  12.142  10.102  0.1572  0.3260 -0.1923
  620POPI   GL2 9888   8.559  12.192   9.851 -0.1330  0.0645  0.0260
  620POPI   C1A 9889   8.097  12.038   9.729 -0.1305 -0.0267 -0.0615
  620POPI   D2A 9890   8.110  11.974   9.256 -0.2795 -0.1072 -0.3247
  620POPI   C3A 9891   7.956  12.033   8.896  0.4229 -0.0299  0.0924
  620POPI   C4A 9892   7.885  12.167   8.444  0.1392  0.0089  0.2025
  620POPI   C1B 9893   8.573  12.365   9.453 -0.0163 -0.2123 -0.2301
  620POPI   C2B 9894   8.495  12.296   9.065  0.0030 -0.2413  0.1162
  620POPI   C3B 9895   8.376  12.296   8.661  0.4490 -0.1190 -0.2232
  620POPI   C4B 9896   8.407  12.312   8.238  0.2782 -0.2484 -0.0913
  621POPI    C1 9897   3.217  16.573   9.920  0.0927 -0.2335  0.0830
  621POPI    C2 9898   3.160  16.182   9.983  0.0387 -0.2077  0.1960
  621POPI    C3 9899   3.108  16.443  10.282 -0.0537 -0.1004  0.0875
  621POPI   PO4 9900   3.039  16.704   9.747 -0.0228  0.0119 -0.2058
  621POPI   GL1 9901   2.820  16.989   9.434  0.2162 -0.0839  0.2367
  621POPI   GL2 9902   2.619  17.162   9.462  0.3181  0.2673 -0.0984
  621POPI   C1A 9903   2.873  16.942   8.930 -0.3236  0.1169 -0.0796
  621POPI   D2A 9904   2.865  16.839   8.470  0.0102  0.1762  0.4799
  621POPI   C3A 9905   3.137  17.058   8.264  0.0488  0.0621  0.2300
  621POPI   C4A 9906   3.221  17.177   7.958 -0.1019  0.1118  0.4137
  621POPI   C1B 9907   2.642  17.341   9.000 -0.1707  0.3143  0.0738
  621POPI   C2B 9908   2.717  17.383   8.600  0.1413  0.1393  0.0902
  621POPI   C3B 9909   2.718  17.358   8.123  0.1852  0.2430 -0.2580
  621POPI   C4B 9910   2.734  17.033   7.834  0.0917  0.1844 -0.2074
  622POPI    C1 9911   3.599  10.475   9.920  0.2421  0.3290 -0.2032
  622POPI    C2 9912   3.754  10.685  10.223  0.0808  0.3138 -0.1091
  622POPI    C3 9913   3.775  10.286  10.225 -0.1893  0.2975  0.0346
  622POPI   PO4 9914   3.688  10.611   9.703 -0.1541 -0.2582 -0.3296
  622POPI   GL1 9915   3.801  10.511   9.342 -0.1221  0.0322  0.1097
  622POPI   GL2 9916   4.177  10.583   9.454 -0.0250 -0.0992  0.1250
  622POPI   C1A 9917   4.051  10.464   8.939 -0.0654  0.0115  0.1086
  622POPI   D2A 9918   4.112  10.495   8.509  0.3217 -0.2573 -0.2011
  622POPI   C3A 9919   3.990  10.388   8.033 -0.0335 -0.1899 -0.3246
  622POPI   C4A 9920   3.886  10.159   7.649 -0.3005 -0.1021 -0.3979
  622POPI   C1B 9921   4.463  10.296   9.196  0.1350  0.1476  0.1913
  622POPI   C2B 9922   4.540  10.347   8.723  0.2258  0.2155  0.0394
  622POPI   C3B 9923   4.488  10.305   8.169  0.1965  0.0729  0.0607
  622POPI   C4B 9924   4.600  10.351   7.635 -0.0110  0.1591 -0.0130
  623POPI    C1 9925   6.440  18.046  10.580  0.0412  0.0170  0.0518
  623POPI    C2 9926   6.661  17.852  10.309  0.0188  0.0582  0.0040
  623POPI    C3 9927   6.473  17.648  10.597  0.2521  0.0376  0.1438
  623POPI   PO4 9928   6.270  18.265  10.395 -0.2284 -0.0777  0.1452
  623POPI   GL1 9929   6.057  18.033  10.053 -0.1077 -0.1159 -0.1776
  623POPI   GL2 9930   6.240  17.687  10.161  0.3890 -0.1259  0.1115
  623POPI   C1A 9931   6.064  17.794   9.636  0.0065  0.1104  0.1145
  623POPI   D2A 9932   6.263  17.797   9.234 -0.3363 -0.0898  0.3075
  623POPI   C3A 9933   6.273  17.903   8.822  0.1284  0.1212  0.0604
  623POPI   C4A 9934   6.321  17.871   8.387 -0.3243 -0.2376  0.2337
  623POPI   C1B 9935   6.524  17.779   9.858 -0.1806  0.2177 -0.0293
  623POPI   C2B 9936   6.604  18.195   9.601 -0.1982  0.0901 -0.0484
  623POPI   C3B 9937   6.636  18.272   9.191 -0.2092 -0.3206 -0.0484
  623POPI   C4B 9938   6.632  18.255   8.657 -0.0727 -0.3086 -0.2019
  624POPI    C1 9939  18.211   3.778   9.801  0.0350  0.0703  0.1321
  624POPI    C2 9940  18.294   3.965  10.145  0.0532 -0.0191  0.1766
  624POPI    C3 9941  18.145   3.594  10.150 -0.2037  0.0809  0.0942
  624POPI   PO4 9942  18.474   3.789   9.611  0.2759 -0.1658  0.1548
  624POPI   GL1 9943  18.786   3.879   9.457 -0.3088  0.0355 -0.1897
  624POPI   GL2 9944  19.115   4.019   9.543 -0.0592 -0.0261 -0.1254
  624POPI   C1A 9945  18.627   3.928   9.022  0.0835 -0.1390 -0.0981
  624POPI   D2A 9946  18.726   4.126   8.719  0.0220 -0.1537  0.1802
  624POPI   C3A 9947  18.819   4.014   8.294 -0.0608  0.1237 -0.3372
  624POPI   C4A 9948  19.107   4.079   7.923  0.2160  0.2919  0.3571
  624POPI   C1B 9949  19.084   3.972   9.087  0.0049  0.1445  0.0559
  624POPI   C2B 9950  19.376   4.038   8.761  0.1533 -0.1617 -0.3412
  624POPI   C3B 9951  19.390   4.105   8.300 -0.1408 -0.3003  0.1316
  624POPI   C4B 9952  19.520   4.347   7.997  0.1771 -0.0439  0.3651
  625DPPI    C1 9953   6.932   8.939  10.517  0.1999 -0.0851 -0.0432
  625DPPI    C2 9954   6.764   8.595  10.632 -0.2566  0.1930  0.1445
  625DPPI    C3 9955   7.096   8.725  10.813  0.1300 -0.3195 -0.1714
  625DPPI   PO4 9956   6.904   8.930  10.234 -0.1722 -0.0988  0.1987
  625DPPI   GL1 9957   6.912   8.990   9.806  0.0867  0.2222  0.2060
  625DPPI   GL2 9958   6.608   9.058   9.614 -0.0436 -0.2066  0.0698
  625DPPI   C1A 9959   7.152   8.909   9.459  0.1150 -0.2674 -0.2360
  625DPPI   C2A 9960   7.201   8.930   9.017 -0.2451 -0.1749  0.1133
  625DPPI   C3A 9961   7.136   8.991   8.661 -0.2602  0.0043  0.0636
  625DPPI   C4A 9962   7.311   8.926   8.259 -0.0481 -0.0703  0.2684
  625DPPI   C1B 9963   6.688   9.046   9.200 -0.3310 -0.0461  0.1701
  625DPPI   C2B 9964   6.703   9.157   8.842  0.4656 -0.0860 -0.0127
  625DPPI   C3B 9965   6.770   9.140   8.408 -0.0012 -0.0985 -0.0558
  625DPPI   C4B 9966   6.806   9.055   7.924 -0.0268  0.0093  0.4149
  626DPPI    C1 9967  18.127  15.157   9.624  0.3044  0.0747  0.1318
  626DPPI    C2 9968  18.088  15.439   9.905  0.0004 -0.0343  0.2027
  626DPPI    C3 9969  18.262  15.090   9.994  0.1330  0.0269  0.1865
  626DPPI   PO4 9970  18.039  15.283   9.416 -0.1435 -0.2785 -0.0150
  626DPPI   GL1 9971  18.159  15.001   9.107 -0.0869 -0.3325 -0.0005
  626DPPI   GL2 9972  17.934  14.804   9.224 -0.0470 -0.0008 -0.4102
  626DPPI   C1A 9973  18.291  15.249   8.761 -0.0344 -0.2362  0.1154
  626DPPI   C2A 9974  18.442  15.186   8.431 -0.0104  0.0859  0.2028
  626DPPI   C3A 9975  18.449  15.359   7.993  0.0788  0.1169 -0.1230
  626DPPI   C4A 9976  18.272  15.267   7.588 -0.2099  0.0982  0.1577
  626DPPI   C1B 9977  17.681  14.769   9.004  0.1016  0.1899 -0.3655
  626DPPI   C2B 9978  17.597  15.007   8.627 -0.0194  0.3618  0.0191
  626DPPI   C3B 9979  17.863  15.285   8.494 -0.0386 -0.4480  0.0371
  626DPPI   C4B 9980  18.216  15.632   8.484 -0.2469  0.2294  0.1609
  627DPPI    C1 9981   9.377   4.192  10.984  0.0252  0.0959 -0.2126
  627DPPI    C2 9982   9.531   4.205  11.353  0.0695 -0.0169 -0.2266
  627DPPI    C3 9983   9.150   4.096  11.299  0.0720 -0.0301 -0.2167
  627DPPI   PO4 9984   9.518   4.055  10.839  0.1623  0.0755 -0.1324
  627DPPI   GL1 9985   9.566   3.935  10.446  0.1930 -0.2239  0.1664
  627DPPI   GL2 9986   9.918   3.970  10.262  0.0213 -0.2395  0.0337
  627DPPI   C1A 9987   9.458   3.913   9.958 -0.2889 -0.1607 -0.4877
  627DPPI   C2A 9988   9.470   4.109   9.524 -0.1237  0.0038 -0.1515
  627DPPI   C3A 9989   9.549   4.233   9.033  0.0163 -0.2192 -0.2310
  627DPPI   C4A 9990   9.502   4.152   8.658  0.0626 -0.0105 -0.2931
  627DPPI   C1B 9991  10.061   4.024   9.847  0.2863  0.0355 -0.0158
  627DPPI   C2B 9992   9.981   3.892   9.441 -0.2304 -0.0359 -0.1436
  627DPPI   C3B 9993   9.975   3.950   9.040  0.2262 -0.0109 -0.1710
  627DPPI   C4B 9994  10.055   4.020   8.589  0.3121 -0.1223  0.2696
  628DPPI    C1 9995  17.885  18.123   9.570 -0.2026 -0.2137 -0.1390
  628DPPI    C2 9996  18.080  17.859   9.799  0.2034  0.1152 -0.0933
  628DPPI    C3 9997  18.192  17.915   9.419  0.0885  0.1871 -0.1173
  628DPPI   PO4 9998  17.671  18.130   9.634 -0.5281 -0.1288  0.2498
  628DPPI   GL1 9999  17.502  18.228   9.180  0.1039 -0.1761 -0.1276
  628DPPI   GL210000  17.499  17.959   8.992  0.1916 -0.0316 -0.0238
  628DPPI   C1A10001  17.601  18.530   8.762  0.2612 -0.2348 -0.0344
  628DPPI   C2A10002  17.349  18.474   8.370 -0.0473  0.2175  0.3022
  628DPPI   C3A10003  17.182  18.888   8.158 -0.1023  0.1210  0.4967
  628DPPI   C4A10004  17.195  19.085   7.766 -0.0764 -0.1189 -0.3334
  628DPPI   C1B10005  17.463  17.993   8.571 -0.0735  0.0319 -0.1325
  628DPPI   C2B10006  17.440  17.965   8.047 -0.0983  0.2701 -0.0461
  628DPPI   C3B10007  17.168  17.997   7.586  0.3189  0.0734  0.1756
  628DPPI   C4B10008  17.117  17.784   7.230  0.0845 -0.1717 -0.1249
  629DPPI    C110009   6.458  13.415  10.329  0.1405  0.1584  0.1557
  629DPPI    C210010   6.094  13.383  10.492  0.0593 -0.0083 -0.0539
  629DPPI    C310011   6.402  13.180  10.647  0.0241 -0.0126  0.0107
  629DPPI   PO410012   6.378  13.493  10.118  0.1936 -0.1533 -0.0212
  629DPPI   GL110013   6.502  13.361   9.807 -0.0477 -0.1325  0.1266
  629DPPI   GL210014   6.839  13.305   9.700 -0.3801 -0.3728  0.5072
  629DPPI   C1A10015   6.299  13.513   9.440  0.1469 -0.3202  0.1640
  629DPPI   C2A10016   6.250  13.451   9.126 -0.1157 -0.0906  0.2356
  629DPPI   C3A10017   6.247  13.543   8.655  0.3600  0.0114 -0.3473
  629DPPI   C4A10018   6.110  13.541   8.204  0.2350 -0.0178 -0.3614
  629DPPI   C1B10019   6.841  13.387   9.233 -0.0062 -0.3738  0.1265
  629DPPI   C2B10020   6.773  13.249   8.860  0.0928 -0.0042 -0.1132
  629DPPI   C3B10021   6.804  13.263   8.453  0.2634 -0.0344  0.0787
  629DPPI   C4B10022   6.700  13.543   8.046  0.1398  0.0056 -0.0723
  630DPPI    C110023  17.069  15.199   9.814 -0.0025 -0.1380  0.2782
  630DPPI    C210024  16.846  15.531   9.807 -0.0831 -0.1957 -0.0371
  630DPPI    C310025  16.802  15.268  10.104 -0.1917 -0.0421  0.0848
  630DPPI   PO410026  17.139  15.222   9.563 -0.3101  0.1444 -0.4331
  630DPPI   GL110027  17.079  15.342   9.130 -0.0811  0.0475 -0.5539
  630DPPI   GL210028  16.888  15.043   9.196 -0.0307 -0.0629 -0.2469
  630DPPI   C1A10029  16.913  15.552   8.831 -0.1429 -0.0996 -0.1300
  630DPPI   C2A10030  16.814  15.526   8.382  0.0820  0.1829  0.0161
  630DPPI   C3A10031  16.740  15.633   7.990 -0.1586 -0.1305  0.2875
  630DPPI   C4A10032  16.654  15.523   7.526 -0.1754  0.0465  0.2362
  630DPPI   C1B10033  16.808  15.036   8.838 -0.1556  0.2494  0.1134
  630DPPI   C2B10034  16.566  15.152   8.542  0.1247 -0.3270  0.0523
  630DPPI   C3B10035  16.333  14.923   8.259  0.0170 -0.0274  0.1353
  630DPPI   C4B10036  16.184  14.603   8.005  0.0758  0.0465 -0.0459
  631DPPI    C110037   7.348  16.552  10.414  0.1407  0.0493  0.1840
  631DPPI    C210038   7.034  16.433  10.630  0.0204 -0.2232 -0.1329
  631DPPI    C310039   7.385  16.246  10.668  0.0677 -0.1066  0.0095
  631DPPI   PO410040   7.253  16.648  10.146  0.1939  0.1327 -0.2373
  631DPPI   GL110041   7.411  16.502   9.744  0.3573 -0.1129 -0.2840
  631DPPI   GL210042   7.640  16.455   9.878  0.0161 -0.0036 -0.1415
  631DPPI   C1A10043   7.196  16.505   9.478  0.2222  0.0492 -0.1668
  631DPPI   C2A10044   7.160  16.536   9.092  0.1647 -0.2343 -0.2356
  631DPPI   C3A10045   7.005  16.621   8.734 -0.0131  0.0460 -0.1624
  631DPPI   C4A10046   7.031  16.606   8.382 -0.3504 -0.0634  0.1071
  631DPPI   C1B10047   7.670  16.361   9.382  0.1906 -0.1248 -0.1965
  631DPPI   C2B10048   7.636  16.376   8.992  0.1509 -0.0932 -0.0070
  631DPPI   C3B10049   7.579  16.486   8.573  0.2335  0.0207  0.0656
  631DPPI   C4B10050   7.553  16.486   8.222 -0.0748  0.3622  0.0243
  632DPPI    C110051   9.148   3.456  10.733 -0.0228 -0.3357  0.1270
  632DPPI    C210052   9.043   3.780  10.943 -0.2095 -0.4113  0.1528
  632DPPI    C310053   9.361   3.564  11.054  0.1238 -0.0461 -0.0637
  632DPPI   PO410054   9.216   3.599  10.435 -0.3639  0.1590 -0.1030
  632DPPI   GL110055   9.242   3.272  10.108  0.4885 -0.2070  0.0178
  632DPPI   GL210056   9.573   3.451  10.078  0.1267  0.1069 -0.0259
  632DPPI   C1A10057   9.227   3.235   9.728 -0.2870 -0.4665 -0.0614
  632DPPI   C2A10058   9.230   3.199   9.299  0.2426 -0.0255  0.0501
  632DPPI   C3A10059   9.211   3.274   8.851 -0.1714 -0.2898  0.1716
  632DPPI   C4A10060   9.104   3.211   8.349 -0.2215 -0.3636  0.0084
  632DPPI   C1B10061   9.610   3.520   9.654  0.0954 -0.3242  0.0968
  632DPPI   C2B10062   9.607   3.585   9.297 -0.1095 -0.3616  0.1122
  632DPPI   C3B10063   9.625   3.670   8.844 -0.0200  0.2647  0.3594
  632DPPI   C4B10064   9.456   3.701   8.420 -0.1148 -0.0999 -0.1897
  633DPPI    C110065  10.696   5.642  10.573  0.0117  0.1971  0.1330
  633DPPI    C210066  10.919   5.820  10.292  0.1843 -0.2571 -0.0285
  633DPPI    C310067  11.020   5.851  10.678  0.0671  0.1941 -0.0286
  633DPPI   PO410068  10.555   5.525  10.324 -0.1215  0.0522 -0.0591
  633DPPI   GL110069  10.402   5.198  10.203  0.0422 -0.0401 -0.0638
  633DPPI   GL210070  10.132   5.388  10.173  0.0443  0.1342 -0.2800
  633DPPI   C1A10071  10.283   4.844  10.058  0.1467 -0.2655  0.0353
  633DPPI   C2A10072  10.245   4.770   9.576  0.2072  0.0709 -0.1328
  633DPPI   C3A10073  10.250   4.856   9.103  0.2073  0.3055  0.2061
  633DPPI   C4A10074  10.170   4.888   8.767  0.4510 -0.2713  0.1125
  633DPPI   C1B10075  10.225   5.340   9.769 -0.1341  0.2880  0.1248
  633DPPI   C2B10076  10.150   5.399   9.355  0.0688  0.1578  0.2923
  633DPPI   C3B10077  10.141   5.433   9.017 -0.1347 -0.1375 -0.3665
  633DPPI   C4B10078  10.170   5.373   8.565  0.5920 -0.0444  0.1060
  634DPPI    C110079   8.244   9.096  10.635  0.1052  0.0645  0.0562
  634DPPI    C210080   8.563   9.035  10.868  0.0273  0.0434  0.1583
  634DPPI    C310081   8.305   9.328  10.956 -0.0460 -0.0175  0.1455
  634DPPI   PO410082   8.334   9.081  10.383  0.1487  0.0098 -0.2772
  634DPPI   GL110083   8.199   9.270   9.946  0.1368 -0.2807 -0.0419
  634DPPI   GL210084   8.530   9.404  10.109 -0.2248  0.0545  0.1741
  634DPPI   C1A10085   8.152   9.140   9.623 -0.0212  0.2669  0.1018
  634DPPI   C2A10086   8.049   8.982   9.224  0.2197  0.2837 -0.2094
  634DPPI   C3A10087   8.170   9.138   8.800  0.2254 -0.4073 -0.5587
  634DPPI   C4A10088   8.334   9.035   8.438  0.0513 -0.0927 -0.2083
  634DPPI   C1B10089   8.615   9.408   9.652  0.0441  0.5887 -0.0182
  634DPPI   C2B10090   8.484   9.289   9.225  0.0728  0.2293  0.1605
  634DPPI   C3B10091   8.573   9.437   8.729  0.1660 -0.0292 -0.1185
  634DPPI   C4B10092   8.737   9.634   8.417 -0.0737 -0.0781 -0.3073
  635PYPI    C110093  12.283  17.553  10.342 -0.0994 -0.1413  0.1081
  635PYPI    C210094  12.174  17.828  10.611  0.0583 -0.1615  0.1942
  635PYPI    C310095  12.028  17.456  10.634 -0.0290 -0.1288  0.1739
  635PYPI   PO410096  12.361  17.687  10.134  0.2561  0.0345 -0.1206
  635PYPI   GL110097  12.151  17.941   9.849  0.1674 -0.0293  0.0223
  635PYPI   GL210098  12.070  18.259   9.903 -0.0461 -0.0089 -0.2018
  635PYPI   C1A10099  12.078  17.897   9.481  0.0257 -0.0735 -0.0421
  635PYPI   C2A10100  12.019  17.901   9.136 -0.2685 -0.1277  0.1083
  635PYPI   D3A10101  11.933  17.912   8.648 -0.2508  0.2236  0.3241
  635PYPI   C4A10102  11.911  17.790   8.241 -0.3311 -0.0183  0.2661
  635PYPI   C1B10103  11.967  18.385   9.541  0.1098  0.4932 -0.0754
  635PYPI   C2B10104  11.921  18.393   9.073  0.2170  0.0007 -0.1194
  635PYPI   C3B10105  11.816  18.405   8.608 -0.0337 -0.2087 -0.0948
  635PYPI   C4B10106  11.767  18.330   8.144  0.0038 -0.1440 -0.2555
  636PYPI    C110107   0.530  18.193   9.822 -0.0939 -0.0610  0.0640
  636PYPI    C210108   0.821  17.978   9.650 -0.1189 -0.1050  0.0763
  636PYPI    C310109   0.588  17.812   9.930 -0.1732 -0.0780  0.0474
  636PYPI   PO410110   0.496  18.389   9.616 -0.1407  0.2617 -0.1288
  636PYPI   GL110111   0.460  18.437   9.235 -0.0858  0.0230  0.2012
  636PYPI   GL210112   0.646  18.716   9.191  0.1479  0.1116 -0.0561
  636PYPI   C1A10113   0.403  18.411   8.794  0.2067 -0.2180 -0.0927
  636PYPI   C2A10114   0.351  18.394   8.357  0.0467  0.0807  0.1909
  636PYPI   D3A10115   0.574  18.453   8.057 -0.4114  0.0506 -0.1020
  636PYPI   C4A10116   0.668  18.457   7.656  0.0803 -0.2203  0.0984
  636PYPI   C1B10117   0.715  18.807   8.833  0.1237 -0.2956  0.0776
  636PYPI   C2B10118   0.907  18.920   8.448 -0.2225  0.0054 -0.5566
  636PYPI   C3B10119   0.938  18.809   8.012  0.0697  0.2914  0.4167
  636PYPI   C4B10120   1.122  18.654   7.556 -0.0566  0.1740  0.1338
  637PYPI    C110121   0.312  12.046  10.286  0.0143  0.0263 -0.1637
  637PYPI    C210122   0.221  12.435  10.276 -0.0850  0.0096  0.0340
  637PYPI    C310123  -0.046  12.171  10.412  0.0260 -0.1146  0.0135
  637PYPI   PO410124   0.509  12.115  10.024  0.2260 -0.1482  0.2039
  637PYPI   GL110125   0.753  12.051   9.586  0.1911  0.2624 -0.2433
  637PYPI   GL210126   0.771  12.352   9.633 -0.1787 -0.0941 -0.1593
  637PYPI   C1A10127   1.132  12.255   9.235 -0.1946 -0.1980  0.2113
  637PYPI   C2A10128   1.183  12.367   8.837 -0.2619  0.0727  0.1331
  637PYPI   D3A10129   1.228  12.262   8.417 -0.0462  0.0839 -0.1550
  637PYPI   C4A10130   0.912  12.018   8.308 -0.1232 -0.3428 -0.1570
  637PYPI   C1B10131   0.629  12.443   9.177  0.2088  0.0584  0.2516
  637PYPI   C2B10132   0.756  12.607   8.779 -0.0725  0.2452  0.0980
  637PYPI   C3B10133   0.740  12.527   8.346 -0.1082  0.2130  0.1079
  637PYPI   C4B10134   0.585  12.308   7.924 -0.1866 -0.2221 -0.0201
  638PYPI    C110135   2.833  14.984  10.442  0.2227 -0.0171  0.0783
  638PYPI    C210136   3.129  14.948  10.709  0.2126  0.1314  0.1106
  638PYPI    C310137   2.828  15.203  10.778 -0.0468 -0.1900  0.1905
  638PYPI   PO410138   2.890  14.854  10.214  0.3226 -0.1985  0.1000
  638PYPI   GL110139   2.870  14.857   9.839  0.0970  0.2321  0.0619
  638PYPI   GL210140   2.543  14.727   9.784  0.1347 -0.0178  0.3654
  638PYPI   C1A10141   2.638  15.198   9.596  0.1661 -0.1385 -0.0316
  638PYPI   C2A10142   2.732  15.371   9.157  0.2526  0.2661  0.1363
  638PYPI   D3A10143   2.692  15.288   8.787 -0.0440  0.2556 -0.0701
  638PYPI   C4A10144   2.717  15.319   8.424  0.3267  0.3444 -0.2875
  638PYPI   C1B10145   2.714  14.744   9.374  0.0937  0.0468  0.3920
  638PYPI   C2B10146   2.783  14.689   8.901 -0.0754 -0.3277  0.0105
  638PYPI   C3B10147   2.858  14.812   8.468 -0.4221  0.2277 -0.1954
  638PYPI   C4B10148   2.939  14.747   8.068  0.0630 -0.0759  0.1875
  639PYPI    C110149   0.071  12.768   9.862  0.2246  0.1365  0.0861
  639PYPI    C210150   0.226  12.605   9.532 -0.0219 -0.1149  0.0915
  639PYPI    C310151   0.435  12.601   9.873  0.2347  0.1476 -0.0575
  639PYPI   PO410152  -0.011  13.052   9.724  0.3151  0.0394 -0.0101
  639PYPI   GL110153   0.039  13.083   9.354  0.1589 -0.1425  0.1428
  639PYPI   GL210154  -0.156  12.969   9.112  0.1512 -0.1800 -0.1568
  639PYPI   C1A10155   0.279  12.864   9.014  0.0481  0.4474 -0.1506
  639PYPI   C2A10156   0.113  12.856   8.687  0.1634  0.0626 -0.1285
  639PYPI   D3A10157   0.057  12.837   8.270  0.1200  0.2171 -0.0621
  639PYPI   C4A10158   0.152  12.439   8.168  0.2373  0.0389 -0.0824
  639PYPI   C1B10159  -0.337  13.045   8.713  0.0085 -0.0722  0.1661
  639PYPI   C2B10160  -0.374  13.096   8.258  0.1809 -0.1280 -0.1881
  639PYPI   C3B10161  -0.470  12.965   7.804  0.1974  0.0603  0.1520
  639PYPI   C4B10162  -0.257  13.042   7.321 -0.1377 -0.1105 -0.0503
  640PYPI    C110163  15.667  11.610   9.955  0.1039 -0.0339 -0.2022
  640PYPI    C210164  16.063  11.590  10.007  0.0500  0.0399  0.2835
  640PYPI    C310165  15.818  11.527  10.317 -0.3164  0.1325  0.0181
  640PYPI   PO410166  15.662  11.756   9.784 -0.1426 -0.1867  0.1040
  640PYPI   GL110167  15.433  11.858   9.551  0.0279  0.2332 -0.0940
  640PYPI   GL210168  15.311  12.031   9.352 -0.1345  0.2914  0.0129
  640PYPI   C1A10169  15.098  11.663   9.174  0.0330  0.4393 -0.1338
  640PYPI   C2A10170  14.970  11.788   8.803 -0.0105  0.0637 -0.3892
  640PYPI   D3A10171  15.038  11.928   8.435  0.0045  0.1718  0.0341
  640PYPI   C4A10172  14.898  11.605   8.041 -0.1751 -0.3554 -0.1810
  640PYPI   C1B10173  15.512  11.876   8.987  0.0612 -0.0376 -0.2461
  640PYPI   C2B10174  15.524  11.724   8.548  0.3914 -0.1674  0.1202
  640PYPI   C3B10175  15.502  11.481   8.176  0.2888 -0.4628 -0.2210
  640PYPI   C4B10176  15.197  11.238   8.038 -0.2407  0.2334 -0.0402
  641ERGO   ROH10177  16.535   0.794   8.854  0.0926 -0.0026  0.1445
  641ERGO    R110178  16.589   0.770   8.577 -0.0680  0.2400  0.0906
  641ERGO    R210179  16.645   0.988   8.417  0.2307  0.3447  0.3357
  641ERGO    R310180  16.867   0.844   8.355 -0.0325  0.0382  0.0641
  641ERGO    R410181  16.801   0.989   8.109  0.1731  0.5722  0.3037
  641ERGO    R510182  16.831   0.774   8.129 -0.2073  0.4704 -0.0548
  641ERGO    C110183  17.101   0.854   7.871 -0.1077  0.4170  0.0301
  641ERGO    C210184  17.349   0.680   7.505  0.1564 -0.0485  0.1128
  642ERGO   ROH10185  14.174  11.288   6.363 -0.0748  0.2618  0.0184
  642ERGO    R110186  14.280  11.401   6.600 -0.0996  0.1848  0.0666
  642ERGO    R210187  14.187  11.335   6.852  0.0305 -0.0731  0.0496
  642ERGO    R310188  14.449  11.279   6.899  0.0937  0.1142 -0.0694
  642ERGO    R410189  14.333  11.318   7.165  0.1616 -0.0677 -0.0105
  642ERGO    R510190  14.508  11.419   7.083  0.0536  0.0977 -0.0433
  642ERGO    C110191  14.664  11.256   7.391  0.2972  0.1114 -0.1573
  642ERGO    C210192  14.843  11.221   7.679  0.0582  0.0769 -0.0544
  643ERGO   ROH10193   7.753  10.094   6.335  0.1712 -0.0754  0.0185
  643ERGO    R110194   7.659   9.971   6.572  0.0636 -0.0531 -0.0126
  643ERGO    R210195   7.564   9.712   6.577  0.0812 -0.0604 -0.0283
  643ERGO    R310196   7.749   9.682   6.773 -0.0122 -0.0208  0.0675
  643ERGO    R410197   7.594   9.434   6.780 -0.0850  0.0309  0.1252
  643ERGO    R510198   7.633   9.566   6.948 -0.1190  0.1001  0.0759
  643ERGO    C110199   7.786   9.244   7.083 -0.2695  0.1212  0.3046
  643ERGO    C210200   7.938   9.114   7.459  0.0390  0.0354  0.1330
  644ERGO   ROH10201   1.224  16.792   5.979 -0.1655  0.1828  0.0554
  644ERGO    R110202   1.430  16.878   6.153 -0.1142  0.0880  0.0426
  644ERGO    R210203   1.656  17.008   6.064 -0.0845  0.0299  0.0342
  644ERGO    R310204   1.582  17.196   6.246  0.0003  0.0243  0.0754
  644ERGO    R410205   1.846  17.283   6.154 -0.0951  0.0955 -0.1385
  644ERGO    R510206   1.784  17.251   6.360  0.0742  0.0954 -0.0863
  644ERGO    C110207   1.886  17.618   6.377 -0.0216  0.1281 -0.2003
  644ERGO    C210208   1.813  17.764   6.477 -0.1062  0.1339 -0.0725
  645ERGO   ROH10209  10.894   6.330   6.697  0.3527  0.0494  0.0676
  645ERGO    R110210  10.971   6.282   6.965  0.1252  0.1955  0.1639
  645ERGO    R210211  10.807   6.336   7.180 -0.1556  0.0908 -0.0164
  645ERGO    R310212  10.854   6.076   7.241  0.0393  0.1508  0.0940
  645ERGO    R410213  10.825   6.209   7.501 -0.2495  0.2045  0.0342
  645ERGO    R510214  10.992   6.085   7.437 -0.0957  0.3342  0.1820
  645ERGO    C110215  10.880   5.890   7.745 -0.1213  0.3272  0.1673
  645ERGO    C210216  10.630   5.728   8.009  0.0330 -0.0014  0.0751
  646ERGO   ROH10217  17.034   9.195   5.674  0.0657 -0.0091  0.0915
  646ERGO    R110218  17.053   9.113   5.944  0.0623 -0.0052  0.0920
  646ERGO    R210219  17.234   9.225   6.120 -0.0311  0.0872  0.1230
  646ERGO    R310220  17.012   9.268   6.270 -0.0793 -0.0375  0.0917
  646ERGO    R410221  17.190   9.114   6.445 -0.0222  0.0259  0.1043
  646ERGO    R510222  16.983   9.066   6.395  0.0035 -0.0716  0.0638
  646ERGO    C110223  16.956   9.091   6.775 -0.0621 -0.1268  0.0641
  646ERGO    C210224  17.074   9.307   7.076 -0.3213  0.0398  0.3541
  647ERGO   ROH10225   6.948  15.267   9.663 -0.0885  0.3591  0.1089
  647ERGO    R110226   6.922  15.147   9.408 -0.0942  0.1939  0.1849
  647ERGO    R210227   6.755  15.247   9.212 -0.1685  0.0193  0.1490
  647ERGO    R310228   6.981  15.245   9.062 -0.1912  0.0083  0.1164
  647ERGO    R410229   6.767  15.317   8.874 -0.1668  0.2468  0.1951
  647ERGO    R510230   6.911  15.154   8.851 -0.2573  0.1933  0.0631
  647ERGO    C110231   6.987  15.355   8.536 -0.1871  0.3689  0.1911
  647ERGO    C210232   6.752  15.583   8.167 -0.1961 -0.0540  0.2804
  648ERGO   ROH10233   2.895  11.398   9.604  0.1327 -0.0789 -0.1162
  648ERGO    R110234   3.030  11.377   9.356  0.0577 -0.0484 -0.1598
  648ERGO    R210235   3.018  11.150   9.198  0.0860 -0.0632 -0.1382
  648ERGO    R310236   2.937  11.327   9.008 -0.0396 -0.1066 -0.1263
  648ERGO    R410237   3.002  11.083   8.859  0.0118 -0.0960 -0.1285
  648ERGO    R510238   3.080  11.282   8.821 -0.0760 -0.0661 -0.1658
  648ERGO    C110239   2.917  11.209   8.484 -0.1494 -0.1558 -0.1117
  648ERGO    C210240   3.011  11.310   8.121 -0.1326 -0.1242 -0.0284
  649ERGO   ROH10241   5.621   9.214   9.553 -0.0306  0.4002  0.0717
  649ERGO    R110242   5.588   9.362   9.314  0.0091  0.1825 -0.0704
  649ERGO    R210243   5.801   9.437   9.155  0.0374  0.0734 -0.0807
  649ERGO    R310244   5.659   9.311   8.961  0.1094 -0.1210 -0.0109
  649ERGO    R410245   5.801   9.527   8.822 -0.2923  0.1233 -0.0713
  649ERGO    R510246   5.587   9.488   8.816 -0.2461 -0.2036  0.0517
  649ERGO    C110247   5.668   9.461   8.445 -0.4167 -0.0301 -0.0005
  649ERGO    C210248   5.729   9.471   8.118 -0.1290 -0.1804 -0.0632
  650ERGO   ROH10249   3.373  10.187   9.163  0.0560 -0.0888  0.0455
  650ERGO    R110250   3.526  10.255   8.935 -0.0561  0.1612  0.0424
  650ERGO    R210251   3.662  10.067   8.785  0.3114  0.3850  0.0844
  650ERGO    R310252   3.521  10.176   8.580  0.1121  0.0852  0.0559
  650ERGO    R410253   3.730  10.019   8.449  0.3446  0.3547  0.0951
  650ERGO    R510254   3.685  10.229   8.415  0.0124  0.2767  0.0148
  650ERGO    C110255   3.637  10.093   8.062  0.1768  0.0555  0.0745
  650ERGO    C210256   3.457   9.913   7.872  0.1017  0.3985  0.0551
  651ERGO   ROH10257  12.617   6.208   6.318  0.0808 -0.0712 -0.1613
  651ERGO    R110258  12.550   6.252   6.590  0.0322 -0.0818 -0.1714
  651ERGO    R210259  12.601   6.066   6.788  0.1375 -0.0253 -0.1470
  651ERGO    R310260  12.730   6.274   6.906 -0.0055  0.0714 -0.1590
  651ERGO    R410261  12.678   6.085   7.124  0.2398 -0.0226 -0.1704
  651ERGO    R510262  12.623   6.296   7.120  0.0470 -0.0652 -0.1150
  651ERGO    C110263  12.844   6.291   7.431  0.1649  0.0697 -0.1953
  651ERGO    C210264  12.771   6.289   7.699 -0.3923  0.2473 -0.2298
  652ERGO   ROH10265   9.873   2.362   6.208  0.1123 -0.0879 -0.0936
  652ERGO    R110266   9.758   2.465   6.445  0.2047 -0.1162 -0.0347
  652ERGO    R210267   9.496   2.415   6.517  0.1482  0.0921 -0.0694
  652ERGO    R310268   9.609   2.327   6.748  0.0662 -0.1573 -0.1227
  652ERGO    R410269   9.321   2.298   6.791  0.0430  0.1584 -0.1084
  652ERGO    R510270   9.461   2.404   6.920  0.1770 -0.0725 -0.0706
  652ERGO    C110271   9.326   2.147   7.167 -0.0950 -0.0369 -0.1811
  652ERGO    C210272   9.149   2.055   7.362  0.1343 -0.1110 -0.0149
  653ERGO   ROH10273   0.541   8.634   9.572  0.0489 -0.0885  0.1989
  653ERGO    R110274   0.481   8.598   9.298  0.2940 -0.1352  0.1504
  653ERGO    R210275   0.404   8.806   9.134 -0.0151 -0.2422  0.1690
  653ERGO    R310276   0.610   8.720   8.980  0.2585  0.2100  0.2603
  653ERGO    R410277   0.417   8.829   8.789 -0.0974 -0.5143  0.1443
  653ERGO    R510278   0.505   8.630   8.784  0.4964 -0.2883  0.3347
  653ERGO    C110279   0.618   8.761   8.444  0.1115 -0.2483  0.2158
  653ERGO    C210280   0.597   8.695   8.105  0.0718 -0.2546 -0.0292
  654ERGO   ROH10281   1.824  10.683   5.997 -0.2301  0.1246 -0.0681
  654ERGO    R110282   1.694  10.501   6.171 -0.0735  0.0649 -0.0115
  654ERGO    R210283   1.776  10.460   6.432 -0.1204  0.3213  0.0466
  654ERGO    R310284   1.516  10.520   6.488 -0.2200  0.0371 -0.0910
  654ERGO    R410285   1.602  10.347   6.709 -0.0593  0.3498  0.0968
  654ERGO    R510286   1.428  10.318   6.582  0.0141  0.0038  0.0666
  654ERGO    C110287   1.258  10.338   6.923 -0.1172  0.0995 -0.0032
  654ERGO    C210288   1.066  10.266   7.133 -0.1222  0.2502 -0.2952
  655ERGO   ROH10289   2.505   9.248   9.158 -0.2126 -0.3498  0.1700
  655ERGO    R110290   2.518   9.124   8.904 -0.0658 -0.2575  0.1301
  655ERGO    R210291   2.310   9.135   8.722 -0.0623 -0.3974  0.1078
  655ERGO    R310292   2.504   9.230   8.556 -0.1305 -0.1553  0.1656
  655ERGO    R410293   2.305   9.109   8.377 -0.0523 -0.1453  0.0873
  655ERGO    R510294   2.519   9.066   8.382 -0.0306 -0.0135  0.0442
  655ERGO    C110295   2.484   9.183   8.021 -0.1106  0.2289  0.1294
  655ERGO    C210296   2.278   9.200   7.750  0.0533 -0.1772 -0.0826
  656ERGO   ROH10297  16.517   3.797   5.289 -0.0063  0.4785  0.0070
  656ERGO    R110298  16.557   3.664   5.536  0.0040  0.2873 -0.0963
  656ERGO    R210299  16.681   3.784   5.751 -0.1570  0.1871  0.0518
  656ERGO    R310300  16.453   3.712   5.881 -0.1499 -0.0944 -0.0841
  656ERGO    R410301  16.635   3.802   6.093 -0.3472  0.0411  0.0364
  656ERGO    R510302  16.531   3.611   6.085 -0.1416 -0.0722 -0.0738
  656ERGO    C110303  16.395   3.745   6.415 -0.4514 -0.3082 -0.1002
  656ERGO    C210304  16.393   3.900   6.797  0.1447  0.1331 -0.0627
  657ERGO   ROH10305   7.810  12.940   9.669 -0.1529 -0.0971 -0.0731
  657ERGO    R110306   7.748  13.047   9.414 -0.2481 -0.0666 -0.0367
  657ERGO    R210307   7.943  13.119   9.231 -0.3094  0.2154  0.0083
  657ERGO    R310308   7.802  12.953   9.067 -0.1155  0.1257 -0.0710
  657ERGO    R410309   7.909  13.160   8.889 -0.3242  0.3292  0.0227
  657ERGO    R510310   7.701  13.099   8.907 -0.2656  0.0887 -0.0161
  657ERGO    C110311   7.758  13.028   8.537 -0.1510  0.3112 -0.0432
  657ERGO    C210312   7.799  13.030   8.205  0.2825 -0.4798  0.0183
  658ERGO   ROH10313  14.957   5.461   9.124 -0.0097 -0.0346 -0.2436
  658ERGO    R110314  14.841   5.590   8.900 -0.0400  0.0098 -0.2040
  658ERGO    R210315  14.993   5.698   8.695 -0.0637  0.0593 -0.2047
  658ERGO    R310316  14.836   5.540   8.540 -0.0774  0.0814 -0.2115
  658ERGO    R410317  14.930   5.750   8.360 -0.2038  0.1625 -0.1623
  658ERGO    R510318  14.723   5.692   8.394 -0.1691  0.0987 -0.1134
  658ERGO    C110319  14.745   5.632   8.018 -0.2983  0.2433 -0.1439
  658ERGO    C210320  14.563   5.565   7.703 -0.2426  0.2942 -0.2359
  659ERGO   ROH10321  12.382  12.126   9.772 -0.2754 -0.0352 -0.0492
  659ERGO    R110322  12.378  12.038   9.503 -0.2369 -0.1668 -0.0074
  659ERGO    R210323  12.145  11.969   9.372 -0.2467 -0.0004 -0.0778
  659ERGO    R310324  12.231  12.152   9.190  0.0193 -0.1748 -0.1344
  659ERGO    R410325  12.100  11.944   9.030 -0.3868  0.0126 -0.0612
  659ERGO    R510326  12.302  12.021   9.003 -0.2555 -0.3364 -0.1326
  659ERGO    C110327  12.154  12.101   8.660 -0.2187 -0.1437 -0.1047
  659ERGO    C210328  12.174  12.009   8.305 -0.0288  0.2696 -0.2875
  660ERGO   ROH10329   8.950  11.041   9.853 -0.0143  0.2732  0.0177
  660ERGO    R110330   8.756  11.096   9.654 -0.0418 -0.1009 -0.0658
  660ERGO    R210331   8.779  11.309   9.479 -0.4566  0.0513  0.0610
  660ERGO    R310332   8.749  11.115   9.291  0.1257  0.0617 -0.0639
  660ERGO    R410333   8.688  11.364   9.151 -0.2720  0.0216  0.0031
  660ERGO    R510334   8.562  11.187   9.161  0.0812 -0.2634 -0.1980
  660ERGO    C110335   8.606  11.215   8.783  0.3822  0.0141 -0.1480
  660ERGO    C210336   8.480  11.336   8.462  0.0710 -0.3860  0.4803
  661ERGO   ROH10337  13.805  13.646   9.578  0.1101 -0.0437  0.1179
  661ERGO    R110338  13.766  13.813   9.353 -0.0971 -0.0625  0.1369
  661ERGO    R210339  13.941  13.818   9.139  0.0060  0.3117  0.2155
  661ERGO    R310340  13.716  13.768   8.996  0.1584 -0.0864  0.1034
  661ERGO    R410341  13.915  13.846   8.796  0.0844  0.3859  0.2159
  661ERGO    R510342  13.717  13.933   8.823 -0.1036 -0.0179  0.1683
  661ERGO    C110343  13.688  13.816   8.461  0.2732  0.0555  0.1109
  661ERGO    C210344  13.465  13.837   8.281  0.2502  0.0723 -0.1055
  662ERGO   ROH10345  14.564   8.405   9.023  0.0418 -0.0318 -0.0740
  662ERGO    R110346  14.726   8.341   8.799  0.0342  0.0582 -0.1049
  662ERGO    R210347  14.720   8.094   8.676  0.1800  0.0407 -0.0740
  662ERGO    R310348  14.672   8.243   8.453  0.0233 -0.0189 -0.0824
  662ERGO    R410349  14.714   7.971   8.353  0.3114  0.0104 -0.0657
  662ERGO    R510350  14.818   8.151   8.287  0.1253  0.1215 -0.0758
  662ERGO    C110351  14.666   8.040   7.956  0.2408 -0.0631 -0.0688
  662ERGO    C210352  14.560   7.629   7.806  0.0068 -0.0164 -0.1231
  663ERGO   ROH10353   4.457   5.949   8.791 -0.1060 -0.0703  0.0909
  663ERGO    R110354   4.526   6.003   8.521 -0.1231 -0.1697  0.0655
  663ERGO    R210355   4.407   5.874   8.308 -0.3167 -0.0739  0.1087
  663ERGO    R310356   4.356   6.128   8.225 -0.0810 -0.0269  0.1022
  663ERGO    R410357   4.310   5.962   7.988 -0.1632  0.0300  0.0896
  663ERGO    R510358   4.441   6.135   8.001 -0.0214 -0.0849  0.1268
  663ERGO    C110359   4.206   6.251   7.724  0.1476  0.1345  0.0721
  663ERGO    C210360   4.110   6.205   7.467 -0.0892  0.0182 -0.1963
  664ERGO   ROH10361  11.512   4.320   6.184 -0.1668  0.1047  0.0749
  664ERGO    R110362  11.508   4.302   6.466 -0.0258  0.0251  0.0710
  664ERGO    R210363  11.282   4.227   6.607  0.0365  0.0389  0.1588
  664ERGO    R310364  11.449   4.042   6.714  0.0449 -0.0305  0.0337
  664ERGO    R410365  11.193   3.997   6.849  0.0939  0.0435  0.1874
  664ERGO    R510366  11.386   4.030   6.945  0.1739 -0.0291  0.0782
  664ERGO    C110367  11.299   3.689   7.090  0.1352 -0.0189  0.0867
  664ERGO    C210368  11.421   3.586   7.348  0.0893  0.0735  0.0664
  665ERGO   ROH10369  18.819  13.601   5.622 -0.0288  0.1017  0.1841
  665ERGO    R110370  18.885  13.573   5.896 -0.0103  0.0701  0.1756
  665ERGO    R210371  18.821  13.346   6.042  0.0246  0.0439  0.1446
  665ERGO    R310372  19.087  13.347   6.097  0.0279  0.0656  0.1336
  665ERGO    R410373  18.977  13.134   6.266  0.0618 -0.0010  0.0780
  665ERGO    R510374  19.099  13.302   6.332  0.0421 -0.0009  0.1222
  665ERGO    C110375  19.317  13.011   6.448  0.0865 -0.0068  0.0288
  665ERGO    C210376  19.482  13.014   6.830 -0.0500  0.0464  0.2785
  666ERGO   ROH10377  11.602   5.757   9.808 -0.2613 -0.0793 -0.1741
  666ERGO    R110378  11.471   5.805   9.562 -0.1836  0.0099 -0.1985
  666ERGO    R210379  11.566   5.987   9.376 -0.1244  0.0761 -0.1030
  666ERGO    R310380  11.552   5.773   9.209 -0.0736  0.1375 -0.1867
  666ERGO    R410381  11.502   6.004   9.036 -0.1993  0.1939 -0.0833
  666ERGO    R510382  11.376   5.828   9.056 -0.1277  0.1342 -0.1287
  666ERGO    C110383  11.452   5.814   8.682 -0.1952  0.3201 -0.1502
  666ERGO    C210384  11.550   5.914   8.432  0.1310 -0.0327  0.1267
  667ERGO   ROH10385  13.407   8.318   9.724 -0.2541 -0.0127  0.0750
  667ERGO    R110386  13.409   8.382   9.448 -0.2489  0.0166  0.0827
  667ERGO    R210387  13.585   8.264   9.270 -0.1770  0.1155  0.0956
  667ERGO    R310388  13.356   8.204   9.135 -0.1307  0.0271  0.0541
  667ERGO    R410389  13.571   8.168   8.938 -0.0579  0.0123  0.1192
  667ERGO    R510390  13.393   8.292   8.915 -0.0835 -0.0273  0.0345
  667ERGO    C110391  13.349   8.056   8.618  0.0547 -0.1307  0.0941
  667ERGO    C210392  13.412   8.016   8.284 -0.2137  0.0342  0.0848
  668ERGO   ROH10393   3.962   3.352   5.895 -0.1695 -0.0045 -0.0815
  668ERGO    R110394   3.854   3.446   6.139 -0.0675  0.0266 -0.0462
  668ERGO    R210395   3.763   3.276   6.337 -0.0777  0.0500 -0.0241
  668ERGO    R310396   3.935   3.418   6.492  0.0219 -0.0202 -0.0713
  668ERGO    R410397   3.748   3.294   6.682 -0.0887  0.2090 -0.0334
  668ERGO    R510398   3.798   3.506   6.668  0.0799  0.1627 -0.1189
  668ERGO    C110399   3.901   3.438   7.028 -0.0017  0.2356 -0.0831
  668ERGO    C210400   3.685   3.373   7.387  0.1467 -0.1981 -0.0601
  669ERGO   ROH10401   1.117  12.818   9.014  0.0276  0.3334 -0.0400
  669ERGO    R110402   1.171  12.917   8.754  0.0333  0.0990 -0.1298
  669ERGO    R210403   1.249  12.752   8.546 -0.1567 -0.1193 -0.0338
  669ERGO    R310404   1.038  12.867   8.419 -0.1028 -0.0431 -0.0555
  669ERGO    R410405   1.189  12.732   8.207 -0.1760 -0.1673 -0.0276
  669ERGO    R510406   1.128  12.941   8.210 -0.0713 -0.1364 -0.0750
  669ERGO    C110407   0.955  12.828   7.890 -0.1367 -0.1237 -0.0443
  669ERGO    C210408   0.986  12.624   7.661  0.1977  0.0325 -0.0511
  670ERGO   ROH10409  18.295   3.104   5.780  0.1035  0.2307  0.0395
  670ERGO    R110410  18.021   3.147   5.840  0.0917  0.2052  0.0021
  670ERGO    R210411  17.848   2.940   5.901  0.1001  0.1889 -0.0407
  670ERGO    R310412  17.800   3.089   6.123  0.0518  0.1670 -0.0354
  670ERGO    R410413  17.623   2.858   6.150  0.0949  0.1244 -0.0660
  670ERGO    R510414  17.565   3.068   6.161  0.0505  0.1150 -0.0584
  670ERGO    C110415  17.447   2.950   6.504  0.0466  0.0661 -0.0759
  670ERGO    C210416  17.442   3.007   6.800 -0.3784 -0.1582  0.0323
  671ERGO   ROH10417  16.959   6.419   9.428 -0.0442 -0.1349  0.0523
  671ERGO    R110418  16.814   6.483   9.194 -0.0679 -0.0965  0.0772
  671ERGO    R210419  16.937   6.523   8.949 -0.0952 -0.0846  0.0656
  671ERGO    R310420  16.762   6.332   8.867 -0.1253 -0.0582  0.0687
  671ERGO    R410421  16.740   6.544   8.666 -0.0534 -0.0802  0.0369
  671ERGO    R510422  16.576   6.455   8.779 -0.0875 -0.0299  0.0276
  671ERGO    C110423  16.460   6.377   8.424 -0.0575 -0.0528  0.0228
  671ERGO    C210424  16.527   6.367   8.131 -0.0980 -0.2980  0.1063
  672ERGO   ROH10425  13.191   3.761  10.053  0.2102 -0.0359 -0.0084
  672ERGO    R110426  13.185   3.589   9.828  0.3280  0.1332 -0.1416
  672ERGO    R210427  12.950   3.520   9.698  0.3513 -0.1010 -0.0514
  672ERGO    R310428  13.082   3.613   9.480  0.0894  0.2618 -0.0658
  672ERGO    R410429  12.866   3.447   9.371  0.3345 -0.0912 -0.0504
  672ERGO    R510430  13.079   3.430   9.326  0.3594  0.3236 -0.1572
  672ERGO    C110431  12.941   3.491   8.976  0.0789  0.2550 -0.0636
  672ERGO    C210432  12.859   3.517   8.638  0.2234 -0.2415  0.1405
  673ERGO   ROH10433   8.571   0.482   6.380 -0.2212 -0.2372  0.1538
  673ERGO    R110434   8.582   0.606   6.634 -0.0108 -0.1262  0.0942
  673ERGO    R210435   8.426   0.826   6.699  0.0932 -0.0505  0.1068
  673ERGO    R310436   8.350   0.669   6.907  0.1925  0.0590  0.2265
  673ERGO    R410437   8.181   0.907   6.929  0.0338 -0.0418  0.0398
  673ERGO    R510438   8.307   0.822   7.086  0.0841  0.1639  0.1075
  673ERGO    C110439   7.967   0.806   7.259  0.0923  0.0661  0.1131
  673ERGO    C210440   7.758   0.863   7.529 -0.2012  0.1575  0.2952
  674PSPI    C110441   1.414  13.697   5.489 -0.0948  0.0180  0.0779
  674PSPI    C210442   1.436  13.310   5.586  0.1548  0.0524  0.1646
  674PSPI    C310443   1.139  13.441   5.353  0.0750 -0.1925  0.1261
  674PSPI   PO410444   1.514  13.811   5.691 -0.1446 -0.0508  0.2570
  674PSPI   GL110445   1.543  13.659   6.102 -0.4134  0.1737  0.0981
  674PSPI   GL210446   1.839  13.589   5.985 -0.0187 -0.2034 -0.0778
  674PSPI   C1A10447   1.203  13.391   6.222 -0.0085  0.2298  0.3593
  674PSPI   C2A10448   0.768  13.365   6.460 -0.0859  0.0881 -0.0035
  674PSPI   C3A10449   0.483  13.513   6.826 -0.1558  0.0391 -0.1787
  674PSPI   C4A10450   0.157  13.395   7.267  0.0903  0.0381 -0.3718
  674PSPI   C1B10451   1.591  13.161   6.216 -0.1340 -0.1891  0.2073
  674PSPI   C2B10452   1.321  13.150   6.631 -0.1817 -0.0966 -0.1381
  674PSPI   C3B10453   1.458  13.324   7.035 -0.0795  0.1426 -0.0640
  674PSPI   C4B10454   1.715  13.498   7.440  0.2128 -0.0115 -0.4291
  675PSPI    C110455   9.809  17.648   5.432  0.2562 -0.0284  0.0194
  675PSPI    C210456   9.898  17.283   5.295 -0.0381 -0.0598 -0.0967
  675PSPI    C310457   9.536  17.438   5.228 -0.0020  0.1497  0.1766
  675PSPI   PO410458   9.829  17.652   5.706 -0.2779 -0.1529  0.2713
  675PSPI   GL110459   9.505  17.727   6.198  0.0888  0.0272 -0.1790
  675PSPI   GL210460   9.827  17.812   6.175  0.2802 -0.0725  0.0226
  675PSPI   C1A10461   9.585  17.848   6.631  0.1547 -0.0580  0.1465
  675PSPI   C2A10462   9.854  17.630   6.989  0.0482  0.1495  0.0579
  675PSPI   C3A10463   9.657  17.689   7.343  0.0519 -0.0109  0.1998
  675PSPI   C4A10464   9.290  17.433   7.517 -0.1002  0.0517  0.0393
  675PSPI   C1B10465  10.063  17.904   6.592  0.1699  0.1754  0.2779
  675PSPI   C2B10466  10.090  18.087   7.005 -0.0535 -0.1540 -0.1344
  675PSPI   C3B10467  10.277  18.342   7.411 -0.2721 -0.0384 -0.0453
  675PSPI   C4B10468  10.368  18.361   7.868  0.0859 -0.0815  0.1412
  676PSPI    C110469   8.771   7.109   5.868  0.2744 -0.1191  0.1109
  676PSPI    C210470   8.987   7.445   5.856  0.1868 -0.0618  0.1337
  676PSPI    C310471   8.863   7.275   5.516  0.0194  0.0668  0.1286
  676PSPI   PO410472   8.916   6.923   6.014 -0.2344  0.2865 -0.3303
  676PSPI   GL110473   8.920   6.729   6.334  0.4967  0.0561 -0.0566
  676PSPI   GL210474   9.096   6.942   6.553 -0.0209  0.2870  0.1789
  676PSPI   C1A10475   8.605   6.591   6.620  0.3294 -0.0123  0.2872
  676PSPI   C2A10476   8.553   6.270   6.881  0.1080 -0.0031  0.2612
  676PSPI   C3A10477   8.407   5.819   6.868  0.3706  0.1102 -0.0807
  676PSPI   C4A10478   8.352   5.588   7.270 -0.2240  0.0665  0.1131
  676PSPI   C1B10479   9.101   7.107   6.869  0.1727 -0.1437  0.1667
  676PSPI   C2B10480   9.080   7.021   7.309  0.0278  0.2643  0.0700
  676PSPI   C3B10481   9.053   6.973   7.784  0.2183  0.1218  0.0248
  676PSPI   C4B10482   8.687   6.830   8.001  0.1530  0.1646  0.4581
  677PSPI    C110483  14.685   1.785   5.052 -0.0313 -0.0819 -0.1783
  677PSPI    C210484  14.955   1.663   4.784  0.1639 -0.1717  0.0547
  677PSPI    C310485  14.668   1.413   4.906 -0.1784 -0.0011 -0.3713
  677PSPI   PO410486  14.795   1.914   5.257  0.0500 -0.1122 -0.0541
  677PSPI   GL110487  14.705   2.081   5.669 -0.2289  0.2502  0.2912
  677PSPI   GL210488  15.028   1.911   5.698 -0.1570  0.0664  0.1697
  677PSPI   C1A10489  14.543   2.059   6.074 -0.0375  0.1955 -0.1812
  677PSPI   C2A10490  14.622   2.253   6.419  0.4959 -0.2088  0.2137
  677PSPI   C3A10491  14.528   2.654   6.769  0.1721  0.0961  0.1561
  677PSPI   C4A10492  14.375   2.670   7.080  0.1148 -0.3830 -0.0946
  677PSPI   C1B10493  15.053   2.233   6.038  0.0838 -0.0312  0.0839
  677PSPI   C2B10494  15.067   2.416   6.540 -0.1213 -0.1656  0.1268
  677PSPI   C3B10495  15.130   2.816   6.894 -0.0444  0.0812  0.1427
  677PSPI   C4B10496  15.145   3.022   7.385 -0.0714 -0.3118 -0.0045
  678PSPI    C110497   6.099   7.853   5.261 -0.0638  0.0472 -0.1327
  678PSPI    C210498   6.112   8.177   5.027  0.1564  0.0879 -0.0657
  678PSPI    C310499   6.150   7.813   4.866  0.1917  0.1101 -0.1078
  678PSPI   PO410500   5.851   7.841   5.411  0.0773 -0.1126 -0.0831
  678PSPI   GL110501   5.737   7.658   5.845  0.0766  0.1027  0.2095
  678PSPI   GL210502   6.029   7.585   6.085  0.2568 -0.2227 -0.1657
  678PSPI   C1A10503   5.467   7.737   6.161 -0.3696  0.0490 -0.0349
  678PSPI   C2A10504   5.303   7.487   6.542  0.3155 -0.0871  0.0021
  678PSPI   C3A10505   5.391   7.385   6.914  0.1694  0.2939  0.1549
  678PSPI   C4A10506   5.232   7.385   7.196  0.0511  0.0641 -0.1074
  678PSPI   C1B10507   5.868   7.417   6.580  0.2967  0.3295 -0.0126
  678PSPI   C2B10508   5.689   7.724   6.703  0.1939  0.1544  0.1695
  678PSPI   C3B10509   5.355   7.852   6.957  0.2582 -0.3094  0.0573
  678PSPI   C4B10510   4.965   8.030   6.944  0.0021  0.0995  0.1994
  679PSPI    C110511  18.402   1.841   4.981 -0.1408 -0.1658 -0.2640
  679PSPI    C210512  18.079   2.074   4.944  0.0164  0.1209  0.1119
  679PSPI    C310513  18.362   2.078   4.661 -0.1499  0.1185 -0.0558
  679PSPI   PO410514  18.396   1.865   5.237  0.0102 -0.2764  0.0023
  679PSPI   GL110515  18.251   1.954   5.703 -0.0697 -0.4674  0.2229
  679PSPI   GL210516  18.102   1.700   5.760  0.2884  0.0725  0.1345
  679PSPI   C1A10517  18.048   2.137   6.101  0.0864  0.0445  0.1529
  679PSPI   C2A10518  17.999   2.221   6.587  0.0049  0.0121 -0.0360
  679PSPI   C3A10519  18.103   2.475   7.033  0.2356  0.2802  0.1414
  679PSPI   C4A10520  18.306   2.736   7.283 -0.1560 -0.0134  0.1570
  679PSPI   C1B10521  17.869   1.689   6.189 -0.3613 -0.2663  0.3981
  679PSPI   C2B10522  17.512   1.896   6.179 -0.0572 -0.1141 -0.1197
  679PSPI   C3B10523  17.124   1.889   6.527 -0.4087 -0.2170 -0.1013
  679PSPI   C4B10524  16.836   1.708   6.734  0.0760  0.2127 -0.2317
  680PSPI    C110525  10.657   3.542   6.003  0.1706  0.2000  0.0505
  680PSPI    C210526  10.940   3.540   5.720 -0.1771 -0.1070 -0.3072
  680PSPI    C310527  10.830   3.197   5.896 -0.1107  0.0538  0.0567
  680PSPI   PO410528  10.693   3.771   6.141 -0.0092  0.0853 -0.5370
  680PSPI   GL110529  10.611   3.836   6.568  0.3921  0.3130  0.1667
  680PSPI   GL210530  10.924   3.648   6.607 -0.0111 -0.1645 -0.0330
  680PSPI   C1A10531  10.244   3.823   6.784  0.1108  0.1895 -0.1193
  680PSPI   C2A10532   9.945   3.388   6.733 -0.1632  0.0930  0.0282
  680PSPI   C3A10533   9.671   3.254   7.085 -0.1883 -0.2530  0.2181
  680PSPI   C4A10534   9.580   2.973   7.338 -0.4835 -0.2116 -0.3100
  680PSPI   C1B10535  11.322   3.497   6.622  0.3654 -0.0230  0.0972
  680PSPI   C2B10536  11.677   3.591   6.862  0.0587 -0.1388 -0.0588
  680PSPI   C3B10537  12.004   3.355   7.017  0.1283  0.1508 -0.1434
  680PSPI   C4B10538  12.190   3.288   7.398 -0.1650 -0.1499 -0.1166
  681PSPI    C110539  13.018   2.037   5.160  0.1672  0.1009  0.1064
  681PSPI    C210540  12.909   2.422   5.160  0.0328  0.0642 -0.1313
  681PSPI    C310541  12.642   2.138   5.252  0.0705  0.0124 -0.1810
  681PSPI   PO410542  13.290   1.850   5.341 -0.3628 -0.3073  0.0587
  681PSPI   GL110543  13.377   1.905   5.863 -0.0569  0.1321 -0.0537
  681PSPI   GL210544  13.605   2.149   5.693 -0.1695 -0.1261 -0.0474
  681PSPI   C1A10545  13.740   1.544   5.826  0.1464  0.0567 -0.0171
  681PSPI   C2A10546  13.845   1.280   6.036  0.1771  0.1053 -0.1222
  681PSPI   C3A10547  13.935   1.103   6.499 -0.0960  0.1505 -0.0805
  681PSPI   C4A10548  13.752   1.037   6.831  0.1617  0.1643  0.3066
  681PSPI   C1B10549  13.537   2.533   5.867 -0.3449  0.0042 -0.1438
  681PSPI   C2B10550  13.669   2.823   6.124  0.0356 -0.0131  0.1487
  681PSPI   C3B10551  13.609   2.899   6.631  0.2837  0.0536 -0.2033
  681PSPI   C4B10552  13.411   2.807   6.990 -0.1801  0.0097  0.2764
  682PSPI    C110553  17.235  16.331   4.669  0.0492  0.1144 -0.1851
  682PSPI    C210554  17.175  16.727   4.666 -0.1941  0.0861  0.2020
  682PSPI    C310555  17.123  16.514   4.331 -0.1858  0.3620  0.0222
  682PSPI   PO410556  17.046  16.172   4.903 -0.1195  0.0558 -0.2013
  682PSPI   GL110557  17.308  15.982   5.292 -0.1463  0.0365  0.0397
  682PSPI   GL210558  17.017  15.993   5.404  0.0011  0.1576  0.1720
  682PSPI   C1A10559  17.357  16.368   5.653  0.1288  0.1337 -0.3043
  682PSPI   C2A10560  17.530  16.875   5.910  0.2149  0.4692 -0.1182
  682PSPI   C3A10561  17.460  17.179   6.146  0.2959  0.0869 -0.0023
  682PSPI   C4A10562  17.507  17.635   6.411  0.0481  0.0960 -0.1262
  682PSPI   C1B10563  16.874  16.087   5.778 -0.3462 -0.1959 -0.0266
  682PSPI   C2B10564  16.697  16.315   6.140 -0.0707 -0.0708 -0.1401
  682PSPI   C3B10565  16.879  16.324   6.531 -0.2487  0.2244  0.1533
  682PSPI   C4B10566  17.054  16.602   6.809  0.0354 -0.1988  0.0579
  683PSPI    C110567   3.966  12.925   5.246 -0.1267 -0.1682  0.0214
  683PSPI    C210568   3.670  12.675   5.343  0.0556 -0.3626  0.0840
  683PSPI    C310569   3.884  12.612   5.011 -0.0800 -0.1263 -0.0514
  683PSPI   PO410570   4.056  12.971   5.531  0.3842 -0.0203 -0.0333
  683PSPI   GL110571   3.817  12.921   5.938  0.0945 -0.0401 -0.0133
  683PSPI   GL210572   3.428  12.974   5.776 -0.1034 -0.1442  0.0088
  683PSPI   C1A10573   4.076  13.013   6.291 -0.0602 -0.1541  0.1812
  683PSPI   C2A10574   4.374  12.977   6.729 -0.0054  0.0553 -0.1290
  683PSPI   C3A10575   4.759  12.819   6.965  0.0338 -0.1636 -0.1227
  683PSPI   C4A10576   4.886  12.359   7.243  0.0319 -0.2447  0.1493
  683PSPI   C1B10577   3.167  12.926   6.094  0.3710  0.0855 -0.0224
  683PSPI   C2B10578   2.952  12.764   6.471  0.0971 -0.0900 -0.0684
  683PSPI   C3B10579   2.624  12.678   6.804  0.4108  0.0082  0.1961
  683PSPI   C4B10580   2.235  12.921   6.961 -0.1357  0.1381  0.1744
  684PSPI    C110581  15.077  12.574   5.254  0.1313 -0.0743 -0.1292
  684PSPI    C210582  14.700  12.693   5.311  0.1991 -0.0709  0.3545
  684PSPI    C310583  14.779  12.397   5.054 -0.0930  0.1418  0.0088
  684PSPI   PO410584  15.258  12.723   5.464 -0.0600  0.1407  0.3669
  684PSPI   GL110585  15.297  12.966   5.889  0.0641  0.0175 -0.1282
  684PSPI   GL210586  15.405  12.565   5.909  0.1786 -0.3657 -0.2262
  684PSPI   C1A10587  15.565  13.115   6.284  0.0717  0.0848 -0.0386
  684PSPI   C2A10588  15.697  13.242   6.653 -0.1658  0.1486  0.2871
  684PSPI   C3A10589  15.906  13.639   6.660  0.0311 -0.0489  0.1395
  684PSPI   C4A10590  16.376  13.676   6.744  0.0439  0.2609  0.1581
  684PSPI   C1B10591  15.327  12.666   6.291 -0.0303 -0.0789  0.1289
  684PSPI   C2B10592  15.496  12.774   6.713  0.0075 -0.0193 -0.2139
  684PSPI   C3B10593  15.741  12.990   7.067  0.0520 -0.1503 -0.1436
  684PSPI   C4B10594  15.643  12.912   7.426  0.1303  0.1076 -0.0896
  685PSPI    C110595   2.077  13.126   5.299 -0.0316 -0.0647 -0.0267
  685PSPI    C210596   2.250  12.879   5.037 -0.1485 -0.0321 -0.1356
  685PSPI    C310597   1.975  13.141   4.912  0.0177  0.1949 -0.0315
  685PSPI   PO410598   2.338  13.121   5.565  0.1895 -0.1009  0.0783
  685PSPI   GL110599   2.376  12.967   5.877  0.2410 -0.2226  0.0526
  685PSPI   GL210600   2.320  12.675   5.975 -0.0434 -0.0534 -0.1529
  685PSPI   C1A10601   2.674  13.040   6.206  0.1057  0.0760  0.2028
  685PSPI   C2A10602   2.976  13.270   6.417 -0.2538 -0.0890 -0.2780
  685PSPI   C3A10603   3.294  13.641   6.592  0.0589 -0.0172  0.3819
  685PSPI   C4A10604   3.580  13.704   6.648  0.0483  0.0303 -0.0513
  685PSPI   C1B10605   2.318  12.740   6.427 -0.0645 -0.2020 -0.0594
  685PSPI   C2B10606   2.189  12.363   6.752 -0.1691  0.0712  0.1083
  685PSPI   C3B10607   2.209  12.000   7.041 -0.0790 -0.2901  0.1007
  685PSPI   C4B10608   2.573  11.761   7.114  0.0327  0.3970  0.0429
  686PSPI    C110609   8.452  10.203   5.484 -0.0056  0.0496  0.0799
  686PSPI    C210610   8.063  10.257   5.561 -0.1482  0.0637 -0.5828
  686PSPI    C310611   8.195   9.899   5.442  0.0609  0.0399 -0.2923
  686PSPI   PO410612   8.574  10.281   5.745  0.2317  0.4531  0.0099
  686PSPI   GL110613   8.622  10.298   6.163 -0.3021 -0.2478  0.2774
  686PSPI   GL210614   8.684  10.070   6.459  0.2778  0.1064 -0.0111
  686PSPI   C1A10615   8.413  10.588   6.477  0.2286 -0.0177 -0.2417
  686PSPI   C2A10616   8.421  10.610   6.876 -0.1191  0.1064  0.1115
  686PSPI   C3A10617   8.578  10.529   7.332  0.1687  0.1465 -0.0099
  686PSPI   C4A10618   9.066  10.421   7.632  0.1408 -0.3248  0.0431
  686PSPI   C1B10619   8.728  10.127   6.899 -0.0531  0.2464  0.4166
  686PSPI   C2B10620   8.957  10.142   7.210  0.0627  0.1309  0.0910
  686PSPI   C3B10621   8.965   9.827   7.624 -0.0766  0.0392  0.1876
  686PSPI   C4B10622   9.172   9.671   7.989 -0.1075 -0.1487 -0.1074
  687PSPI    C110623  18.405  17.635   5.303  0.2445  0.0713  0.0820
  687PSPI    C210624  18.073  17.564   5.092  0.1676 -0.1510  0.2732
  687PSPI    C310625  18.383  17.748   4.920 -0.0842  0.1367  0.1171
  687PSPI   PO410626  18.410  17.431   5.441 -0.1669  0.3203 -0.3024
  687PSPI   GL110627  18.380  17.390   5.868  0.1889  0.0637 -0.0474
  687PSPI   GL210628  18.621  17.269   5.887 -0.0046  0.0047  0.4396
  687PSPI   C1A10629  18.492  17.687   6.144 -0.1686 -0.1718  0.1736
  687PSPI   C2A10630  18.854  17.869   6.444  0.0284  0.1012  0.0120
  687PSPI   C3A10631  19.121  18.099   6.696 -0.0277  0.3019  0.0420
  687PSPI   C4A10632  19.380  18.300   7.064  0.4267  0.2715 -0.0322
  687PSPI   C1B10633  18.567  17.222   6.378  0.1558 -0.1684 -0.0760
  687PSPI   C2B10634  18.388  17.167   6.788 -0.3802  0.0018 -0.1556
  687PSPI   C3B10635  18.000  17.178   6.844  0.0983 -0.2685  0.1960
  687PSPI   C4B10636  17.648  17.226   6.580  0.2525 -0.2278 -0.1039
  688PSPI    C110637  17.645  14.576   4.876  0.0222  0.1763  0.1688
  688PSPI    C210638  17.979  14.392   4.754 -0.1731 -0.0853  0.0184
  688PSPI    C310639  17.931  14.784   4.688  0.1333 -0.0300  0.1067
  688PSPI   PO410640  17.575  14.444   5.104  0.1340  0.3552 -0.0933
  688PSPI   GL110641  17.534  14.645   5.499 -0.3492 -0.1587 -0.0767
  688PSPI   GL210642  17.486  14.349   5.682 -0.0685 -0.4020  0.0490
  688PSPI   C1A10643  17.290  14.823   5.837 -0.1018  0.0185 -0.0134
  688PSPI   C2A10644  17.110  15.198   6.094 -0.2891  0.2783 -0.2284
  688PSPI   C3A10645  17.300  15.470   6.361  0.1971 -0.1153 -0.2893
  688PSPI   C4A10646  17.367  15.513   6.728  0.1109 -0.2296 -0.0707
  688PSPI   C1B10647  17.184  14.388   6.018  0.0107  0.0277  0.2550
  688PSPI   C2B10648  16.957  14.343   6.422 -0.0759 -0.0768 -0.0154
  688PSPI   C3B10649  16.925  14.217   6.866 -0.0599  0.4043  0.3379
  688PSPI   C4B10650  16.852  13.784   7.034  0.1300 -0.1228 -0.0772
  689PSPI    C110651   5.578   0.634   5.479 -0.2675 -0.1732 -0.0737
  689PSPI    C210652   5.225   0.816   5.435 -0.2169 -0.0891 -0.1350
  689PSPI    C310653   5.557   0.986   5.290 -0.1220 -0.0673  0.1039
  689PSPI   PO410654   5.463   0.553   5.802 -0.2817  0.2727 -0.2266
  689PSPI   GL110655   5.348   0.235   6.186 -0.0760  0.0943 -0.0545
  689PSPI   GL210656   5.270  -0.053   6.458 -0.0234  0.1934  0.1501
  689PSPI   C1A10657   5.699   0.121   6.212  0.2178  0.0564 -0.2918
  689PSPI   C2A10658   5.953   0.434   6.435 -0.1135  0.1651  0.0596
  689PSPI   C3A10659   6.147   0.714   6.725 -0.0431  0.3956  0.0377
  689PSPI   C4A10660   6.104   0.858   7.121  0.1144  0.3645  0.3479
  689PSPI   C1B10661   5.132  -0.055   6.868 -0.2799 -0.2104 -0.0597
  689PSPI   C2B10662   5.312   0.173   7.217 -0.0286 -0.0088 -0.0801
  689PSPI   C3B10663   5.610   0.042   7.525 -0.0426  0.0865 -0.1659
  689PSPI   C4B10664   5.902   0.303   7.725 -0.3423  0.1095 -0.2399
  690PSPI    C110665   3.172  10.028   5.012 -0.0778  0.1971 -0.1234
  690PSPI    C210666   2.927   9.792   5.222  0.0342  0.0895 -0.1130
  690PSPI    C310667   2.982   9.726   4.831  0.1065  0.0648 -0.0989
  690PSPI   PO410668   3.419   9.928   5.219 -0.1467  0.2685  0.1569
  690PSPI   GL110669   3.337   9.676   5.614 -0.0372 -0.0795 -0.0438
  690PSPI   GL210670   3.202   9.353   5.523  0.1516  0.0324  0.1931
  690PSPI   C1A10671   3.288   9.906   5.972 -0.1975  0.5321 -0.1169
  690PSPI   C2A10672   3.099  10.076   6.324  0.2208 -0.2563 -0.2710
  690PSPI   C3A10673   3.094  10.051   6.802 -0.0996  0.0103 -0.1393
  690PSPI   C4A10674   2.981  10.267   7.169  0.0387  0.1391  0.1054
  690PSPI   C1B10675   3.288   9.347   5.943 -0.0593 -0.1268 -0.1595
  690PSPI   C2B10676   3.225   9.122   6.362 -0.0665 -0.1136 -0.2539
  690PSPI   C3B10677   3.227   8.993   6.791  0.1427 -0.1116 -0.2908
  690PSPI   C4B10678   3.067   9.039   7.228 -0.0989  0.1905 -0.0475
  691PSPI    C110679   7.118  17.866   5.667 -0.0850  0.1386  0.2151
  691PSPI    C210680   6.804  17.718   5.468  0.0538  0.0909  0.0296
  691PSPI    C310681   7.131  17.494   5.523  0.1229  0.2007  0.0692
  691PSPI   PO410682   6.837  17.986   5.883  0.0784 -0.3301 -0.3893
  691PSPI   GL110683   6.662  17.969   6.175  0.1536  0.1975 -0.3537
  691PSPI   GL210684   6.567  18.359   6.138 -0.1519 -0.0536 -0.0781
  691PSPI   C1A10685   6.367  17.996   6.481  0.0547  0.2020 -0.1237
  691PSPI   C2A10686   6.132  17.993   6.761 -0.3624 -0.2162  0.1418
  691PSPI   C3A10687   5.868  17.635   6.917 -0.0987  0.1227 -0.0673
  691PSPI   C4A10688   5.947  17.238   6.837  0.4099  0.0620  0.0085
  691PSPI   C1B10689   6.116  18.327   6.167  0.0727  0.1869 -0.0891
  691PSPI   C2B10690   5.653  18.285   6.199 -0.1629  0.0372 -0.2247
  691PSPI   C3B10691   5.178  18.250   6.396  0.0088 -0.3139  0.6443
  691PSPI   C4B10692   4.803  18.077   6.445 -0.2460  0.1729  0.1344
  692PSPI    C110693   2.803   1.257   5.729 -0.0376  0.2741 -0.1782
  692PSPI    C210694   2.739   1.177   5.343 -0.2262  0.0983 -0.1121
  692PSPI    C310695   2.819   1.551   5.459  0.1489  0.0999 -0.3604
  692PSPI   PO410696   2.617   1.031   5.828 -0.1475  0.0310  0.0704
  692PSPI   GL110697   2.458   0.869   6.192 -0.0710  0.1939 -0.2845
  692PSPI   GL210698   2.807   1.047   6.280  0.1105  0.0654  0.1842
  692PSPI   C1A10699   2.478   0.857   6.609  0.1293 -0.4676 -0.1629
  692PSPI   C2A10700   2.352   0.947   7.010 -0.1877  0.1428 -0.1264
  692PSPI   C3A10701   2.104   0.831   7.351  0.1124 -0.0086  0.2851
  692PSPI   C4A10702   1.934   0.728   7.585  0.1171 -0.0331  0.0940
  692PSPI   C1B10703   2.651   1.380   6.456 -0.1466  0.2143  0.0116
  692PSPI   C2B10704   2.470   1.509   6.872 -0.1332 -0.0891 -0.0260
  692PSPI   C3B10705   2.717   1.658   7.374 -0.3972 -0.0855 -0.0698
  692PSPI   C4B10706   2.543   1.705   7.698  0.1850 -0.0847  0.0179
  693PSPI    C110707  12.535   3.720   5.101  0.1625  0.0140  0.0150
  693PSPI    C210708  12.434   4.099   5.182  0.0007  0.0399 -0.2940
  693PSPI    C310709  12.681   4.018   4.878  0.4318 -0.0708  0.0747
  693PSPI   PO410710  12.619   3.635   5.419 -0.1726  0.0265 -0.0320
  693PSPI   GL110711  12.565   3.233   5.862 -0.2394  0.0349  0.1334
  693PSPI   GL210712  12.604   3.652   5.898 -0.3131 -0.0113 -0.0322
  693PSPI   C1A10713  12.493   3.020   6.208  0.0665  0.2399  0.0787
  693PSPI   C2A10714  12.526   2.751   6.616  0.0411 -0.0635 -0.3138
  693PSPI   C3A10715  12.796   2.803   6.974  0.1343 -0.0402 -0.0095
  693PSPI   C4A10716  13.073   2.479   7.120  0.1437 -0.2411  0.0034
  693PSPI   C1B10717  12.566   3.616   6.413  0.4177 -0.2909  0.0497
  693PSPI   C2B10718  12.625   3.826   6.735  0.1900 -0.1725 -0.1368
  693PSPI   C3B10719  12.731   4.039   7.159 -0.0677 -0.1599  0.1394
  693PSPI   C4B10720  12.599   4.076   7.564  0.3124  0.0348 -0.3765
  694POPI    C110721  13.605   4.909   5.256 -0.0507  0.1221 -0.1413
  694POPI    C210722  13.375   5.171   5.452 -0.0036  0.0839 -0.0345
  694POPI    C310723  13.400   5.187   5.053 -0.3137 -0.0105 -0.0604
  694POPI   PO410724  13.860   4.940   5.437  0.0803  0.0046 -0.0551
  694POPI   GL110725  14.121   4.951   5.725  0.1100 -0.1094 -0.0432
  694POPI   GL210726  13.897   4.903   5.981  0.1690 -0.0907  0.3882
  694POPI   C1A10727  14.634   5.035   5.991  0.1553 -0.0673 -0.0497
  694POPI   D2A10728  14.575   5.145   6.364 -0.0633 -0.0502  0.0656
  694POPI   C3A10729  14.709   5.295   6.654  0.2115 -0.1320 -0.0430
  694POPI   C4A10730  14.960   5.606   6.813  0.2546  0.0728 -0.0676
  694POPI   C1B10731  14.155   4.811   6.246 -0.0116  0.2597 -0.1818
  694POPI   C2B10732  14.288   4.449   6.481 -0.0676 -0.1707  0.1845
  694POPI   C3B10733  14.477   4.253   6.845 -0.0947  0.0992  0.1379
  694POPI   C4B10734  14.586   4.132   7.225  0.2937 -0.0638  0.0527
  695POPI    C110735  16.756  13.935   5.180 -0.0261  0.1588 -0.0756
  695POPI    C210736  16.849  13.561   5.072  0.0798  0.0908  0.2381
  695POPI    C310737  17.067  13.869   4.937 -0.0972  0.0569 -0.1395
  695POPI   PO410738  16.605  13.820   5.460  0.2074 -0.0238  0.0361
  695POPI   GL110739  16.716  13.637   5.943  0.1112 -0.1266  0.0667
  695POPI   GL210740  16.470  13.783   6.004 -0.3359  0.4804 -0.2009
  695POPI   C1A10741  17.077  13.444   6.057 -0.1668  0.0161 -0.0343
  695POPI   D2A10742  17.458  13.606   5.885  0.3705 -0.3546 -0.3476
  695POPI   C3A10743  17.843  13.656   6.100  0.3089  0.3056 -0.2270
  695POPI   C4A10744  18.118  13.877   6.300 -0.2467 -0.1920 -0.2898
  695POPI   C1B10745  16.190  13.882   6.316  0.3212 -0.1172  0.0457
  695POPI   C2B10746  16.115  14.087   6.728  0.2610  0.0009 -0.2585
  695POPI   C3B10747  16.079  14.288   7.139 -0.1159 -0.0322  0.0633
  695POPI   C4B10748  16.145  14.660   7.486 -0.3437  0.3983  0.0125
  696POPI    C110749  17.131  18.381   5.302  0.0292 -0.0706  0.0630
  696POPI    C210750  16.819  18.631   5.290  0.0408 -0.0585  0.0228
  696POPI    C310751  17.178  18.765   5.403 -0.0660 -0.1735  0.5233
  696POPI   PO410752  17.065  18.097   5.300  0.2791  0.0708  0.0767
  696POPI   GL110753  16.782  18.067   5.545  0.0571  0.2132 -0.2617
  696POPI   GL210754  16.888  18.426   5.748 -0.0781 -0.0388  0.0404
  696POPI   C1A10755  16.728  18.024   5.996 -0.3245 -0.2776  0.1374
  696POPI   D2A10756  16.667  18.331   6.310  0.1777  0.0954  0.1688
  696POPI   C3A10757  16.849  18.300   6.695  0.0319  0.0757  0.3228
  696POPI   C4A10758  16.701  18.657   7.001 -0.2034 -0.2099  0.1678
  696POPI   C1B10759  16.431  18.437   5.856  0.3064  0.2321  0.2646
  696POPI   C2B10760  15.975  18.410   5.941  0.0770  0.1112  0.2231
  696POPI   C3B10761  15.682  18.518   6.139  0.3944 -0.0322 -0.0283
  696POPI   C4B10762  15.641  18.730   6.605  0.0439 -0.0764  0.0883
  697POPI    C110763   4.736   4.365   5.370 -0.0123  0.1154  0.1134
  697POPI    C210764   4.544   4.712   5.318  0.0138  0.1236  0.0723
  697POPI    C310765   4.738   4.543   5.012 -0.2803 -0.0965  0.0033
  697POPI   PO410766   4.501   4.272   5.532 -0.3570 -0.0740  0.0055
  697POPI   GL110767   4.340   4.330   5.870  0.0134  0.1852 -0.1052
  697POPI   GL210768   4.134   4.460   6.089 -0.3227 -0.3364  0.1515
  697POPI   C1A10769   4.542   4.037   6.250 -0.1730  0.1419  0.2780
  697POPI   D2A10770   4.683   3.874   6.567  0.1798  0.0004 -0.0436
  697POPI   C3A10771   4.540   3.930   6.981 -0.1630 -0.4294 -0.2250
  697POPI   C4A10772   4.533   3.665   7.229  0.1800 -0.0728 -0.3309
  697POPI   C1B10773   3.932   4.584   6.480  0.0492 -0.4099 -0.3114
  697POPI   C2B10774   3.907   4.477   6.820  0.1609 -0.1645  0.1427
  697POPI   C3B10775   3.926   4.328   7.223 -0.0114 -0.5416  0.2926
  697POPI   C4B10776   3.602   4.206   7.371 -0.0213  0.0783  0.0531
  698POPI    C110777   1.980  13.631   5.452  0.3023 -0.0700 -0.2498
  698POPI    C210778   2.052  13.705   5.066  0.0527 -0.0149 -0.2878
  698POPI    C310779   1.714  13.521   5.174  0.1388 -0.0638 -0.0980
  698POPI   PO410780   2.055  13.875   5.570  0.0920 -0.1800  0.0864
  698POPI   GL110781   2.127  13.988   6.034 -0.0957  0.3347 -0.3414
  698POPI   GL210782   1.787  14.132   5.993 -0.3280 -0.1223  0.1644
  698POPI   C1A10783   2.103  13.616   6.392  0.1846 -0.1426  0.0344
  698POPI   D2A10784   1.684  13.537   6.647 -0.1363 -0.1306  0.1495
  698POPI   C3A10785   1.336  13.697   6.588 -0.0120  0.0020 -0.0996
  698POPI   C4A10786   1.064  13.597   6.924  0.0755 -0.2755 -0.0609
  698POPI   C1B10787   1.776  13.983   6.386 -0.2356  0.3507  0.0081
  698POPI   C2B10788   1.924  14.051   6.799 -0.0727  0.0217  0.1234
  698POPI   C3B10789   1.944  13.891   7.212 -0.1013 -0.0762 -0.1190
  698POPI   C4B10790   1.718  13.977   7.666  0.1355  0.0676 -0.2274
  699POPI    C110791   3.258  18.191   5.484  0.1008 -0.0899  0.1374
  699POPI    C210792   3.138  17.963   5.177  0.0621 -0.0581  0.1288
  699POPI    C310793   3.438  17.840   5.412  0.1081 -0.0711  0.0635
  699POPI   PO410794   3.029  18.216   5.608 -0.0386  0.0576  0.0098
  699POPI   GL110795   2.944  18.028   6.005 -0.0667  0.0030  0.2324
  699POPI   GL210796   3.179  17.971   6.050  0.3580 -0.1243 -0.0838
  699POPI   C1A10797   2.676  17.941   6.329 -0.1095  0.3160  0.2027
  699POPI   D2A10798   2.606  18.108   6.761  0.0097 -0.0395  0.1049
  699POPI   C3A10799   2.284  18.083   7.042 -0.1401  0.3359 -0.0730
  699POPI   C4A10800   1.996  18.313   7.373 -0.0825 -0.1809  0.1143
  699POPI   C1B10801   3.307  17.805   6.423  0.2290  0.0469  0.0703
  699POPI   C2B10802   3.506  17.615   6.842  0.2055  0.0405 -0.0654
  699POPI   C3B10803   3.638  17.234   7.061  0.2695 -0.4658 -0.1123
  699POPI   C4B10804   3.858  17.046   7.310 -0.0722  0.2155 -0.1811
  700POPI    C110805   0.057   8.289   5.217  0.0916  0.0688 -0.1078
  700POPI    C210806  -0.229   8.251   4.940 -0.2363  0.0894  0.2198
  700POPI    C310807  -0.097   7.929   5.137 -0.2287  0.1162  0.2588
  700POPI   PO410808  -0.076   8.546   5.318 -0.2575 -0.0001 -0.0589
  700POPI   GL110809  -0.205   8.952   5.521  0.0686 -0.2219  0.1352
  700POPI   GL210810  -0.424   9.091   5.441  0.1870 -0.1859 -0.0585
  700POPI   C1A10811  -0.151   8.860   5.920  0.1748 -0.1153 -0.2635
  700POPI   D2A10812   0.237   8.859   6.240 -0.1204 -0.0653 -0.1510
  700POPI   C3A10813   0.315   9.038   6.665 -0.0511  0.4954  0.0955
  700POPI   C4A10814   0.559   9.227   7.017 -0.0231  0.0976 -0.1837
  700POPI   C1B10815  -0.211   9.313   5.790 -0.2089 -0.0833 -0.1290
  700POPI   C2B10816  -0.138   9.307   6.172 -0.0949 -0.0776 -0.3522
  700POPI   C3B10817  -0.167   9.070   6.529 -0.1867  0.1612  0.0231
  700POPI   C4B10818  -0.155   8.931   6.936 -0.4701 -0.2966 -0.0991
  701POPI    C110819  15.121  10.330   4.869 -0.2273  0.1210  0.0406
  701POPI    C210820  14.793  10.172   4.704 -0.1242  0.0333 -0.0818
  701POPI    C310821  14.981  10.475   4.523 -0.1489  0.0968 -0.0014
  701POPI   PO410822  15.000  10.430   5.208 -0.3375 -0.1160  0.0774
  701POPI   GL110823  15.143  10.484   5.581  0.0201 -0.1465  0.0550
  701POPI   GL210824  15.074  10.179   5.646  0.0126  0.1422  0.0660
  701POPI   C1A10825  15.414  10.237   5.947  0.1628  0.2387  0.0544
  701POPI   D2A10826  15.509  10.178   6.362  0.2985 -0.2228  0.2527
  701POPI   C3A10827  15.377  10.078   6.710 -0.0534 -0.1222 -0.0084
  701POPI   C4A10828  15.279  10.204   7.183 -0.2198 -0.0551 -0.0026
  701POPI   C1B10829  14.608  10.108   5.795 -0.0640 -0.0277  0.1912
  701POPI   C2B10830  14.425   9.900   6.123  0.5373  0.2206  0.0835
  701POPI   C3B10831  14.461   9.850   6.547 -0.3029 -0.0828 -0.0220
  701POPI   C4B10832  14.649   9.472   6.803 -0.4024  0.1171 -0.2640
  702POPI    C110833  10.331   3.440   5.683 -0.1207 -0.0880 -0.1739
  702POPI    C210834  10.237   3.804   5.819  0.0995 -0.0659 -0.0756
  702POPI    C310835  10.227   3.728   5.426 -0.0941  0.0014 -0.0851
  702POPI   PO410836  10.200   3.265   5.840 -0.0832 -0.0169 -0.3229
  702POPI   GL110837  10.105   2.859   6.132 -0.0761 -0.0016  0.0257
  702POPI   GL210838  10.599   2.931   6.259 -0.4126  0.0506 -0.0927
  702POPI   C1A10839  10.161   2.937   6.548 -0.4155  0.1541  0.2710
  702POPI   D2A10840  10.294   2.790   6.985  0.1425  0.0293  0.2604
  702POPI   C3A10841  10.082   3.028   7.249 -0.2308 -0.0733  0.0801
  702POPI   C4A10842  10.107   3.437   7.268 -0.0982  0.2104 -0.0659
  702POPI   C1B10843  10.701   2.789   6.596  0.1667  0.3590 -0.2761
  702POPI   C2B10844  10.793   2.775   7.016 -0.0003  0.3934  0.0112
  702POPI   C3B10845  10.947   2.589   7.410 -0.1276  0.0288 -0.2026
  702POPI   C4B10846  11.129   2.326   7.705  0.3401 -0.4587 -0.0960
  703POPI    C110847   2.090   4.445   5.247  0.2221 -0.1187 -0.0673
  703POPI    C210848   2.217   4.803   5.124 -0.0269  0.0782  0.2324
  703POPI    C310849   2.388   4.471   4.982  0.1834  0.3118 -0.0756
  703POPI   PO410850   1.968   4.536   5.477  0.4423 -0.0969 -0.0128
  703POPI   GL110851   1.859   4.659   5.886 -0.1615 -0.0019 -0.3896
  703POPI   GL210852   1.974   4.317   6.185  0.2110  0.2368  0.0275
  703POPI   C1A10853   1.896   4.825   6.287  0.0153  0.1136  0.1517
  703POPI   D2A10854   1.983   5.226   6.449 -0.2362 -0.2507  0.0074
  703POPI   C3A10855   1.955   5.218   6.937 -0.2307 -0.2049 -0.0410
  703POPI   C4A10856   1.669   5.116   7.356 -0.1426 -0.0122  0.1435
  703POPI   C1B10857   1.694   4.379   6.548 -0.2329  0.0332  0.1166
  703POPI   C2B10858   1.223   4.437   6.576 -0.1358 -0.2165 -0.2918
  703POPI   C3B10859   0.793   4.428   6.599  0.1514  0.2326  0.0187
  703POPI   C4B10860   0.376   4.331   6.489  0.1604  0.0667 -0.2386
  704POPI    C110861   2.729   7.883   4.958 -0.0480  0.1177 -0.2831
  704POPI    C210862   2.460   7.589   4.991  0.2873 -0.1663  0.0059
  704POPI    C310863   2.645   7.653   4.642 -0.0475 -0.0596 -0.1560
  704POPI   PO410864   2.879   7.908   5.155  0.1908 -0.0270  0.1213
  704POPI   GL110865   3.077   7.760   5.566 -0.1855  0.1884 -0.0750
  704POPI   GL210866   3.342   7.709   5.840 -0.5902 -0.1330  0.1387
  704POPI   C1A10867   2.916   7.965   5.925 -0.0904  0.3470  0.1297
  704POPI   D2A10868   2.951   8.130   6.327 -0.3084 -0.0616 -0.0531
  704POPI   C3A10869   2.908   7.797   6.602  0.0706  0.0746  0.1519
  704POPI   C4A10870   2.887   7.591   6.850  0.0617  0.1664 -0.0119
  704POPI   C1B10871   3.375   7.853   6.277  0.0269  0.0478  0.0385
  704POPI   C2B10872   3.309   8.037   6.704  0.1765 -0.0909  0.1645
  704POPI   C3B10873   3.273   7.776   7.068  0.0012 -0.2021  0.1227
  704POPI   C4B10874   3.129   7.405   7.228 -0.1368 -0.1564  0.0170
  705POPI    C110875  17.791   9.301   5.006 -0.0668  0.0479 -0.1268
  705POPI    C210876  17.819   8.905   4.958  0.2943  0.0494  0.0385
  705POPI    C310877  18.149   9.123   5.018  0.0579  0.3146  0.4133
  705POPI   PO410878  17.537   9.235   5.162 -0.0272  0.4555  0.1967
  705POPI   GL110879  17.492   9.209   5.609 -0.0841  0.0990  0.0902
  705POPI   GL210880  17.589   9.023   5.819 -0.1987  0.0162 -0.2532
  705POPI   C1A10881  17.428   9.649   5.855 -0.2206 -0.0535 -0.0454
  705POPI   D2A10882  17.262   9.659   6.215 -0.2570 -0.1570  0.1523
  705POPI   C3A10883  17.429   9.573   6.587  0.0084  0.1323 -0.1981
  705POPI   C4A10884  17.743   9.588   6.912 -0.0841 -0.0215  0.3135
  705POPI   C1B10885  17.675   9.218   6.299  0.1099 -0.1034 -0.0389
  705POPI   C2B10886  17.853   9.219   6.597 -0.1594 -0.0767  0.0910
  705POPI   C3B10887  17.986   8.864   6.828 -0.0050 -0.2589  0.0788
  705POPI   C4B10888  18.304   8.638   6.843 -0.1988  0.1109  0.0041
  706POPI    C110889   0.379   3.294   4.970 -0.2329  0.0364  0.2584
  706POPI    C210890   0.489   3.618   5.177  0.0391  0.1526 -0.0604
  706POPI    C310891   0.233   3.653   4.872 -0.2389  0.0049  0.1515
  706POPI   PO410892   0.200   3.169   5.152  0.0637  0.0133  0.4003
  706POPI   GL110893   0.175   3.169   5.616 -0.0130 -0.2811 -0.0854
  706POPI   GL210894  -0.087   3.345   5.762  0.2276 -0.0261 -0.3694
  706POPI   C1A10895   0.321   3.075   5.932  0.3318 -0.1658 -0.0726
  706POPI   D2A10896   0.249   3.080   6.454 -0.2246  0.3542 -0.1936
  706POPI   C3A10897   0.395   3.452   6.681 -0.0639  0.2420 -0.3005
  706POPI   C4A10898   0.580   3.902   6.831  0.2381 -0.1834 -0.0963
  706POPI   C1B10899  -0.332   3.234   6.173 -0.2551 -0.2174  0.3718
  706POPI   C2B10900  -0.502   3.030   6.509  0.0116  0.2789 -0.1264
  706POPI   C3B10901  -0.424   2.718   6.633 -0.0996 -0.1794  0.0632
  706POPI   C4B10902  -0.408   2.402   6.523  0.1249  0.2505 -0.0824
  707POPI    C110903   9.583  14.032   5.418  0.0085 -0.1303  0.0417
  707POPI    C210904   9.946  14.200   5.408 -0.0195 -0.0695  0.0364
  707POPI    C310905   9.824  13.970   5.104  0.0284 -0.1201  0.0550
  707POPI   PO410906   9.512  14.061   5.661  0.0763  0.0368 -0.3542
  707POPI   GL110907   9.829  13.893   5.984 -0.0444  0.2050  0.0324
  707POPI   GL210908  10.016  14.232   6.022  0.3068 -0.0254 -0.1703
  707POPI   C1A10909   9.923  13.893   6.473 -0.1941 -0.0835  0.0336
  707POPI   D2A10910  10.001  14.236   6.866  0.0951  0.2020 -0.0286
  707POPI   C3A10911   9.770  14.222   7.180 -0.0816  0.0787  0.1508
  707POPI   C4A10912   9.426  14.031   7.449 -0.0585  0.4347 -0.0558
  707POPI   C1B10913   9.741  14.378   6.397 -0.0749 -0.5148 -0.0956
  707POPI   C2B10914   9.497  14.396   6.812 -0.1929 -0.2204  0.1035
  707POPI   C3B10915   9.340  14.534   7.204  0.1642 -0.1544  0.0194
  707POPI   C4B10916   9.315  14.693   7.687 -0.0616  0.5080  0.0431
  708POPI    C110917  18.768  15.593   4.950  0.0200 -0.1155  0.1779
  708POPI    C210918  18.521  15.425   4.683  0.0950 -0.0040  0.0370
  708POPI    C310919  18.602  15.237   5.027 -0.1613 -0.0556  0.0713
  708POPI   PO410920  18.655  15.806   4.987 -0.1864 -0.2287  0.3177
  708POPI   GL110921  18.424  15.801   5.273  0.0245 -0.4533  0.1655
  708POPI   GL210922  18.135  15.776   5.498  0.1402  0.1058  0.1031
  708POPI   C1A10923  18.551  15.979   5.629 -0.1951 -0.0616  0.1741
  708POPI   D2A10924  18.758  15.857   5.978 -0.3473  0.1752  0.0870
  708POPI   C3A10925  18.970  16.311   6.174  0.0237 -0.1398 -0.0100
  708POPI   C4A10926  19.076  16.521   6.453  0.3834 -0.1184  0.4167
  708POPI   C1B10927  18.091  15.941   5.904  0.1956 -0.1138  0.0671
  708POPI   C2B10928  18.240  15.762   6.244 -0.2117 -0.0624 -0.2447
  708POPI   C3B10929  18.514  15.779   6.567 -0.2399 -0.1280 -0.2723
  708POPI   C4B10930  18.789  15.635   6.844  0.0220 -0.0148 -0.0137
  709POPI    C110931   6.160  12.568   5.569  0.0023 -0.2480 -0.0352
  709POPI    C210932   6.301  12.447   5.214 -0.0668 -0.0505 -0.1312
  709POPI    C310933   6.011  12.723   5.231 -0.1812 -0.1811  0.0749
  709POPI   PO410934   6.086  12.299   5.679  0.0332 -0.0916 -0.2434
  709POPI   GL110935   5.870  12.188   6.048  0.0478 -0.3340 -0.4584
  709POPI   GL210936   5.832  12.566   6.077  0.1270  0.0578  0.1040
  709POPI   C1A10937   5.798  12.021   6.458 -0.1186  0.1949 -0.1573
  709POPI   D2A10938   5.687  11.708   6.759 -0.3861 -0.2659  0.0037
  709POPI   C3A10939   5.659  11.740   7.088  0.2194 -0.1498  0.1193
  709POPI   C4A10940   5.533  11.609   7.404 -0.0944 -0.0676  0.0882
  709POPI   C1B10941   5.654  12.589   6.460 -0.1243 -0.1478 -0.0519
  709POPI   C2B10942   5.738  12.740   6.825 -0.1312 -0.0153  0.1258
  709POPI   C3B10943   5.614  13.013   7.163 -0.0629 -0.0583  0.0670
  709POPI   C4B10944   5.860  13.203   7.271  0.0281  0.0055 -0.1612
  710POPI    C110945  13.592  17.996   4.979  0.0945  0.0284 -0.0112
  710POPI    C210946  13.535  18.388   4.926 -0.3362 -0.0224  0.0379
  710POPI    C310947  13.359  18.125   4.681 -0.0251 -0.1883 -0.0136
  710POPI   PO410948  13.470  18.000   5.291 -0.0203 -0.0919 -0.0530
  710POPI   GL110949  13.094  17.955   5.578 -0.0741  0.1764  0.0662
  710POPI   GL210950  13.153  18.175   5.653  0.1611 -0.2745  0.0711
  710POPI   C1A10951  12.863  17.721   5.789 -0.2301  0.1043 -0.2182
  710POPI   D2A10952  12.900  17.487   6.199  0.0461 -0.4034 -0.0695
  710POPI   C3A10953  13.343  17.273   6.342  0.4858 -0.0333  0.1356
  710POPI   C4A10954  13.575  17.358   6.668 -0.1887 -0.1482 -0.1594
  710POPI   C1B10955  13.060  18.233   6.020  0.2591  0.1550 -0.2790
  710POPI   C2B10956  12.783  18.432   6.273  0.2292  0.2751  0.2566
  710POPI   C3B10957  12.488  18.375   6.535 -0.1880  0.3285  0.1686
  710POPI   C4B10958  12.247  18.222   6.802  0.1709  0.2016  0.1493
  711POPI    C110959   5.795  13.904   6.003  0.0000 -0.2637  0.0880
  711POPI    C210960   6.184  13.876   6.090  0.0406 -0.2258 -0.0789
  711POPI    C310961   6.048  13.743   5.738 -0.0678 -0.0715 -0.0963
  711POPI   PO410962   5.703  14.146   6.131  0.1699  0.0926 -0.1566
  711POPI   GL110963   6.063  14.448   6.302  0.0682 -0.3503  0.1148
  711POPI   GL210964   6.254  14.723   6.151  0.0662  0.1141  0.0622
  711POPI   C1A10965   5.971  14.171   6.673  0.1075  0.0880 -0.1903
  711POPI   D2A10966   5.997  13.986   7.080 -0.0216 -0.1468  0.0251
  711POPI   C3A10967   6.319  14.099   7.301 -0.0209 -0.1844  0.2498
  711POPI   C4A10968   6.440  14.028   7.706 -0.1895  0.0065 -0.4321
  711POPI   C1B10969   6.397  14.774   6.499 -0.4474 -0.1950 -0.1769
  711POPI   C2B10970   6.336  14.964   7.084  0.5262 -0.4672  0.1324
  711POPI   C3B10971   6.109  15.125   7.540 -0.1137  0.0291 -0.1901
  711POPI   C4B10972   5.953  15.392   7.896 -0.0191  0.0485 -0.0173
  712POPI    C110973   6.129   6.957   5.467 -0.0658 -0.3244 -0.2065
  712POPI    C210974   6.361   6.888   5.148 -0.0151 -0.2653 -0.1826
  712POPI    C310975   6.158   7.231   5.177  0.3175 -0.0817  0.0520
  712POPI   PO410976   6.100   6.636   5.508  0.5658 -0.1088 -0.1380
  712POPI   GL110977   5.760   6.599   5.852  0.1688  0.2024  0.0808
  712POPI   GL210978   5.488   6.373   5.955  0.2140 -0.2010  0.0872
  712POPI   C1A10979   6.058   6.512   6.303  0.1051  0.1912 -0.0315
  712POPI   D2A10980   5.725   6.456   6.692 -0.0619  0.2705  0.1455
  712POPI   C3A10981   5.643   6.274   6.996  0.0125 -0.3590  0.2433
  712POPI   C4A10982   5.877   6.216   7.301 -0.1007 -0.2325  0.2503
  712POPI   C1B10983   5.445   6.458   6.317  0.0874  0.1031 -0.0494
  712POPI   C2B10984   5.158   6.526   6.663 -0.1258 -0.0717 -0.0292
  712POPI   C3B10985   4.720   6.421   6.905 -0.0407  0.3787 -0.0370
  712POPI   C4B10986   4.242   6.528   7.104  0.1810 -0.0815  0.1941
  713POPI    C110987  14.888  13.797   5.391  0.0094  0.0262  0.2803
  713POPI    C210988  14.549  13.700   5.579 -0.1284  0.0704  0.0590
  713POPI    C310989  14.547  13.983   5.297  0.0022 -0.2402 -0.2619
  713POPI   PO410990  15.041  13.822   5.560  0.1743  0.2203 -0.1197
  713POPI   GL110991  15.210  14.076   5.927 -0.0652  0.1229 -0.1468
  713POPI   GL210992  15.388  13.834   6.021  0.0609 -0.0869  0.1683
  713POPI   C1A10993  15.217  14.126   6.400 -0.1455  0.1065 -0.1654
  713POPI   D2A10994  15.328  14.053   6.847 -0.3474  0.1193 -0.1537
  713POPI   C3A10995  15.705  13.918   7.066  0.0859  0.0960  0.2252
  713POPI   C4A10996  15.800  13.554   7.142 -0.1905  0.2548 -0.0167
  713POPI   C1B10997  15.193  13.472   6.141 -0.1226  0.1066  0.0283
  713POPI   C2B10998  15.150  13.220   6.497 -0.0754 -0.0745  0.1038
  713POPI   C3B10999  14.822  13.104   6.782  0.5020  0.0499 -0.4194
  713POPI   C4B11000  14.450  13.178   7.033  0.0420  0.1136  0.5558
  714POPI    C111001   6.969   1.073   5.575 -0.0806  0.0165  0.2269
  714POPI    C211002   6.964   1.321   5.262 -0.0643 -0.1052  0.1297
  714POPI    C311003   6.818   0.950   5.226  0.1695 -0.2050  0.1937
  714POPI   PO411004   6.891   1.173   5.763 -0.2155  0.1135  0.0917
  714POPI   GL111005   6.706   1.010   6.133 -0.0409 -0.1143  0.2398
  714POPI   GL211006   7.025   1.012   6.200 -0.0051 -0.2162 -0.1709
  714POPI   C1A11007   6.550   0.957   6.506  0.0919  0.1490 -0.1819
  714POPI   D2A11008   6.629   0.899   6.954 -0.2510  0.1307  0.1743
  714POPI   C3A11009   6.421   0.470   7.075  0.3790 -0.1224  0.3562
  714POPI   C4A11010   6.326   0.171   6.851  0.0867  0.0274  0.1179
  714POPI   C1B11011   6.999   0.932   6.628 -0.1905 -0.2574 -0.2446
  714POPI   C2B11012   7.123   0.854   7.087  0.1203 -0.0530 -0.3954
  714POPI   C3B11013   7.280   0.781   7.557 -0.5932 -0.2131 -0.1404
  714POPI   C4B11014   7.589   0.633   7.929 -0.0820  0.4281 -0.0859
  715POPI    C111015  18.282  13.039   4.920  0.0737 -0.0872 -0.0200
  715POPI    C211016  17.943  12.828   4.947  0.0018  0.0585  0.2471
  715POPI    C311017  18.284  12.646   4.844 -0.1625 -0.0815 -0.0639
  715POPI   PO411018  18.300  13.182   5.127 -0.0393  0.0806 -0.0573
  715POPI   GL111019  18.413  13.211   5.587 -0.2229 -0.0985 -0.4325
  715POPI   GL211020  18.189  13.486   5.582 -0.1328 -0.0814  0.1643
  715POPI   C1A11021  18.327  13.266   6.053 -0.1883  0.0590 -0.1274
  715POPI   D2A11022  18.521  13.113   6.465  0.1910  0.2254 -0.0439
  715POPI   C3A11023  18.382  12.927   6.856  0.0636  0.0581 -0.0972
  715POPI   C4A11024  18.198  12.688   7.150 -0.3417  0.0524  0.3804
  715POPI   C1B11025  18.348  13.721   5.855  0.1313 -0.0200 -0.0657
  715POPI   C2B11026  18.520  13.998   6.084  0.0534 -0.1740 -0.3535
  715POPI   C3B11027  18.816  14.282   6.218 -0.1479  0.0165  0.3545
  715POPI   C4B11028  19.159  14.576   6.123  0.0271 -0.1024 -0.0150
  716POPI    C111029  18.629  10.280   4.957  0.0473 -0.0829 -0.2854
  716POPI    C211030  18.437  10.619   5.050  0.0853 -0.1495  0.0477
  716POPI    C311031  18.269  10.355   4.800 -0.0476  0.0071 -0.0299
  716POPI   PO411032  18.718  10.178   5.314  0.0139 -0.0331 -0.0265
  716POPI   GL111033  18.550  10.165   5.770  0.0305 -0.0751 -0.1507
  716POPI   GL211034  18.811   9.979   5.739 -0.2276 -0.0084  0.2436
  716POPI   C1A11035  18.103   9.846   5.844 -0.1596 -0.0171 -0.2406
  716POPI   D2A11036  17.801   9.704   6.154 -0.2189  0.0033 -0.1427
  716POPI   C3A11037  18.002   9.746   6.473  0.0339  0.1528  0.1576
  716POPI   C4A11038  18.414   9.753   6.648  0.0604 -0.0139 -0.0464
  716POPI   C1B11039  18.573   9.873   6.146 -0.0827 -0.2663  0.2459
  716POPI   C2B11040  18.510  10.181   6.327  0.2442 -0.2094  0.1761
  716POPI   C3B11041  18.414  10.320   6.677 -0.1699  0.2042  0.1156
  716POPI   C4B11042  18.542  10.167   7.063  0.1186  0.2639  0.2556
  717POPI    C111043  16.528  17.959   5.142  0.1352  0.0031 -0.3459
  717POPI    C211044  16.386  18.313   5.262 -0.0666 -0.1683 -0.0692
  717POPI    C311045  16.635  18.294   4.950 -0.1790  0.1992 -0.1863
  717POPI   PO411046  16.408  17.791   5.408  0.2402 -0.1168 -0.0627
  717POPI   GL111047  16.601  17.634   5.809 -0.0292  0.2769 -0.2743
  717POPI   GL211048  16.213  17.469   5.850 -0.4166  0.0496 -0.1949
  717POPI   C1A11049  16.607  17.504   6.285  0.0395 -0.2322 -0.0621
  717POPI   D2A11050  16.669  17.286   6.762  0.3114 -0.2582 -0.0991
  717POPI   C3A11051  16.954  17.097   6.904  0.1698 -0.1507  0.0709
  717POPI   C4A11052  17.066  16.899   7.272  0.3625 -0.2739 -0.2288
  717POPI   C1B11053  15.932  17.513   6.137 -0.0051  0.3663 -0.0657
  717POPI   C2B11054  16.023  17.350   6.583 -0.2234  0.3987  0.1282
  717POPI   C3B11055  15.811  17.034   6.870 -0.1531 -0.0502 -0.1315
  717POPI   C4B11056  15.381  16.833   7.029  0.4000 -0.0339 -0.0637
  718POPI    C111057   0.309  12.689   5.256  0.1572  0.1286 -0.3602
  718POPI    C211058   0.354  12.317   5.115  0.0872 -0.0349  0.0353
  718POPI    C311059   0.664  12.570   5.116  0.1799 -0.1470 -0.0781
  718POPI   PO411060   0.158  12.679   5.478 -0.0126  0.1176 -0.1657
  718POPI   GL111061  -0.217  12.764   5.696  0.2851  0.3298 -0.0144
  718POPI   GL211062  -0.225  12.420   5.720  0.1012 -0.1193  0.1654
  718POPI   C1A11063  -0.181  12.839   6.056 -0.3692 -0.1962 -0.1892
  718POPI   D2A11064  -0.358  12.511   6.380  0.5169  0.1004 -0.0818
  718POPI   C3A11065  -0.261  12.426   6.846 -0.3776  0.1820 -0.0981
  718POPI   C4A11066  -0.119  12.574   7.219  0.0262  0.2014  0.1345
  718POPI   C1B11067  -0.452  12.115   6.062 -0.1870  0.0886 -0.1955
  718POPI   C2B11068  -0.364  11.968   6.493 -0.3175 -0.1033 -0.2421
  718POPI   C3B11069  -0.373  11.767   6.810 -0.1503  0.0320 -0.1440
  718POPI   C4B11070  -0.312  11.575   7.276 -0.3217 -0.1278  0.0928
  719POPI    C111071   3.119  16.829   5.250 -0.0267 -0.0277 -0.0388
  719POPI    C211072   2.767  16.888   5.070 -0.1009 -0.0024  0.1132
  719POPI    C311073   3.093  16.810   4.852 -0.1060  0.4363 -0.0605
  719POPI   PO411074   3.037  16.720   5.516  0.3788 -0.0213  0.0595
  719POPI   GL111075   3.076  16.371   5.896  0.0992 -0.0278  0.1874
  719POPI   GL211076   2.862  16.332   5.705  0.5413 -0.0834 -0.3042
  719POPI   C1A11077   3.046  16.444   6.440 -0.1722  0.2459  0.1515
  719POPI   D2A11078   3.163  16.692   6.678 -0.2953 -0.1008  0.2036
  719POPI   C3A11079   2.894  16.752   7.123 -0.1106 -0.1458  0.0696
  719POPI   C4A11080   2.593  16.613   7.491  0.3966  0.3143  0.1462
  719POPI   C1B11081   2.743  16.199   6.137  0.3177 -0.3581  0.0875
  719POPI   C2B11082   2.609  16.060   6.520 -0.0616 -0.1280 -0.0078
  719POPI   C3B11083   2.486  15.840   6.857 -0.2072  0.3193 -0.1378
  719POPI   C4B11084   2.290  15.778   7.170 -0.0632  0.2070 -0.0596
  720POPI    C111085  12.730   1.474   5.065 -0.1384 -0.1146  0.3496
  720POPI    C211086  13.099   1.586   4.957 -0.3271 -0.0155 -0.2291
  720POPI    C311087  13.015   1.199   5.014 -0.1142 -0.0299  0.0046
  720POPI   PO411088  12.669   1.628   5.287 -0.3657 -0.0935  0.0218
  720POPI   GL111089  12.807   1.808   5.699 -0.1026 -0.3925  0.4699
  720POPI   GL211090  12.641   1.956   5.814 -0.2695  0.2860 -0.0309
  720POPI   C1A11091  12.958   1.765   6.193  0.2552  0.2389  0.2509
  720POPI   D2A11092  13.196   1.914   6.478 -0.1276  0.0642 -0.1226
  720POPI   C3A11093  13.125   1.783   6.801 -0.3443 -0.2819  0.0054
  720POPI   C4A11094  12.971   1.459   6.896  0.2105  0.2536 -0.0796
  720POPI   C1B11095  12.586   2.098   6.182 -0.3683 -0.4842 -0.0510
  720POPI   C2B11096  12.649   1.820   6.624 -0.0345 -0.2199 -0.2637
  720POPI   C3B11097  12.442   1.424   6.694 -0.2194  0.0819  0.0117
  720POPI   C4B11098  12.195   1.237   6.462  0.1010 -0.2112 -0.0378
  721POPI    C111099  10.246  10.363   5.644  0.0936  0.0642  0.1272
  721POPI    C211100  10.072  10.678   5.818 -0.0843 -0.0387  0.1379
  721POPI    C311101  10.226  10.712   5.451  0.0838  0.1162  0.2213
  721POPI   PO411102  10.273  10.188   5.915 -0.4237  0.0070  0.0116
  721POPI   GL111103  10.528  10.089   6.193  0.0372  0.0222 -0.0547
  721POPI   GL211104  10.882  10.087   6.178 -0.1263 -0.2205 -0.1953
  721POPI   C1A11105  10.632   9.829   6.576  0.0840 -0.4258  0.1818
  721POPI   D2A11106  10.377   9.652   6.850  0.2478 -0.2667  0.1468
  721POPI   C3A11107  10.555   9.658   7.286  0.0155  0.0848 -0.0598
  721POPI   C4A11108  10.746   9.812   7.639 -0.1132  0.1343 -0.1254
  721POPI   C1B11109  11.097  10.295   6.458 -0.3452 -0.0361 -0.2121
  721POPI   C2B11110  11.224  10.581   6.821  0.2090  0.1792 -0.1153
  721POPI   C3B11111  11.166  10.834   7.258 -0.0400 -0.1122 -0.4020
  721POPI   C4B11112  10.819  11.138   7.448  0.0450 -0.0345 -0.0252
  722POPI    C111113   8.020   5.653   5.761  0.0032  0.0818 -0.1722
  722POPI    C211114   8.296   5.651   6.050 -0.1575  0.0476 -0.0174
  722POPI    C311115   8.331   5.905   5.743  0.0018  0.1005  0.0433
  722POPI   PO411116   7.825   5.615   5.862  0.4144 -0.1225 -0.1650
  722POPI   GL111117   7.909   5.419   6.344 -0.1199  0.0267  0.2591
  722POPI   GL211118   7.911   5.784   6.433  0.0654  0.2032  0.3178
  722POPI   C1A11119   7.962   5.348   6.787 -0.3340  0.0208  0.0525
  722POPI   D2A11120   8.280   5.151   7.073  0.3420 -0.0687  0.0518
  722POPI   C3A11121   8.681   5.260   7.051 -0.3759  0.3478 -0.2175
  722POPI   C4A11122   9.134   5.309   6.964  0.2042  0.1268 -0.1069
  722POPI   C1B11123   7.884   5.876   6.961 -0.0471  0.0745  0.3143
  722POPI   C2B11124   8.177   6.122   7.215 -0.0061  0.0734  0.2421
  722POPI   C3B11125   8.644   6.183   7.349 -0.0086  0.3863  0.0517
  722POPI   C4B11126   9.003   6.072   7.347  0.1076 -0.1138 -0.2403
  723POPI    C111127  11.408   8.026   6.090 -0.3816 -0.1861  0.1686
  723POPI    C211128  11.592   8.027   5.735 -0.0970  0.0601  0.3113
  723POPI    C311129  11.206   8.129   5.761 -0.2547 -0.4264  0.0133
  723POPI   PO411130  11.502   7.782   6.280  0.0978  0.0805  0.0207
  723POPI   GL111131  11.613   7.618   6.641 -0.0415 -0.3002 -0.0526
  723POPI   GL211132  11.503   7.368   6.688 -0.1314  0.0420  0.2874
  723POPI   C1A11133  11.839   7.787   6.935  0.0708 -0.0466  0.1442
  723POPI   D2A11134  11.960   7.763   7.303 -0.0781 -0.0851  0.1709
  723POPI   C3A11135  12.310   8.063   7.476 -0.0524 -0.6070 -0.1808
  723POPI   C4A11136  12.200   8.149   7.843  0.1626 -0.2311  0.1868
  723POPI   C1B11137  11.627   7.429   7.197 -0.2815  0.0861 -0.0576
  723POPI   C2B11138  11.693   7.395   7.587  0.2920  0.2171  0.4722
  723POPI   C3B11139  12.016   7.598   7.770  0.0033 -0.0420  0.1808
  723POPI   C4B11140  12.459   7.640   7.828 -0.1533  0.5539 -0.1182
  724POPI    C111141   6.600   5.039   5.983 -0.1923  0.1075  0.0743
  724POPI    C211142   6.670   5.049   5.589  0.1835 -0.0149  0.1336
  724POPI    C311143   6.317   4.920   5.727  0.0311  0.0767 -0.1629
  724POPI   PO411144   6.621   5.271   6.083  0.0210 -0.0174 -0.0860
  724POPI   GL111145   6.609   5.418   6.543  0.1594 -0.2508  0.0116
  724POPI   GL211146   6.217   5.433   6.575 -0.1921 -0.2043 -0.2038
  724POPI   C1A11147   6.539   5.480   6.928 -0.1210 -0.2312  0.3754
  724POPI   D2A11148   6.620   5.325   7.454  0.2413 -0.0614  0.2287
  724POPI   C3A11149   7.034   5.475   7.617  0.1831 -0.2579 -0.2160
  724POPI   C4A11150   7.204   5.964   7.478  0.0754  0.3923 -0.0911
  724POPI   C1B11151   6.225   5.880   6.567  0.0932  0.0757  0.0419
  724POPI   C2B11152   6.180   6.242   6.802 -0.1003  0.2148 -0.0604
  724POPI   C3B11153   6.026   6.592   7.041 -0.0214  0.1477  0.1859
  724POPI   C4B11154   5.959   7.019   7.132  0.2367 -0.3782 -0.2032
  725POPI    C111155  11.482   1.653   5.577 -0.0398 -0.0690  0.1293
  725POPI    C211156  11.801   1.483   5.406  0.0628  0.2897 -0.0483
  725POPI    C311157  11.560   1.717   5.189 -0.3146  0.0377  0.0891
  725POPI   PO411158  11.390   1.490   5.758  0.1825  0.2275  0.1001
  725POPI   GL111159  11.124   1.534   6.124 -0.2895 -0.2095 -0.3376
  725POPI   GL211160  11.313   1.782   6.188  0.1185 -0.1530  0.0554
  725POPI   C1A11161  10.919   1.593   6.488 -0.0130 -0.2922  0.2597
  725POPI   D2A11162  10.731   1.486   6.896  0.0686 -0.2087 -0.0205
  725POPI   C3A11163  10.658   1.936   7.208  0.1906  0.0483  0.1156
  725POPI   C4A11164  10.598   2.309   7.210 -0.0973 -0.0688  0.0936
  725POPI   C1B11165  11.640   2.022   6.458  0.1711 -0.1007 -0.1959
  725POPI   C2B11166  11.610   2.035   6.858 -0.2633  0.1638  0.1271
  725POPI   C3B11167  11.636   1.853   7.287  0.1463 -0.0500  0.3028
  725POPI   C4B11168  11.517   1.513   7.528 -0.2201 -0.0448  0.0239
  726POPI    C111169   4.059  12.118   5.169  0.0820 -0.2102  0.0152
  726POPI    C211170   4.178  11.813   4.940  0.0453 -0.2899  0.1018
  726POPI    C311171   4.351  12.171   4.901 -0.0183 -0.2808 -0.1095
  726POPI   PO411172   4.057  12.033   5.408 -0.1977 -0.2684 -0.0522
  726POPI   GL111173   4.331  11.868   5.855 -0.0865 -0.3861 -0.2593
  726POPI   GL211174   4.237  12.114   5.871 -0.2490  0.1368  0.2040
  726POPI   C1A11175   4.414  11.828   6.230 -0.0193  0.3402 -0.1028
  726POPI   D2A11176   4.391  11.712   6.672  0.1384  0.1084  0.2874
  726POPI   C3A11177   4.091  11.688   7.041 -0.0431  0.0162 -0.2915
  726POPI   C4A11178   3.645  11.489   7.113 -0.2792 -0.0554 -0.0826
  726POPI   C1B11179   3.924  11.939   6.207  0.0992  0.0243  0.2905
  726POPI   C2B11180   3.402  11.901   6.257 -0.1179 -0.0498 -0.1528
  726POPI   C3B11181   2.977  11.911   6.128 -0.0614 -0.1247 -0.1253
  726POPI   C4B11182   2.579  11.825   6.407 -0.0785  0.0355 -0.3602
  727POPI    C111183  17.897   7.946   5.291 -0.0939  0.0548  0.0114
  727POPI    C211184  18.265   8.088   5.357  0.0689 -0.3075 -0.0888
  727POPI    C311185  18.153   7.987   4.986 -0.1978 -0.0299 -0.0886
  727POPI   PO411186  17.843   7.817   5.494  0.0358  0.2233  0.0534
  727POPI   GL111187  17.812   7.643   5.895  0.0028 -0.1434 -0.1961
  727POPI   GL211188  18.071   7.587   6.015 -0.1187  0.2231 -0.2429
  727POPI   C1A11189  17.261   7.584   6.055 -0.0772  0.0795  0.0733
  727POPI   D2A11190  17.193   7.698   6.458 -0.2871 -0.0533  0.0299
  727POPI   C3A11191  17.047   8.045   6.514 -0.1409  0.1766 -0.1765
  727POPI   C4A11192  16.628   8.232   6.604 -0.1203 -0.1978 -0.0870
  727POPI   C1B11193  18.051   7.721   6.466 -0.6191 -0.0922  0.0741
  727POPI   C2B11194  18.195   7.824   6.839 -0.1363 -0.1354  0.1324
  727POPI   C3B11195  18.211   7.603   7.164 -0.0901 -0.3428 -0.0796
  727POPI   C4B11196  18.010   7.487   7.502 -0.1427  0.1272  0.1684
  728POPI    C111197  11.905  11.092   5.580 -0.2518 -0.2066  0.0668
  728POPI    C211198  11.587  11.130   5.340 -0.1337  0.3886 -0.0126
  728POPI    C311199  11.954  11.196   5.197 -0.0079  0.1471  0.1889
  728POPI   PO411200  11.857  11.214   5.849  0.0091 -0.0683 -0.0127
  728POPI   GL111201  12.078  11.271   6.259  0.0283 -0.3254  0.4279
  728POPI   GL211202  12.274  11.455   6.371  0.3596 -0.4126 -0.2012
  728POPI   C1A11203  11.703  11.074   6.522 -0.1485 -0.2369  0.1751
  728POPI   D2A11204  11.597  10.921   7.014  0.0467  0.1656  0.1363
  728POPI   C3A11205  11.611  11.266   7.413  0.0075 -0.1505  0.0743
  728POPI   C4A11206  11.754  11.240   7.807 -0.0091 -0.1977 -0.1970
  728POPI   C1B11207  12.554  11.580   6.629 -0.2435 -0.1389 -0.0505
  728POPI   C2B11208  12.881  11.695   6.802  0.1107 -0.1568  0.0636
  728POPI   C3B11209  12.851  12.183   6.838 -0.0183 -0.0990 -0.3476
  728POPI   C4B11210  12.838  12.531   6.536 -0.0530  0.2214 -0.0161
  729POPI    C111211   2.509  13.653   5.466  0.1611  0.0838 -0.0232
  729POPI    C211212   2.625  13.776   5.104 -0.1510  0.0355 -0.1427
  729POPI    C311213   2.430  13.429   5.145  0.0874 -0.0734  0.1029
  729POPI   PO411214   2.771  13.685   5.635 -0.0403 -0.1859  0.0188
  729POPI   GL111215   2.762  13.793   6.048  0.0961 -0.1097  0.0127
  729POPI   GL211216   2.593  14.062   6.173  0.1364 -0.2137 -0.0343
  729POPI   C1A11217   2.615  13.578   6.406 -0.1076  0.2744  0.0903
  729POPI   D2A11218   2.508  13.215   6.648 -0.3350  0.0231 -0.2589
  729POPI   C3A11219   2.862  13.181   6.884  0.4235  0.0489  0.0531
  729POPI   C4A11220   3.236  13.393   6.991 -0.0362 -0.0703  0.0387
  729POPI   C1B11221   2.844  14.009   6.515  0.2780  0.1137  0.1438
  729POPI   C2B11222   2.777  14.196   6.938 -0.1511 -0.4000  0.2111
  729POPI   C3B11223   3.175  14.497   7.111  0.4186 -0.0028  0.2359
  729POPI   C4B11224   3.434  14.665   7.368 -0.0497  0.0496  0.2385
  730POPI    C111225  16.647  10.918   5.426  0.0166 -0.0047 -0.0489
  730POPI    C211226  16.440  10.810   5.102  0.0116 -0.0210 -0.0403
  730POPI    C311227  16.696  11.116   5.082  0.1195 -0.1144 -0.0979
  730POPI   PO411228  16.497  10.994   5.613 -0.0696 -0.0292  0.1395
  730POPI   GL111229  16.548  11.071   6.044 -0.2975  0.0485 -0.2235
  730POPI   GL211230  16.797  11.297   5.899  0.0582  0.2992  0.2802
  730POPI   C1A11231  16.557  10.945   6.534  0.3286  0.5121  0.0542
  730POPI   D2A11232  16.740  10.664   6.932  0.1040 -0.0139 -0.0186
  730POPI   C3A11233  16.686  10.219   7.242  0.0977 -0.0045 -0.0166
  730POPI   C4A11234  16.813  10.027   7.599 -0.2561 -0.1258  0.2783
  730POPI   C1B11235  16.804  11.386   6.327  0.4436  0.0706  0.2200
  730POPI   C2B11236  16.892  11.326   6.847 -0.2571  0.2883  0.1755
  730POPI   C3B11237  17.093  11.378   7.262 -0.4364 -0.1858 -0.0260
  730POPI   C4B11238  17.332  11.513   7.570  0.2046  0.1350 -0.3427
  731POPI    C111239  16.206  11.715   5.259  0.2391 -0.1833  0.1058
  731POPI    C211240  15.823  11.598   5.269  0.0824  0.3145  0.1790
  731POPI    C311241  16.006  11.653   4.918  0.1128  0.0065  0.1439
  731POPI   PO411242  16.393  11.963   5.393  0.3109 -0.1594  0.2025
  731POPI   GL111243  16.409  11.915   5.832  0.1082 -0.3068 -0.0808
  731POPI   GL211244  16.752  11.807   5.892  0.1510 -0.0235 -0.3330
  731POPI   C1A11245  16.404  12.131   6.286  0.2103  0.1148  0.0385
  731POPI   D2A11246  16.424  12.032   6.690  0.0298 -0.1995 -0.1672
  731POPI   C3A11247  16.079  11.998   6.923  0.2152  0.2601  0.0047
  731POPI   C4A11248  16.084  11.748   7.284  0.0844 -0.0294  0.0922
  731POPI   C1B11249  16.856  11.959   6.316 -0.1045 -0.0607  0.4380
  731POPI   C2B11250  16.966  12.178   6.573 -0.2504  0.0650  0.0098
  731POPI   C3B11251  16.735  12.512   6.705  0.4263  0.2210  0.0438
  731POPI   C4B11252  16.422  12.580   6.925  0.3457 -0.0632 -0.3467
  732POPI    C111253  14.184  10.406   5.564  0.0613  0.0260 -0.0293
  732POPI    C211254  14.306  10.703   5.325  0.0102  0.0901  0.0240
  732POPI    C311255  14.562  10.415   5.433  0.1219  0.2363  0.1542
  732POPI   PO411256  13.955  10.580   5.615 -0.0378 -0.0151 -0.1522
  732POPI   GL111257  13.965  10.795   6.038  0.1567  0.1883  0.0236
  732POPI   GL211258  14.350  10.845   6.018  0.1136 -0.0967 -0.0383
  732POPI   C1A11259  13.775  10.954   6.378  0.0911 -0.4283  0.2333
  732POPI   D2A11260  13.679  10.999   6.843  0.2870  0.3397 -0.0743
  732POPI   C3A11261  13.550  10.633   7.082 -0.0388 -0.0039 -0.2124
  732POPI   C4A11262  13.838  10.442   7.368  0.1521  0.2119 -0.3137
  732POPI   C1B11263  14.244  10.766   6.489  0.0832  0.1573  0.1675
  732POPI   C2B11264  14.121  10.882   6.865  0.0234 -0.1804  0.0558
  732POPI   C3B11265  14.001  10.945   7.309 -0.0608  0.0702  0.1692
  732POPI   C4B11266  13.806  11.290   7.342  0.3082 -0.1747  0.0060
  733POPI    C111267  12.961   4.209   5.226 -0.0233  0.2093 -0.3061
  733POPI    C211268  13.335   4.116   5.333 -0.1666  0.0790  0.1024
  733POPI    C311269  13.254   4.218   4.954  0.2413 -0.1025 -0.0396
  733POPI   PO411270  12.952   4.413   5.557 -0.1674 -0.2775 -0.0223
  733POPI   GL111271  13.199   4.247   5.955  0.2205 -0.0439  0.3405
  733POPI   GL211272  13.435   4.104   5.859 -0.2260 -0.1883 -0.3483
  733POPI   C1A11273  13.399   4.503   6.173 -0.0816 -0.3510 -0.1585
  733POPI   D2A11274  13.675   4.385   6.534 -0.0008  0.2045  0.0667
  733POPI   C3A11275  14.023   4.577   6.879  0.0273  0.0220  0.2646
  733POPI   C4A11276  14.118   4.468   7.357  0.1624  0.2256 -0.2296
  733POPI   C1B11277  13.523   4.017   6.234 -0.0922  0.0368  0.0621
  733POPI   C2B11278  13.555   3.818   6.649  0.1814  0.2731 -0.0803
  733POPI   C3B11279  13.723   3.528   6.873 -0.2799  0.1346 -0.0009
  733POPI   C4B11280  13.762   3.145   7.142 -0.2059 -0.0946  0.2648
  734POPI    C111281   7.518   3.382   5.867  0.0155 -0.0798 -0.1265
  734POPI    C211282   7.568   3.119   5.570 -0.1947 -0.0513 -0.1885
  734POPI    C311283   7.237   3.342   5.586 -0.0944  0.0895 -0.0419
  734POPI   PO411284   7.795   3.310   5.998 -0.2325 -0.1616 -0.0861
  734POPI   GL111285   7.841   3.203   6.374  0.0389  0.1473  0.1765
  734POPI   GL211286   7.761   2.874   6.563  0.1135  0.1247  0.0024
  734POPI   C1A11287   7.879   3.308   6.820  0.1179 -0.0964  0.1209
  734POPI   D2A11288   8.322   3.410   7.062 -0.0638 -0.2280 -0.3175
  734POPI   C3A11289   8.642   3.651   7.244 -0.4537  0.0124 -0.2067
  734POPI   C4A11290   8.986   3.885   7.424  0.3413  0.0339  0.2078
  734POPI   C1B11291   7.712   2.689   6.931 -0.1990 -0.0044 -0.0138
  734POPI   C2B11292   7.936   2.328   7.000  0.1378 -0.1395  0.0225
  734POPI   C3B11293   8.245   2.288   7.271 -0.0586  0.0751  0.1342
  734POPI   C4B11294   8.130   2.349   7.700 -0.1312  0.0280 -0.1963
  735POPI    C111295  14.184   3.987   5.636 -0.3001  0.1349 -0.0840
  735POPI    C211296  14.007   3.727   5.389 -0.2212 -0.0365  0.0376
  735POPI    C311297  13.828   4.074   5.476 -0.2401  0.0355 -0.2748
  735POPI   PO411298  14.393   4.052   5.502 -0.0023  0.0533 -0.3198
  735POPI   GL111299  14.562   4.436   5.726 -0.0371 -0.3118  0.0611
  735POPI   GL211300  14.345   4.476   5.964  0.1709  0.2784 -0.1200
  735POPI   C1A11301  14.668   4.098   6.070  0.1906 -0.1276  0.3830
  735POPI   D2A11302  14.565   3.952   6.456  0.0226 -0.1094 -0.2934
  735POPI   C3A11303  14.720   3.593   6.460  0.3793  0.0089 -0.2085
  735POPI   C4A11304  14.552   3.196   6.593 -0.0450 -0.1628 -0.4030
  735POPI   C1B11305  14.698   4.617   6.227 -0.1262 -0.3284 -0.4384
  735POPI   C2B11306  14.733   4.765   6.652 -0.0023  0.1108 -0.1847
  735POPI   C3B11307  14.473   4.724   7.127 -0.1746  0.1438  0.3194
  735POPI   C4B11308  14.662   4.528   7.498  0.0951 -0.1447  0.0748
  736POPI    C111309  15.215   4.431   5.049 -0.0562  0.0199 -0.1039
  736POPI    C211310  15.177   4.045   4.950  0.2178 -0.0981  0.2333
  736POPI    C311311  15.444   4.275   4.761 -0.2398  0.0433 -0.2647
  736POPI   PO411312  15.282   4.404   5.330 -0.2253 -0.1930  0.1526
  736POPI   GL111313  15.293   4.114   5.623  0.0006 -0.1398 -0.0245
  736POPI   GL211314  15.443   3.867   5.341 -0.1232 -0.1268 -0.4052
  736POPI   C1A11315  15.131   4.306   5.964 -0.1633 -0.3670  0.1356
  736POPI   D2A11316  15.080   4.086   6.400  0.0323 -0.2382 -0.0613
  736POPI   C3A11317  15.004   4.270   6.741 -0.0892 -0.1426  0.3077
  736POPI   C4A11318  14.993   4.552   7.077 -0.0309 -0.3549  0.0746
  736POPI   C1B11319  15.615   3.681   5.657 -0.0612 -0.1653  0.2110
  736POPI   C2B11320  15.668   3.755   6.037 -0.2565 -0.0644  0.0104
  736POPI   C3B11321  15.492   3.573   6.405  0.1460  0.1913 -0.0403
  736POPI   C4B11322  15.818   3.383   6.641  0.0428 -0.2146 -0.1532
  737POPI    C111323  11.100   4.510   5.960 -0.2098 -0.0123 -0.1487
  737POPI    C211324  11.073   4.517   5.561 -0.0925  0.0934 -0.1554
  737POPI    C311325  10.749   4.439   5.782 -0.1274 -0.1067 -0.2752
  737POPI   PO411326  11.142   4.668   6.057  0.0723  0.0629  0.2324
  737POPI   GL111327  11.102   4.674   6.484  0.3294 -0.0593 -0.0053
  737POPI   GL211328  10.883   4.758   6.667 -0.5554  0.3223  0.2391
  737POPI   C1A11329  11.285   4.598   6.910 -0.0331  0.0731 -0.0737
  737POPI   D2A11330  11.213   4.307   7.278 -0.1619  0.1825  0.0156
  737POPI   C3A11331  11.586   4.076   7.394  0.1781 -0.1247  0.5387
  737POPI   C4A11332  11.921   3.988   7.179 -0.0354  0.0729 -0.2613
  737POPI   C1B11333  10.971   4.997   7.058  0.0453 -0.2261  0.1653
  737POPI   C2B11334  10.906   5.033   7.542 -0.0074 -0.0524 -0.0667
  737POPI   C3B11335  10.585   4.992   7.931  0.0004  0.2258  0.1475
  737POPI   C4B11336  10.307   4.900   8.234 -0.2541 -0.1571 -0.0951
  738POPI    C111337   3.773   5.276   5.399 -0.0352  0.1123 -0.1296
  738POPI    C211338   3.480   5.435   5.178 -0.0146  0.2339 -0.0700
  738POPI    C311339   3.847   5.394   5.024 -0.0229  0.2331 -0.0896
  738POPI   PO411340   3.680   5.053   5.530 -0.0543  0.1547 -0.1036
  738POPI   GL111341   3.506   5.010   5.909 -0.1746 -0.0760 -0.0220
  738POPI   GL211342   3.168   4.968   5.866 -0.0595  0.1950 -0.0265
  738POPI   C1A11343   3.787   4.916   6.189 -0.3434  0.1853 -0.1339
  738POPI   D2A11344   4.014   5.119   6.463  0.0586  0.0477 -0.1233
  738POPI   C3A11345   3.940   4.951   6.988  0.1564  0.0488  0.0419
  738POPI   C4A11346   4.014   4.794   7.487  0.2472  0.1935  0.3797
  738POPI   C1B11347   2.958   5.099   6.223  0.3360  0.2018 -0.0656
  738POPI   C2B11348   2.953   5.307   6.543 -0.0088 -0.0304 -0.1708
  738POPI   C3B11349   2.969   5.720   6.732  0.2412 -0.0972  0.0331
  738POPI   C4B11350   3.268   6.131   6.825 -0.0866  0.3646  0.2018
  739POPI    C111351  13.806   6.684   5.437 -0.1139 -0.0533  0.1382
  739POPI    C211352  13.769   6.487   5.091  0.2147 -0.1590  0.1594
  739POPI    C311353  13.817   6.884   5.091  0.0221 -0.1349  0.0943
  739POPI   PO411354  13.935   6.499   5.576 -0.0709 -0.1811 -0.1154
  739POPI   GL111355  13.781   6.157   5.863  0.0736 -0.1345  0.1602
  739POPI   GL211356  14.120   5.960   5.769 -0.1937 -0.1336 -0.2258
  739POPI   C1A11357  13.980   6.138   6.200 -0.1271 -0.1625 -0.1428
  739POPI   D2A11358  14.105   5.979   6.619 -0.0686  0.0721 -0.1366
  739POPI   C3A11359  14.240   5.683   6.826  0.1027 -0.1040 -0.5074
  739POPI   C4A11360  14.426   5.412   7.179 -0.1297 -0.0842  0.0688
  739POPI   C1B11361  14.427   6.075   6.091 -0.2084 -0.0148  0.2984
  739POPI   C2B11362  14.406   6.464   6.307  0.1378 -0.1639  0.1288
  739POPI   C3B11363  14.658   6.682   6.585 -0.1191 -0.0755 -0.1553
  739POPI   C4B11364  14.644   6.865   7.020  0.2302  0.0317  0.0813
  740POPI    C111365   1.728   3.336   5.208 -0.0536  0.1268  0.1061
  740POPI    C211366   1.748   2.992   5.412  0.1482  0.2305  0.2647
  740POPI    C311367   1.466   3.043   5.133  0.0113  0.0012  0.3586
  740POPI   PO411368   1.661   3.524   5.460 -0.1440 -0.2746  0.1285
  740POPI   GL111369   1.568   3.385   5.848 -0.1541 -0.1883  0.0379
  740POPI   GL211370   1.944   3.374   5.864  0.1605 -0.2045 -0.0713
  740POPI   C1A11371   1.735   2.945   5.931 -0.3085 -0.3129 -0.1441
  740POPI   D2A11372   1.845   2.710   6.271 -0.0116  0.1083 -0.1031
  740POPI   C3A11373   1.709   2.876   6.719 -0.0765  0.2101 -0.0698
  740POPI   C4A11374   1.932   2.859   7.117 -0.1046  0.3260 -0.3519
  740POPI   C1B11375   1.783   3.367   6.313 -0.0942  0.0925  0.3794
  740POPI   C2B11376   1.690   3.435   6.732 -0.2982  0.1181 -0.2562
  740POPI   C3B11377   1.492   3.675   7.006  0.2106  0.1628  0.3307
  740POPI   C4B11378   1.214   3.548   7.219 -0.2405 -0.0776 -0.2389
  741POPS   CNO11379  15.040   1.406   5.301 -0.1949  0.1646 -0.0848
  741POPS   PO411380  14.991   0.954   5.296  0.1869  0.1358  0.0379
  741POPS   GL111381  14.817   0.960   5.716 -0.0890  0.1786  0.1046
  741POPS   GL211382  14.894   1.188   5.899  0.2679  0.2053  0.4833
  741POPS   C1A11383  14.687   0.686   6.041  0.3021  0.0646  0.0011
  741POPS   D2A11384  14.649   0.661   6.405 -0.1516 -0.3939  0.0590
  741POPS   C3A11385  14.860   0.780   6.783 -0.2246 -0.0563  0.3020
  741POPS   C4A11386  15.332   0.591   7.101  0.0924  0.1054 -0.3045
  741POPS   C1B11387  15.002   1.174   6.383 -0.0813 -0.2888  0.0321
  741POPS   C2B11388  15.312   1.039   6.723 -0.3489  0.0715  0.2811
  741POPS   C3B11389  15.603   1.018   7.088 -0.0878  0.3459  0.1529
  741POPS   C4B11390  15.844   0.867   7.305  0.3540 -0.1781 -0.0556
  742POPS   CNO11391   6.134   1.697   5.405 -0.1929  0.3631 -0.1453
  742POPS   PO411392   5.961   2.052   5.576 -0.2847 -0.3866 -0.1670
  742POPS   GL111393   6.060   1.971   5.975 -0.0542  0.0283 -0.0864
  742POPS   GL211394   5.842   1.608   5.991  0.1664  0.0695  0.3379
  742POPS   C1A11395   6.356   1.995   6.272  0.0707  0.1155  0.2742
  742POPS   D2A11396   6.343   1.911   6.799  0.1430 -0.1541 -0.1653
  742POPS   C3A11397   6.265   1.537   6.983 -0.0930  0.0099  0.0356
  742POPS   C4A11398   6.234   1.192   6.798 -0.0988  0.1901  0.3038
  742POPS   C1B11399   5.556   1.787   6.376  0.0551  0.0704 -0.1776
  742POPS   C2B11400   5.330   1.796   6.774 -0.1271  0.0370  0.2555
  742POPS   C3B11401   5.272   1.540   7.137  0.3076  0.0169 -0.1784
  742POPS   C4B11402   5.514   1.057   7.197  0.1929  0.0238  0.2283
  743POPS   CNO11403   1.793   2.157   4.915 -0.2408 -0.0253 -0.2533
  743POPS   PO411404   1.747   2.146   5.384 -0.2475  0.2926  0.1592
  743POPS   GL111405   1.879   1.966   5.756  0.0983  0.0833 -0.0917
  743POPS   GL211406   1.897   1.586   5.908 -0.1139 -0.1373 -0.1235
  743POPS   C1A11407   1.579   1.922   6.085  0.0825 -0.3687  0.2111
  743POPS   D2A11408   1.462   1.511   6.153  0.3300 -0.1564 -0.0210
  743POPS   C3A11409   1.692   1.257   6.446 -0.0772 -0.4384  0.0376
  743POPS   C4A11410   1.633   1.301   6.847  0.1892 -0.1683 -0.1764
  743POPS   C1B11411   2.202   1.684   6.305 -0.5238  0.1343  0.0812
  743POPS   C2B11412   2.389   2.035   6.568  0.1174  0.1229  0.2049
  743POPS   C3B11413   2.592   2.155   7.003 -0.3681 -0.1004  0.1381
  743POPS   C4B11414   3.062   2.131   7.068  0.0269  0.0369  0.0055
  744POPS   CNO11415   2.812  11.566   5.762  0.0068 -0.1304 -0.2694
  744POPS   PO411416   2.894  11.291   5.433 -0.4052  0.1312 -0.2851
  744POPS   GL111417   3.123  11.170   5.857 -0.3376  0.0383 -0.0087
  744POPS   GL211418   3.346  11.354   5.888  0.0520 -0.3968  0.1543
  744POPS   C1A11419   3.112  10.951   6.225 -0.2023  0.4360 -0.1985
  744POPS   D2A11420   3.474  10.937   6.379 -0.2729  0.1389 -0.1272
  744POPS   C3A11421   3.452  10.518   6.530  0.2789 -0.0588  0.1887
  744POPS   C4A11422   3.514  10.282   6.896 -0.1790 -0.0305  0.0861
  744POPS   C1B11423   3.085  11.476   6.292 -0.0308  0.2283 -0.3357
  744POPS   C2B11424   3.030  11.773   6.670  0.0927 -0.1269 -0.1787
  744POPS   C3B11425   3.252  11.893   7.081  0.2203 -0.0647 -0.1897
  744POPS   C4B11426   3.287  12.155   7.360  0.1432 -0.1294 -0.0485
  745POPS   CNO11427  18.054   9.375   5.515  0.5165 -0.0661  0.1195
  745POPS   PO411428  17.948   8.910   5.493 -0.2085 -0.3991  0.1777
  745POPS   GL111429  18.200   9.000   5.876 -0.0802 -0.1280 -0.0659
  745POPS   GL211430  18.057   9.276   5.999  0.3393  0.1029 -0.0277
  745POPS   C1A11431  18.223   8.824   6.354  0.1935  0.1085 -0.1505
  745POPS   D2A11432  18.620   8.571   6.451  0.0282 -0.2482 -0.2145
  745POPS   C3A11433  18.564   8.213   6.772  0.2820 -0.2102  0.0753
  745POPS   C4A11434  18.237   8.236   7.113  0.2459 -0.0018 -0.0857
  745POPS   C1B11435  18.280   9.317   6.408 -0.2736 -0.4553 -0.1244
  745POPS   C2B11436  18.298   9.311   6.850  0.0881  0.0412 -0.0235
  745POPS   C3B11437  18.370   9.104   7.279  0.1792 -0.0295 -0.3259
  745POPS   C4B11438  18.176   8.722   7.365  0.1479  0.0944 -0.0209
  746POPS   CNO11439   1.815   8.296   5.004  0.3124 -0.1740 -0.0120
  746POPS   PO411440   1.910   8.204   5.406  0.1781 -0.0800  0.1654
  746POPS   GL111441   2.012   8.312   5.801  0.0301 -0.3743 -0.0160
  746POPS   GL211442   1.703   8.555   5.847  0.2791  0.2396 -0.1442
  746POPS   C1A11443   2.346   8.183   5.890  0.1484  0.1321 -0.0080
  746POPS   D2A11444   2.438   7.911   6.247 -0.2530  0.0981  0.0423
  746POPS   C3A11445   2.494   8.071   6.661 -0.0882  0.1732  0.1562
  746POPS   C4A11446   2.754   8.117   7.001 -0.0809 -0.2157  0.1551
  746POPS   C1B11447   1.948   8.848   6.015 -0.1809 -0.1982  0.2038
  746POPS   C2B11448   2.183   8.912   6.389 -0.0774 -0.2909  0.2921
  746POPS   C3B11449   2.186   9.058   6.797 -0.1109  0.1752 -0.2474
  746POPS   C4B11450   2.125   9.138   7.305  0.1649 -0.0442  0.0701
  747POPS   CNO11451   9.029   4.536   6.413 -0.0715  0.3077 -0.0264
  747POPS   PO411452   8.760   4.765   6.092 -0.0468 -0.0415  0.1918
  747POPS   GL111453   8.589   4.698   6.599  0.2965 -0.0611 -0.0094
  747POPS   GL211454   8.607   4.394   6.643  0.2781 -0.0071 -0.0899
  747POPS   C1A11455   8.849   4.725   6.966 -0.6053 -0.1064  0.0670
  747POPS   D2A11456   8.932   4.932   7.334  0.0361  0.0627 -0.1273
  747POPS   C3A11457   8.589   5.160   7.570  0.1267  0.0726  0.4569
  747POPS   C4A11458   8.555   5.496   7.822  0.0948  0.0110  0.5894
  747POPS   C1B11459   8.129   4.403   6.856 -0.0350  0.0208  0.2397
  747POPS   C2B11460   7.842   4.733   7.104  0.0434 -0.5146  0.1658
  747POPS   C3B11461   7.785   5.118   7.251  0.2216  0.0610 -0.3908
  747POPS   C4B11462   8.034   5.462   7.620  0.2816  0.1978  0.1481
  748POPS   CNO11463   3.984  11.103   5.500 -0.0135  0.0531  0.3730
  748POPS   PO411464   3.572  10.969   5.691 -0.2931  0.0655  0.1520
  748POPS   GL111465   3.802  11.174   6.020 -0.1869  0.0569  0.0129
  748POPS   GL211466   4.187  11.397   6.056  0.0290  0.1551  0.3493
  748POPS   C1A11467   3.597  11.423   6.275  0.2317 -0.2726  0.0549
  748POPS   D2A11468   3.478  11.323   6.689 -0.1421 -0.1032 -0.0873
  748POPS   C3A11469   3.448  10.983   6.887  0.0854  0.4918  0.2962
  748POPS   C4A11470   3.275  10.642   7.119 -0.0492 -0.0989  0.0839
  748POPS   C1B11471   3.978  11.355   6.541 -0.1537 -0.4379  0.3340
  748POPS   C2B11472   4.130  11.207   6.957 -0.0102 -0.1357 -0.0725
  748POPS   C3B11473   4.324  10.892   7.168 -0.1223  0.3114  0.1365
  748POPS   C4B11474   4.278  10.792   7.617 -0.1599  0.0467  0.2529
  749POPS   CNO11475  16.775  12.406   5.409  0.3610 -0.2818 -0.0529
  749POPS   PO411476  16.738  12.804   5.484  0.0265 -0.0129  0.1382
  749POPS   GL111477  16.811  12.576   5.903 -0.4693 -0.0941 -0.1656
  749POPS   GL211478  16.579  12.399   5.888 -0.3360  0.1764  0.0058
  749POPS   C1A11479  17.043  12.278   5.953  0.3189 -0.1896 -0.1051
  749POPS   D2A11480  17.414  12.071   6.278 -0.0021 -0.1706  0.0831
  749POPS   C3A11481  17.463  12.061   6.636 -0.3607 -0.0868  0.1001
  749POPS   C4A11482  17.550  12.160   7.076 -0.0633 -0.0090 -0.2781
  749POPS   C1B11483  16.482  12.643   6.257  0.3969  0.2360  0.1351
  749POPS   C2B11484  16.535  12.941   6.546 -0.2285 -0.5896  0.0288
  749POPS   C3B11485  16.673  13.205   6.848 -0.0023 -0.2911  0.0340
  749POPS   C4B11486  16.558  13.435   7.248 -0.0929 -0.0188 -0.1071
  750POPS   CNO11487  17.399   0.935   4.962 -0.0533 -0.0086 -0.3570
  750POPS   PO411488  17.801   0.599   5.003 -0.0603  0.1332  0.1973
  750POPS   GL111489  17.521   0.600   5.365 -0.2306  0.0600  0.0209
  750POPS   GL211490  17.456   0.302   5.296  0.0635 -0.1838 -0.0719
  750POPS   C1A11491  17.686   0.795   5.791 -0.0360  0.3457 -0.2902
  750POPS   D2A11492  17.830   1.000   6.058 -0.1953 -0.1813  0.0581
  750POPS   C3A11493  17.610   1.303   5.969  0.2139  0.2321  0.2571
  750POPS   C4A11494  17.634   1.625   5.680 -0.0492 -0.1883  0.2817
  750POPS   C1B11495  17.445   0.081   5.711  0.3336 -0.1781 -0.1283
  750POPS   C2B11496  17.320  -0.155   5.874 -0.1410  0.1013  0.0474
  750POPS   C3B11497  17.097  -0.322   6.254 -0.4663  0.2415  0.2338
  750POPS   C4B11498  17.152  -0.786   6.387 -0.1398 -0.0027 -0.1583
  751POPS   CNO11499   1.941   8.862   4.973 -0.3960 -0.2010 -0.2034
  751POPS   PO411500   2.200   9.192   5.116  0.0007  0.2160  0.0950
  751POPS   GL111501   2.364   9.190   5.516 -0.1525  0.1610  0.1671
  751POPS   GL211502   2.634   9.297   5.662 -0.1801 -0.1585 -0.0437
  751POPS   C1A11503   2.422   8.946   5.899 -0.1338 -0.1013  0.0768
  751POPS   D2A11504   2.524   8.644   6.123 -0.2127 -0.0031 -0.0887
  751POPS   C3A11505   2.200   8.433   6.296 -0.1663 -0.2529  0.1283
  751POPS   C4A11506   1.982   8.484   6.666 -0.1010 -0.1925 -0.0954
  751POPS   C1B11507   2.830   9.584   5.915 -0.2466 -0.1220  0.0802
  751POPS   C2B11508   2.925   9.624   6.337 -0.0194 -0.0568  0.1546
  751POPS   C3B11509   3.149   9.497   6.622  0.3123 -0.1370  0.0691
  751POPS   C4B11510   3.040   9.489   7.026 -0.4945 -0.1158 -0.0921
  752POPS   CNO11511   3.650  16.333   5.784 -0.0226 -0.5056  0.2994
  752POPS   PO411512   3.421  16.025   5.877  0.1474 -0.1028  0.2219
  752POPS   GL111513   3.128  15.942   6.223 -0.2489 -0.1992  0.0473
  752POPS   GL211514   2.824  15.680   6.208  0.1248  0.2659  0.0388
  752POPS   C1A11515   3.093  15.990   6.666  0.0080 -0.0093 -0.0729
  752POPS   D2A11516   2.993  16.244   6.929  0.0550 -0.1026  0.0836
  752POPS   C3A11517   2.621  16.353   7.030  0.1220  0.0486  0.0308
  752POPS   C4A11518   2.393  16.758   7.077  0.2732 -0.1392  0.1364
  752POPS   C1B11519   2.870  15.485   6.663  0.2353  0.2449  0.0226
  752POPS   C2B11520   3.024  15.595   7.117 -0.1269 -0.0854 -0.0570
  752POPS   C3B11521   3.259  15.573   7.501 -0.2442 -0.0814  0.5326
  752POPS   C4B11522   3.695  15.491   7.585  0.1746  0.3989  0.0649
  753POPS   CNO11523   0.186   5.097   5.814 -0.2626 -0.1912  0.0967
  753POPS   PO411524   0.631   5.105   5.631  0.2046 -0.1632 -0.1380
  753POPS   GL111525   0.684   5.032   6.089  0.2161 -0.2130 -0.0362
  753POPS   GL211526   0.540   4.726   6.204  0.0775 -0.1452 -0.0994
  753POPS   C1A11527   0.953   4.863   6.448 -0.2090  0.2061 -0.0737
  753POPS   D2A11528   1.031   4.755   6.850 -0.1550 -0.2434 -0.0215
  753POPS   C3A11529   0.854   4.983   7.032 -0.1500  0.0014  0.3421
  753POPS   C4A11530   1.006   5.115   7.463 -0.0673  0.0227 -0.0289
  753POPS   C1B11531   0.205   4.769   6.472 -0.1206 -0.2636  0.3274
  753POPS   C2B11532  -0.014   4.546   6.789  0.1578 -0.0844  0.2090
  753POPS   C3B11533  -0.339   4.565   7.118 -0.0114 -0.1082  0.1396
  753POPS   C4B11534  -0.610   4.252   7.335  0.1077 -0.3705  0.3772
  754POPS   CNO11535   3.635  14.214   5.774 -0.1646 -0.2822 -0.0506
  754POPS   PO411536   3.530  13.841   5.907  0.0045 -0.2214  0.1231
  754POPS   GL111537   3.244  14.000   6.188  0.0516  0.1196  0.0357
  754POPS   GL211538   3.044  14.341   6.166  0.1625  0.0254 -0.0371
  754POPS   C1A11539   3.287  14.146   6.656 -0.1639  0.1434 -0.0051
  754POPS   D2A11540   3.334  13.942   7.129  0.0501 -0.0987 -0.1724
  754POPS   C3A11541   3.406  14.216   7.497  0.0831 -0.3430 -0.0848
  754POPS   C4A11542   3.267  14.517   7.798 -0.0734  0.2934 -0.1948
  754POPS   C1B11543   3.193  14.627   6.520  0.0657 -0.0485  0.1350
  754POPS   C2B11544   3.451  14.856   6.783 -0.0697  0.0762  0.1342
  754POPS   C3B11545   3.796  15.125   6.798  0.2411  0.0660 -0.0162
  754POPS   C4B11546   3.864  15.434   6.529  0.2987  0.0954  0.1943
  755POPS   CNO11547  15.067  16.675   4.929  0.1453 -0.2419 -0.2914
  755POPS   PO411548  15.313  16.584   5.327 -0.2839  0.2150 -0.1317
  755POPS   GL111549  15.179  16.625   5.805 -0.3372  0.5640 -0.1930
  755POPS   GL211550  14.857  16.491   5.737  0.2271  0.2992 -0.3252
  755POPS   C1A11551  15.363  16.545   6.189 -0.0680  0.0874  0.3445
  755POPS   D2A11552  15.457  16.569   6.603 -0.0261 -0.1092  0.0069
  755POPS   C3A11553  15.306  16.304   6.911  0.1513  0.0722 -0.2949
  755POPS   C4A11554  15.392  16.342   7.361 -0.0057 -0.3084 -0.0238
  755POPS   C1B11555  14.828  16.366   6.098  0.2637  0.0076  0.0158
  755POPS   C2B11556  14.958  16.300   6.510  0.2805  0.0708  0.0877
  755POPS   C3B11557  14.902  15.994   6.675 -0.2407 -0.1123 -0.3587
  755POPS   C4B11558  14.843  15.549   6.736 -0.3570 -0.0422  0.0451
  756POPS   CNO11559  11.070   9.204   5.768 -0.1813  0.4120 -0.1490
  756POPS   PO411560  11.378   9.036   6.079 -0.1610  0.1674  0.0581
  756POPS   GL111561  11.520   8.948   6.414 -0.0496  0.1751 -0.1456
  756POPS   GL211562  11.787   8.718   6.339 -0.0502 -0.3437 -0.0855
  756POPS   C1A11563  11.428   8.842   6.840 -0.3502  0.1556  0.0006
  756POPS   D2A11564  11.801   8.888   6.907  0.2523  0.2274 -0.2081
  756POPS   C3A11565  11.949   8.916   7.241  0.0740  0.1723  0.1151
  756POPS   C4A11566  12.063   9.271   7.547 -0.1187 -0.0770 -0.2573
  756POPS   C1B11567  11.698   8.402   6.527 -0.3814 -0.0372  0.4504
  756POPS   C2B11568  11.709   8.360   6.986  0.3435  0.2502  0.0028
  756POPS   C3B11569  11.854   8.268   7.403 -0.0855  0.0440 -0.3164
  756POPS   C4B11570  11.921   8.600   7.657 -0.0853  0.0238 -0.1484
  757POPS   CNO11571  11.761  16.895   5.555  0.0517 -0.1827 -0.0019
  757POPS   PO411572  11.739  17.231   5.378 -0.1693  0.0228 -0.0050
  757POPS   GL111573  11.698  17.362   5.785 -0.0434 -0.1973 -0.3585
  757POPS   GL211574  11.859  17.093   5.995  0.1183 -0.0724 -0.1565
  757POPS   C1A11575  11.593  17.629   6.146  0.3120 -0.1290  0.1939
  757POPS   D2A11576  11.403  17.859   6.412 -0.0756 -0.0561  0.1754
  757POPS   C3A11577  11.659  17.987   6.747 -0.0127  0.1669 -0.4579
  757POPS   C4A11578  11.714  17.751   7.080 -0.1440  0.0386  0.0292
  757POPS   C1B11579  11.990  17.114   6.454 -0.0950  0.1298 -0.0288
  757POPS   C2B11580  12.092  17.402   6.845 -0.1440 -0.2502 -0.1911
  757POPS   C3B11581  12.253  17.342   7.257  0.1132 -0.1989 -0.0234
  757POPS   C4B11582  11.976  17.467   7.596 -0.3916 -0.0780  0.2724
  758POPS   CNO11583   4.701   2.219   5.524 -0.1294 -0.0700 -0.0084
  758POPS   PO411584   5.048   2.400   5.478  0.2626  0.0185 -0.2619
  758POPS   GL111585   5.026   2.488   5.833 -0.0264  0.4183  0.0581
  758POPS   GL211586   4.720   2.429   5.972 -0.0510 -0.2708 -0.0341
  758POPS   C1A11587   5.221   2.451   6.230 -0.0898  0.2243  0.0234
  758POPS   D2A11588   5.442   2.253   6.524 -0.1695  0.2404  0.2329
  758POPS   C3A11589   5.903   2.147   6.518  0.2346  0.0937 -0.0068
  758POPS   C4A11590   6.006   1.678   6.469 -0.0814 -0.0032  0.2060
  758POPS   C1B11591   4.716   2.694   6.347  0.0867  0.0178  0.1517
  758POPS   C2B11592   4.682   2.656   6.764  0.2492  0.1173  0.0507
  758POPS   C3B11593   4.365   2.543   7.042  0.2017  0.2290  0.0941
  758POPS   C4B11594   4.452   2.118   7.140 -0.0504  0.0354 -0.2828
  759POPS   CNO11595   7.975  12.900   5.565  0.2253 -0.1490 -0.0103
  759POPS   PO411596   7.736  12.837   5.926 -0.3569  0.1075 -0.0581
  759POPS   GL111597   7.343  12.853   6.163 -0.1031  0.2252 -0.1696
  759POPS   GL211598   7.004  13.102   6.169  0.1549  0.1559  0.0778
  759POPS   C1A11599   7.216  12.700   6.531 -0.0262  0.0211 -0.0273
  759POPS   D2A11600   7.094  12.658   6.902  0.2883  0.0330 -0.2347
  759POPS   C3A11601   6.690  12.630   7.213  0.2672 -0.2071 -0.3896
  759POPS   C4A11602   6.621  12.525   7.626  0.2277  0.2099 -0.1827
  759POPS   C1B11603   6.919  13.088   6.502  0.0600 -0.3232 -0.2631
  759POPS   C2B11604   7.006  13.102   6.970  0.0940 -0.0861 -0.1559
  759POPS   C3B11605   7.104  13.259   7.454 -0.0678 -0.2673  0.1368
  759POPS   C4B11606   7.135  13.359   7.827  0.2916 -0.0122 -0.3426
  760POPS   CNO11607   6.186   6.327   5.854 -0.0906  0.2093  0.0186
  760POPS   PO411608   6.634   6.299   5.879  0.0753 -0.0086 -0.0022
  760POPS   GL111609   6.678   6.409   6.212  0.1111  0.1936  0.1160
  760POPS   GL211610   6.863   6.173   6.408  0.1708 -0.3849 -0.0359
  760POPS   C1A11611   6.557   6.510   6.655  0.1614 -0.0519  0.2120
  760POPS   D2A11612   6.522   6.354   7.134 -0.0114  0.0631  0.0721
  760POPS   C3A11613   6.459   6.680   7.342 -0.2976  0.3810  0.2641
  760POPS   C4A11614   6.526   6.914   7.656  0.2068 -0.1334 -0.4141
  760POPS   C1B11615   6.695   5.981   6.774 -0.0227 -0.0167  0.0090
  760POPS   C2B11616   6.746   5.873   7.231 -0.2051  0.0272 -0.0730
  760POPS   C3B11617   6.714   5.844   7.626 -0.1077  0.0173 -0.3499
  760POPS   C4B11618   6.421   5.607   7.881  0.4086  0.2252  0.2102
  761POPS   CNO11619  16.657   8.361   4.976  0.1327 -0.2679  0.0904
  761POPS   PO411620  17.013   8.494   5.214 -0.0658 -0.0935  0.1810
  761POPS   GL111621  17.062   8.692   5.571 -0.1209  0.0582  0.2726
  761POPS   GL211622  17.309   8.625   5.769 -0.0669  0.2076 -0.1506
  761POPS   C1A11623  16.790   8.559   5.906 -0.1029  0.2840 -0.0546
  761POPS   D2A11624  16.527   8.662   6.293 -0.2134 -0.1324  0.2754
  761POPS   C3A11625  16.560   8.718   6.600 -0.0060  0.2384  0.1937
  761POPS   C4A11626  16.546   8.822   6.990  0.0990  0.6308  0.0042
  761POPS   C1B11627  17.194   8.680   6.172 -0.1992 -0.3108  0.2901
  761POPS   C2B11628  17.062   8.618   6.541 -0.2067  0.0194 -0.1554
  761POPS   C3B11629  16.952   8.554   6.824 -0.1697  0.2472  0.1500
  761POPS   C4B11630  16.961   8.501   7.194  0.3802  0.1461 -0.1789
  762POPS   CNO11631   2.388  17.254   5.186 -0.0021 -0.1924  0.1917
  762POPS   PO411632   2.234  17.071   5.558  0.3276  0.1543 -0.2275
  762POPS   GL111633   2.453  17.174   5.845 -0.1512  0.0482 -0.0517
  762POPS   GL211634   2.649  17.455   5.972 -0.0330  0.1139  0.2530
  762POPS   C1A11635   2.361  17.337   6.296 -0.0880 -0.0409 -0.2005
  762POPS   D2A11636   2.340  17.636   6.560 -0.4876 -0.0093  0.1114
  762POPS   C3A11637   2.321  17.555   6.902 -0.0846  0.2477 -0.1573
  762POPS   C4A11638   2.169  17.391   7.138 -0.0359 -0.1593  0.2287
  762POPS   C1B11639   2.880  17.526   6.320  0.2644  0.1045  0.0638
  762POPS   C2B11640   2.921  17.686   6.762 -0.1459 -0.0668 -0.1507
  762POPS   C3B11641   2.710  17.815   7.176  0.2185 -0.3535 -0.1638
  762POPS   C4B11642   2.525  18.174   7.432  0.2136 -0.0808 -0.0150
  763POPS   CNO11643   5.970   2.583   5.395  0.1247 -0.1932  0.0439
  763POPS   PO411644   6.110   2.922   5.644  0.1209 -0.1543 -0.1241
  763POPS   GL111645   6.117   2.606   5.927  0.1992  0.0861  0.3358
  763POPS   GL211646   6.194   2.406   5.831 -0.3987  0.0258 -0.0574
  763POPS   C1A11647   6.234   2.461   6.334 -0.2000  0.0177  0.0953
  763POPS   D2A11648   6.300   2.566   6.674 -0.2611  0.2866  0.0122
  763POPS   C3A11649   6.125   2.517   7.051 -0.1378 -0.0910 -0.1259
  763POPS   C4A11650   5.922   2.372   7.437  0.2990 -0.0281 -0.1317
  763POPS   C1B11651   6.603   2.286   5.980 -0.0723  0.0375  0.1251
  763POPS   C2B11652   6.852   2.243   6.400 -0.1148 -0.1907 -0.0503
  763POPS   C3B11653   6.709   2.209   6.843  0.1740  0.1229 -0.0557
  763POPS   C4B11654   6.511   2.225   7.145  0.1443  0.0343  0.2464
  764POPS   CNO11655   7.846  15.988   5.701  0.1442  0.0738  0.0723
  764POPS   PO411656   8.116  16.386   5.731 -0.1023  0.4787 -0.0166
  764POPS   GL111657   8.189  16.295   6.068  0.3500  0.0413 -0.3646
  764POPS   GL211658   8.097  15.976   6.156 -0.2804  0.0115  0.0349
  764POPS   C1A11659   8.507  16.176   6.420 -0.0408 -0.0083 -0.1191
  764POPS   D2A11660   8.746  16.049   6.875  0.0581 -0.1031 -0.1634
  764POPS   C3A11661   9.143  15.790   6.959  0.3593  0.2917  0.0433
  764POPS   C4A11662   9.401  15.549   7.179 -0.5921 -0.5683  0.2952
  764POPS   C1B11663   8.095  15.994   6.572 -0.0050 -0.4184 -0.0175
  764POPS   C2B11664   8.121  15.949   7.073 -0.2862 -0.2384  0.2794
  764POPS   C3B11665   8.022  16.137   7.496  0.0886 -0.0373  0.0647
  764POPS   C4B11666   7.801  16.198   7.863 -0.0482  0.3179 -0.2797
  765POPS   CNO11667   8.188   1.191   5.583  0.0774  0.0337  0.0154
  765POPS   PO411668   8.292   1.503   5.772  0.0802 -0.0047 -0.1642
  765POPS   GL111669   8.570   1.372   6.063  0.0750  0.1630 -0.2050
  765POPS   GL211670   8.715   1.652   6.118 -0.2149 -0.2051 -0.2817
  765POPS   C1A11671   8.552   1.307   6.526 -0.0478 -0.0767 -0.0952
  765POPS   D2A11672   8.627   1.247   7.050  0.1316  0.0456 -0.1898
  765POPS   C3A11673   8.238   1.217   7.390  0.4017  0.2431 -0.0114
  765POPS   C4A11674   7.957   1.167   7.838 -0.2934  0.1258  0.1031
  765POPS   C1B11675   9.074   1.531   6.403  0.4008 -0.2208 -0.1009
  765POPS   C2B11676   9.112   1.196   6.719 -0.2787 -0.0398  0.2759
  765POPS   C3B11677   8.930   0.881   6.883  0.0505  0.1243  0.1985
  765POPS   C4B11678   8.859   0.661   7.150 -0.5686 -0.0793  0.0449
  766POPS   CNO11679   5.197  17.289   5.655  0.4604  0.1936  0.1377
  766POPS   PO411680   4.814  17.016   5.687  0.0325 -0.1354  0.0534
  766POPS   GL111681   4.717  16.976   6.154 -0.4045 -0.0760 -0.1617
  766POPS   GL211682   4.397  16.922   6.209  0.0825  0.1757 -0.0892
  766POPS   C1A11683   4.718  17.112   6.565  0.3615  0.3766  0.2949
  766POPS   D2A11684   4.688  16.956   7.050  0.0194  0.1797  0.1223
  766POPS   C3A11685   4.377  17.050   7.378  0.0465 -0.1057  0.1493
  766POPS   C4A11686   4.277  17.340   7.669  0.0847 -0.1858 -0.3494
  766POPS   C1B11687   4.143  17.038   6.594 -0.2274 -0.0909  0.0440
  766POPS   C2B11688   4.124  17.236   6.854  0.0427  0.1599  0.0357
  766POPS   C3B11689   4.503  17.491   6.835  0.0412  0.0997 -0.3006
  766POPS   C4B11690   4.830  17.585   6.433 -0.0820  0.2127  0.0095
  767POPS   CNO11691   5.454  11.846   5.213 -0.1706 -0.3470  0.2640
  767POPS   PO411692   5.842  11.782   5.499  0.2057  0.0238 -0.0068
  767POPS   GL111693   5.845  11.631   5.875  0.0552  0.0899 -0.2424
  767POPS   GL211694   5.461  11.769   6.069  0.2006  0.1386 -0.2196
  767POPS   C1A11695   5.837  11.456   6.286 -0.1032 -0.0381 -0.2793
  767POPS   D2A11696   6.080  11.457   6.579  0.1424 -0.1519  0.3151
  767POPS   C3A11697   6.339  11.871   6.558 -0.1650 -0.1151  0.1220
  767POPS   C4A11698   6.419  12.239   6.865 -0.2924  0.2498  0.4663
  767POPS   C1B11699   5.422  11.689   6.365 -0.0247 -0.0115 -0.0858
  767POPS   C2B11700   5.200  11.429   6.641  0.0007 -0.0586 -0.1379
  767POPS   C3B11701   4.776  11.434   6.910 -0.1289 -0.0553  0.1043
  767POPS   C4B11702   4.488  11.473   7.271 -0.3206 -0.0657  0.0423
  768POPS   CNO11703   0.706  15.490   4.734 -0.3092  0.2914  0.1886
  768POPS   PO411704   0.558  15.453   5.204 -0.2479  0.3271 -0.1021
  768POPS   GL111705   0.453  15.482   5.622  0.0154 -0.1551  0.0975
  768POPS   GL211706   0.258  15.342   5.832 -0.1628 -0.0728  0.1510
  768POPS   C1A11707   0.398  15.806   5.972  0.2533  0.0677 -0.0429
  768POPS   D2A11708   0.263  15.657   6.349  0.2939  0.1002  0.0842
  768POPS   C3A11709   0.098  16.021   6.571 -0.1126  0.1723  0.3404
  768POPS   C4A11710   0.304  16.280   6.873  0.2358  0.0605 -0.0372
  768POPS   C1B11711   0.251  15.101   6.218  0.0364  0.0675 -0.3665
  768POPS   C2B11712   0.406  15.313   6.745  0.2281 -0.1499 -0.4446
  768POPS   C3B11713   0.451  15.743   6.894 -0.0756  0.0594  0.0372
  768POPS   C4B11714   0.720  16.056   7.104  0.0393  0.0143 -0.1670
  769POPS   CNO11715   2.736  12.531   4.958 -0.3720  0.0390  0.2011
  769POPS   PO411716   3.023  12.223   5.313  0.2452  0.0399 -0.2263
  769POPS   GL111717   3.077  12.269   5.719 -0.1817 -0.1272  0.2241
  769POPS   GL211718   3.403  12.449   5.759 -0.1708  0.0912 -0.0337
  769POPS   C1A11719   3.208  12.429   6.230  0.2388 -0.1196 -0.1520
  769POPS   D2A11720   3.143  12.340   6.669 -0.1601  0.1625  0.1754
  769POPS   C3A11721   3.432  12.360   6.924 -0.2043  0.2263 -0.0858
  769POPS   C4A11722   3.831  12.481   7.206 -0.0665  0.0350  0.0445
  769POPS   C1B11723   3.679  12.465   6.097  0.1810  0.1651 -0.4924
  769POPS   C2B11724   3.675  12.432   6.448  0.2353  0.1257 -0.0746
  769POPS   C3B11725   3.866  12.747   6.784  0.1164 -0.3066  0.0428
  769POPS   C4B11726   3.719  12.971   7.075  0.1284  0.1439 -0.1687
  770POPS   CNO11727  18.524   4.315   5.033  0.0155  0.0602 -0.2328
  770POPS   PO411728  18.562   4.592   5.396 -0.2523  0.0301  0.0829
  770POPS   GL111729  18.150   4.556   5.754 -0.0221  0.1403  0.0848
  770POPS   GL211730  17.979   4.234   5.772  0.2525 -0.0007  0.0980
  770POPS   C1A11731  18.024   4.713   6.182 -0.0937  0.0422 -0.1667
  770POPS   D2A11732  17.810   4.823   6.494  0.0929  0.2533 -0.0223
  770POPS   C3A11733  18.037   5.184   6.831  0.0366 -0.2497  0.0434
  770POPS   C4A11734  18.130   5.596   6.841  0.0218 -0.1329  0.0319
  770POPS   C1B11735  18.117   4.195   6.160 -0.1098  0.0640 -0.2016
  770POPS   C2B11736  18.259   4.015   6.451  0.1769 -0.1544 -0.1115
  770POPS   C3B11737  18.499   3.948   6.794  0.0589 -0.0961 -0.0454
  770POPS   C4B11738  18.756   4.122   7.127  0.2775 -0.0070  0.0997
  771POPS   CNO11739   1.550  14.620   5.418 -0.3398  0.2271 -0.0106
  771POPS   PO411740   1.263  15.008   5.436 -0.1164 -0.0795 -0.0698
  771POPS   GL111741   1.176  15.036   5.813  0.2446 -0.1768 -0.1830
  771POPS   GL211742   0.962  15.379   5.881  0.0332 -0.0479 -0.0167
  771POPS   C1A11743   1.235  14.894   6.237 -0.0151 -0.0992  0.4247
  771POPS   D2A11744   1.507  14.828   6.576  0.3160  0.1227 -0.3147
  771POPS   C3A11745   1.840  15.212   6.682 -0.1910  0.0865 -0.5688
  771POPS   C4A11746   2.080  15.503   6.869  0.1137 -0.0753 -0.4699
  771POPS   C1B11747   0.768  15.432   6.382  0.0422  0.0973  0.1338
  771POPS   C2B11748   0.832  15.454   6.828 -0.0534 -0.2969 -0.0383
  771POPS   C3B11749   1.067  15.580   7.076  0.0889 -0.1158  0.2720
  771POPS   C4B11750   1.118  15.159   7.408 -0.0751  0.1963  0.1997
  772POPS   CNO11751   7.706  18.101   5.554 -0.1807 -0.3140  0.1266
  772POPS   PO411752   7.973  17.857   5.830  0.0419 -0.2424  0.2664
  772POPS   GL111753   7.994  18.116   6.203  0.2449  0.1167 -0.2713
  772POPS   GL211754   8.240  18.336   6.259  0.2343  0.0074  0.3165
  772POPS   C1A11755   7.941  18.165   6.629  0.1798 -0.1071 -0.2754
  772POPS   D2A11756   7.686  18.244   6.974 -0.1285  0.0131 -0.5199
  772POPS   C3A11757   7.819  18.342   7.404 -0.3740  0.2217 -0.2313
  772POPS   C4A11758   7.902  18.615   7.740  0.2160 -0.1428 -0.0198
  772POPS   C1B11759   8.390  17.941   6.478  0.3627  0.2903 -0.2426
  772POPS   C2B11760   8.334  17.623   6.824 -0.2173 -0.3922 -0.1908
  772POPS   C3B11761   8.287  17.611   7.296 -0.0808  0.1189  0.0430
  772POPS   C4B11762   8.489  17.367   7.563 -0.1038 -0.1021  0.1131
  773POPS   CNO11763  14.563   0.101   4.874  0.1050 -0.0400  0.0288
  773POPS   PO411764  14.286   0.183   5.188 -0.2600 -0.2432  0.0535
  773POPS   GL111765  14.353   0.165   5.625  0.1885  0.2643  0.1373
  773POPS   GL211766  14.696   0.279   5.733 -0.2538  0.1907  0.0363
  773POPS   C1A11767  14.391   0.270   6.101 -0.0079  0.1536 -0.0078
  773POPS   D2A11768  14.180   0.677   6.279 -0.2146  0.2477  0.0140
  773POPS   C3A11769  14.322   0.805   6.753  0.0375 -0.4246 -0.5439
  773POPS   C4A11770  14.187   0.946   7.253 -0.0232 -0.1859 -0.1489
  773POPS   C1B11771  14.935   0.226   6.094  0.0604 -0.0449 -0.0260
  773POPS   C2B11772  14.843   0.206   6.471 -0.1902  0.1877  0.0876
  773POPS   C3B11773  15.044   0.248   6.900  0.1787  0.0986  0.0706
  773POPS   C4B11774  14.938   0.368   7.280  0.1819  0.1122 -0.0229
  774POPS   CNO11775   5.380  16.372   5.472  0.1430 -0.1228  0.3231
  774POPS   PO411776   5.591  16.488   5.887 -0.3360 -0.0515 -0.1158
  774POPS   GL111777   5.349  16.439   6.257  0.2077 -0.2149 -0.3171
  774POPS   GL211778   5.064  16.276   6.366  0.0389  0.1919  0.0195
  774POPS   C1A11779   5.578  16.417   6.534 -0.2831  0.0640  0.0081
  774POPS   D2A11780   6.030  16.458   6.834 -0.1840 -0.1082  0.2707
  774POPS   C3A11781   6.432  16.382   6.823  0.0616  0.0063 -0.3582
  774POPS   C4A11782   6.707  15.966   6.972  0.0409  0.0502  0.0494
  774POPS   C1B11783   5.242  16.089   6.695 -0.2534 -0.0326  0.2028
  774POPS   C2B11784   5.256  15.815   7.030  0.0983 -0.3250 -0.1053
  774POPS   C3B11785   5.526  15.732   7.192 -0.0841 -0.1006 -0.1668
  774POPS   C4B11786   5.508  15.999   7.529  0.0199 -0.1715  0.0445
  775POPS   CNO11787   8.472  14.849   5.272  0.2915  0.0154 -0.2645
  775POPS   PO411788   8.424  15.244   5.544 -0.2916 -0.0374 -0.1221
  775POPS   GL111789   8.586  15.357   5.905 -0.3173  0.5364  0.0255
  775POPS   GL211790   8.826  15.029   6.191 -0.0207  0.0573  0.0088
  775POPS   C1A11791   8.426  15.301   6.304 -0.2081 -0.2307  0.0672
  775POPS   D2A11792   8.082  15.428   6.624 -0.0148 -0.0176  0.3545
  775POPS   C3A11793   7.699  15.201   6.772 -0.0270  0.0321 -0.2032
  775POPS   C4A11794   7.379  14.945   7.186  0.2989 -0.0496 -0.1105
  775POPS   C1B11795   8.788  15.091   6.623  0.0532 -0.2265  0.1406
  775POPS   C2B11796   9.024  14.972   7.058  0.1637 -0.1528 -0.3117
  775POPS   C3B11797   9.500  15.081   7.319  0.0006  0.2407 -0.0207
  775POPS   C4B11798   9.806  15.024   7.626 -0.2996 -0.0676 -0.0146
  776POPS   CNO11799  10.369  14.628   5.347 -0.1778  0.3620  0.2034
  776POPS   PO411800  10.276  14.987   5.544  0.1071  0.0138 -0.1994
  776POPS   GL111801  10.307  15.099   5.920 -0.2744  0.0952  0.0877
  776POPS   GL211802  10.547  15.171   6.158 -0.0872  0.0929 -0.5446
  776POPS   C1A11803  10.043  14.903   6.162 -0.0768  0.2310  0.0591
  776POPS   D2A11804  10.040  14.755   6.590 -0.3235 -0.1993 -0.0906
  776POPS   C3A11805  10.427  14.771   6.771  0.1013  0.1640  0.2527
  776POPS   C4A11806  10.785  15.004   6.863 -0.4027  0.0721 -0.1940
  776POPS   C1B11807  10.573  14.798   6.272  0.3326  0.0908 -0.0182
  776POPS   C2B11808  10.432  14.389   6.438  0.2598 -0.3101 -0.3246
  776POPS   C3B11809  10.489  14.269   6.949  0.1025 -0.1251 -0.3095
  776POPS   C4B11810  10.827  14.055   7.158  0.2668 -0.4335  0.0874
  777POPS   CNO11811   5.107   4.718   5.317  0.0954 -0.0226 -0.1624
  777POPS   PO411812   4.902   4.998   5.562 -0.3429 -0.1225 -0.0795
  777POPS   GL111813   4.668   5.148   5.907 -0.2041 -0.1746 -0.0540
  777POPS   GL211814   4.581   4.855   6.037 -0.0295 -0.0797 -0.2585
  777POPS   C1A11815   4.435   5.315   6.243  0.1344  0.0497  0.0005
  777POPS   D2A11816   4.419   5.497   6.605  0.2064  0.0073 -0.1425
  777POPS   C3A11817   4.195   5.344   6.864  0.4428  0.1541 -0.1208
  777POPS   C4A11818   4.132   5.279   7.334 -0.1400 -0.3221 -0.3343
  777POPS   C1B11819   4.603   4.525   6.364 -0.1806  0.0898  0.0305
  777POPS   C2B11820   4.424   4.282   6.653  0.0836 -0.3936 -0.1141
  777POPS   C3B11821   4.377   4.386   7.049 -0.2141 -0.2283  0.2093
  777POPS   C4B11822   4.424   4.837   7.152 -0.1792  0.0406  0.0862
  778POPS   CNO11823   8.158   9.487   5.786 -0.0162  0.1221 -0.0266
  778POPS   PO411824   8.442   9.841   6.029 -0.3146  0.0224 -0.0850
  778POPS   GL111825   8.229   9.875   6.405  0.0975 -0.1948 -0.0301
  778POPS   GL211826   7.999   9.634   6.367  0.2073 -0.2152  0.2783
  778POPS   C1A11827   8.173  10.160   6.698 -0.0555 -0.0605 -0.0584
  778POPS   D2A11828   7.878  10.092   7.033 -0.1138  0.0312  0.1893
  778POPS   C3A11829   8.229  10.249   7.389 -0.0102 -0.0694  0.2985
  778POPS   C4A11830   8.558  10.150   7.682  0.0054  0.0559 -0.0575
  778POPS   C1B11831   8.048   9.249   6.562  0.3033  0.3145 -0.1503
  778POPS   C2B11832   8.281   9.047   6.976  0.4202  0.0979 -0.1959
  778POPS   C3B11833   8.447   9.145   7.360 -0.2408  0.2435 -0.1182
  778POPS   C4B11834   8.692   8.950   7.731  0.1502  0.1087  0.2032
  779POPS   CNO11835  13.959  18.679   5.073  0.0238  0.1800  0.0611
  779POPS   PO411836  13.956  18.258   5.300  0.1128 -0.0232  0.2486
  779POPS   GL111837  13.918  18.318   5.753  0.5121 -0.1062  0.1618
  779POPS   GL211838  13.626  18.168   5.938 -0.0197 -0.2021  0.2502
  779POPS   C1A11839  14.127  18.625   6.034  0.2367  0.0198 -0.0016
  779POPS   D2A11840  14.009  18.952   6.384 -0.0145  0.0330  0.1445
  779POPS   C3A11841  14.351  19.096   6.675  0.2551  0.0133 -0.1774
  779POPS   C4A11842  14.579  19.267   6.888 -0.2226  0.0665 -0.0669
  779POPS   C1B11843  13.377  18.336   6.391  0.1456  0.1021 -0.0727
  779POPS   C2B11844  13.166  18.685   6.737  0.1647 -0.0305  0.1512
  779POPS   C3B11845  12.914  18.908   6.992 -0.1535  0.3861 -0.2169
  779POPS   C4B11846  12.926  19.404   7.098  0.1419 -0.0998 -0.1265
  780POPS   CNO11847   2.651  18.549   5.671  0.0301 -0.0128 -0.0611
  780POPS   PO411848   2.334  19.008   5.557 -0.0798  0.1391 -0.0260
  780POPS   GL111849   1.918  18.949   5.882 -0.1622 -0.0268  0.0423
  780POPS   GL211850   2.044  18.775   6.174  0.3609 -0.1224  0.0161
  780POPS   C1A11851   1.513  18.851   6.100 -0.1425  0.3061 -0.2048
  780POPS   D2A11852   1.018  18.641   6.113  0.0987 -0.1821  0.1846
  780POPS   C3A11853   0.846  18.487   6.384 -0.1486  0.0915  0.1513
  780POPS   C4A11854   0.932  18.422   6.764  0.0786 -0.0718  0.1436
  780POPS   C1B11855   1.952  18.683   6.563  0.1621  0.2231  0.1850
  780POPS   C2B11856   2.142  18.540   6.968  0.0384  0.1911 -0.0651
  780POPS   C3B11857   2.401  18.745   7.245 -0.0136  0.0591  0.1790
  780POPS   C4B11858   2.510  18.699   7.693 -0.1103 -0.1487  0.0759
  781POPS   CNO11859  10.990   2.265   5.744 -0.4410 -0.1500  0.6485
  781POPS   PO411860  10.628   2.379   5.864 -0.0537  0.0014 -0.0194
  781POPS   GL111861  10.624   2.400   6.281  0.3106  0.0211 -0.4973
  781POPS   GL211862  10.358   2.425   6.245  0.6841 -0.1517 -0.2648
  781POPS   C1A11863  10.662   2.154   6.645 -0.1795  0.0737 -0.0527
  781POPS   D2A11864  11.123   1.922   6.888 -0.2629  0.0446 -0.0495
  781POPS   C3A11865  11.146   1.794   7.390  0.0497  0.0347  0.0080
  781POPS   C4A11866  10.971   1.870   7.797  0.1490 -0.1107  0.0386
  781POPS   C1B11867  10.230   2.389   6.657 -0.0933  0.2342  0.1788
  781POPS   C2B11868  10.046   2.365   7.077  0.1788 -0.0123 -0.2842
  781POPS   C3B11869  10.235   2.473   7.488  0.0612 -0.0601  0.0245
  781POPS   C4B11870  10.439   2.622   7.892  0.1802  0.2771 -0.0940
  782POPS   CNO11871   1.658   5.798   5.563  0.0809 -0.2185 -0.0038
  782POPS   PO411872   2.040   5.832   5.494  0.0488  0.3301 -0.1210
  782POPS   GL111873   2.072   6.017   5.780 -0.0480 -0.2859 -0.0190
  782POPS   GL211874   1.795   6.123   6.029  0.1773 -0.3117  0.2383
  782POPS   C1A11875   2.270   5.778   6.253 -0.2134  0.4201 -0.0100
  782POPS   D2A11876   2.039   5.862   6.731  0.1783 -0.3326 -0.2193
  782POPS   C3A11877   2.260   5.696   7.029 -0.0951  0.0621  0.0562
  782POPS   C4A11878   2.637   5.703   7.339 -0.2652  0.2250 -0.0103
  782POPS   C1B11879   2.078   6.226   6.436  0.0418  0.2206  0.0286
  782POPS   C2B11880   2.316   6.462   6.747 -0.2238 -0.2614 -0.0976
  782POPS   C3B11881   2.220   6.648   7.089  0.1375  0.0115  0.0239
  782POPS   C4B11882   1.990   6.541   7.423 -0.2642  0.0371 -0.2889
  783POPS   CNO11883   9.265  18.431   5.711 -0.3217 -0.0202  0.2371
  783POPS   PO411884   9.061  18.077   5.837  0.2512 -0.1049  0.3431
  783POPS   GL111885   9.277  18.235   6.193  0.1075  0.1474 -0.2072
  783POPS   GL211886   9.355  18.473   6.196  0.0481 -0.1317 -0.3262
  783POPS   C1A11887   9.667  18.355   6.557 -0.1489 -0.1102 -0.3558
  783POPS   D2A11888   9.890  18.599   6.922 -0.0541  0.0470  0.1991
  783POPS   C3A11889   9.903  18.641   7.426  0.1001 -0.2407  0.0204
  783POPS   C4A11890   9.655  18.641   7.901 -0.1968  0.2310  0.0373
  783POPS   C1B11891   9.220  18.432   6.673  0.2337  0.3759  0.3042
  783POPS   C2B11892   9.364  18.567   7.053 -0.2306  0.2339 -0.2526
  783POPS   C3B11893   9.228  18.585   7.441 -0.0996  0.1249  0.0557
  783POPS   C4B11894   9.116  18.794   7.882  0.1383  0.1046 -0.2993
  784POPS   CNO11895  16.641   4.891   4.772 -0.3356 -0.0134 -0.1915
  784POPS   PO411896  16.778   4.867   5.151  0.3059  0.3955  0.2393
  784POPS   GL111897  16.537   4.725   5.469  0.0183 -0.3571  0.0587
  784POPS   GL211898  16.336   4.862   5.707  0.0400 -0.0753  0.0932
  784POPS   C1A11899  16.566   4.357   5.808  0.2814  0.0871  0.1171
  784POPS   D2A11900  16.509   4.304   6.288  0.0002  0.1417  0.0622
  784POPS   C3A11901  16.716   4.710   6.615 -0.0958  0.0203  0.0865
  784POPS   C4A11902  16.707   5.105   6.782  0.0407 -0.1770  0.1014
  784POPS   C1B11903  16.627   5.214   5.945 -0.2518 -0.3131 -0.0040
  784POPS   C2B11904  16.715   5.296   6.291 -0.0022  0.2646  0.0612
  784POPS   C3B11905  17.028   5.126   6.339 -0.0608 -0.0880 -0.3284
  784POPS   C4B11906  17.264   4.797   6.532  0.0967 -0.1440 -0.4220
  785POPS   CNO11907  16.154  13.942   5.627 -0.0265  0.0189 -0.0153
  785POPS   PO411908  15.984  14.329   5.588 -0.1054 -0.0017 -0.3038
  785POPS   GL111909  16.149  14.528   5.874 -0.0270  0.0125 -0.4356
  785POPS   GL211910  15.954  14.850   5.907  0.3247  0.0926  0.1075
  785POPS   C1A11911  16.292  14.716   6.278  0.0563 -0.0722  0.0533
  785POPS   D2A11912  16.166  14.653   6.787  0.0677 -0.2470  0.0191
  785POPS   C3A11913  15.806  14.878   7.026 -0.0209  0.1111  0.3263
  785POPS   C4A11914  15.623  15.254   6.811 -0.3530  0.1529 -0.0049
  785POPS   C1B11915  16.200  15.214   6.086  0.0209 -0.1674  0.0265
  785POPS   C2B11916  16.282  15.619   6.361 -0.0143 -0.4560 -0.2577
  785POPS   C3B11917  16.258  15.976   6.476  0.1756  0.0674 -0.0038
  785POPS   C4B11918  16.349  16.378   6.665  0.3273  0.2766  0.1594
  786POPS   CNO11919  11.759   3.342   5.563 -0.1007 -0.0909  0.0616
  786POPS   PO411920  11.573   3.564   5.852 -0.1303 -0.0660  0.3397
  786POPS   GL111921  11.741   3.511   6.331 -0.1465  0.1266 -0.1094
  786POPS   GL211922  11.836   3.791   6.440 -0.0446  0.1084 -0.1817
  786POPS   C1A11923  12.040   3.319   6.506 -0.1571  0.2713 -0.0454
  786POPS   D2A11924  12.381   3.229   6.645  0.1703  0.3542 -0.0200
  786POPS   C3A11925  12.624   3.314   6.932  0.0675  0.0305 -0.0992
  786POPS   C4A11926  12.969   3.618   7.105 -0.0902 -0.0578  0.2110
  786POPS   C1B11927  12.138   3.804   6.741  0.0677  0.0115  0.0125
  786POPS   C2B11928  12.387   3.654   7.198  0.0654  0.0038  0.1062
  786POPS   C3B11929  12.714   3.512   7.508 -0.0185  0.1031  0.0938
  786POPS   C4B11930  12.747   3.107   7.815 -0.1440 -0.0071 -0.2590
  787POPS   CNO11931  15.506   7.190   5.492  0.0240  0.4023 -0.0867
  787POPS   PO411932  15.516   6.670   5.428  0.0129  0.4128 -0.0506
  787POPS   GL111933  15.649   6.591   5.744  0.0418  0.3164 -0.2029
  787POPS   GL211934  15.667   6.924   5.963  0.0264  0.0602  0.1269
  787POPS   C1A11935  15.378   6.581   6.054  0.2557 -0.0911 -0.2110
  787POPS   D2A11936  15.095   6.786   6.306  0.1119 -0.2869 -0.1514
  787POPS   C3A11937  15.111   6.774   6.738 -0.2364 -0.1147 -0.0627
  787POPS   C4A11938  15.049   6.965   7.216 -0.3559  0.1233 -0.2921
  787POPS   C1B11939  15.529   7.157   6.282  0.0725 -0.0349  0.3845
  787POPS   C2B11940  15.536   7.444   6.514 -0.1737  0.0443 -0.2812
  787POPS   C3B11941  15.740   7.498   7.043  0.0871  0.1411 -0.2522
  787POPS   C4B11942  15.673   7.752   7.320 -0.1955  0.2748  0.1764
  788POPS   CNO11943   5.112  13.738   5.547  0.0190 -0.1650 -0.1930
  788POPS   PO411944   5.551  13.632   5.534 -0.1211  0.1093 -0.2821
  788POPS   GL111945   5.721  13.325   5.810 -0.0374  0.1112 -0.0620
  788POPS   GL211946   5.877  12.986   5.740 -0.1660 -0.3822  0.1325
  788POPS   C1A11947   5.616  13.221   6.262  0.2536  0.1164  0.0675
  788POPS   D2A11948   5.485  13.126   6.699  0.2189  0.2611 -0.2034
  788POPS   C3A11949   5.189  13.158   6.886 -0.1693  0.3909  0.0654
  788POPS   C4A11950   5.116  13.193   7.299 -0.1439 -0.0981  0.0054
  788POPS   C1B11951   6.114  13.332   6.068 -0.1432  0.0957 -0.0111
  788POPS   C2B11952   6.368  13.242   6.385 -0.2116 -0.1896 -0.4269
  788POPS   C3B11953   6.534  13.158   6.791  0.0413 -0.0922 -0.2613
  788POPS   C4B11954   6.566  13.133   7.207  0.0695 -0.0064  0.0567
  789POPS   CNO11955   0.383  18.339   5.224 -0.0558  0.1449 -0.2336
  789POPS   PO411956   0.799  18.478   5.274  0.2432 -0.1353  0.0509
  789POPS   GL111957   0.558  18.485   5.699 -0.0065  0.0678 -0.0090
  789POPS   GL211958   0.560  18.835   5.821 -0.0071 -0.0465  0.3157
  789POPS   C1A11959   0.358  18.489   6.154 -0.0569  0.0706 -0.1090
  789POPS   D2A11960   0.410  18.585   6.586  0.0861 -0.0410 -0.0531
  789POPS   C3A11961   0.402  18.900   6.739  0.0337  0.0169  0.0339
  789POPS   C4A11962   0.410  19.300   7.016  0.1269 -0.1209  0.1318
  789POPS   C1B11963   0.606  19.040   6.216  0.0273  0.0545  0.1119
  789POPS   C2B11964   0.927  19.004   6.598 -0.1290 -0.0586  0.0344
  789POPS   C3B11965   1.387  19.152   6.680 -0.0051 -0.0236  0.2364
  789POPS   C4B11966   1.671  18.917   6.929  0.1393 -0.2227  0.3595
  790POPS   CNO11967  13.191  14.860   5.534 -0.0076 -0.0008  0.0309
  790POPS   PO411968  12.953  14.720   5.918 -0.3355 -0.0780  0.2278
  790POPS   GL111969  12.905  14.952   6.270 -0.1893  0.1091  0.2572
  790POPS   GL211970  13.131  15.149   6.303  0.3180 -0.2131  0.1646
  790POPS   C1A11971  12.667  15.018   6.578 -0.0034  0.1104  0.3345
  790POPS   D2A11972  12.520  15.412   6.661 -0.2869 -0.0558  0.0958
  790POPS   C3A11973  12.642  15.577   7.084 -0.0609  0.0975  0.0240
  790POPS   C4A11974  12.834  15.738   7.462  0.3428 -0.1911 -0.0407
  790POPS   C1B11975  13.053  15.265   6.774 -0.1539  0.2431 -0.1539
  790POPS   C2B11976  13.021  15.128   7.242  0.1581  0.0456 -0.0264
  790POPS   C3B11977  12.678  15.266   7.622  0.5203 -0.2535  0.0021
  790POPS   C4B11978  12.303  15.442   7.772 -0.1531  0.0321 -0.0551
  791POPS   CNO11979  16.252  10.312   4.960 -0.3613 -0.2090 -0.1191
  791POPS   PO411980  16.478  10.400   5.392 -0.3615  0.0542 -0.1354
  791POPS   GL111981  16.396  10.474   5.763  0.1638  0.0794 -0.0394
  791POPS   GL211982  16.103  10.400   5.768 -0.5203  0.3556 -0.0757
  791POPS   C1A11983  16.334  10.623   6.261  0.1029  0.1746  0.0346
  791POPS   D2A11984  16.316  10.436   6.705  0.2963 -0.4058 -0.0320
  791POPS   C3A11985  16.251  10.787   7.128 -0.5541 -0.0375 -0.1792
  791POPS   C4A11986  16.088  11.209   7.224 -0.1668 -0.0842  0.2870
  791POPS   C1B11987  15.893  10.422   6.110  0.0430  0.1799 -0.1916
  791POPS   C2B11988  15.819  10.608   6.627 -0.2917  0.1395  0.3665
  791POPS   C3B11989  15.769  10.369   7.004 -0.0782 -0.1382 -0.2157
  791POPS   C4B11990  16.218  10.248   7.125  0.0465 -0.0928 -0.1765
  792POPS   CNO11991   9.491   0.145   5.688  0.0112 -0.1286  0.3165
  792POPS   PO411992   9.150   0.215   6.029  0.2169 -0.0966 -0.0915
  792POPS   GL111993   9.441   0.520   6.158  0.2772  0.0907 -0.1074
  792POPS   GL211994   9.769   0.310   6.073  0.0393 -0.2140  0.0075
  792POPS   C1A11995   9.829   0.761   6.293  0.1503  0.1541  0.0211
  792POPS   D2A11996  10.084   0.875   6.633 -0.1585 -0.2750  0.1899
  792POPS   C3A11997  10.016   0.740   7.026 -0.0497  0.2546 -0.1139
  792POPS   C4A11998  10.221   0.714   7.398 -0.0424 -0.0568 -0.1235
  792POPS   C1B11999  10.015   0.325   6.474  0.1223  0.3299  0.0897
  792POPS   C2B12000  10.220   0.227   6.854  0.0371  0.3233 -0.0421
  792POPS   C3B12001  10.221   0.152   7.298 -0.2092  0.1663 -0.1272
  792POPS   C4B12002  10.504  -0.092   7.586 -0.3229  0.1740 -0.1489
  793POPS   CNO12003   3.885  18.116   5.445  0.2554 -0.0600 -0.0697
  793POPS   PO412004   3.717  17.903   5.811 -0.0089  0.3593 -0.1644
  793POPS   GL112005   3.706  18.061   6.165 -0.0769  0.0744 -0.2219
  793POPS   GL212006   3.524  18.346   6.200  0.0558  0.1772  0.1553
  793POPS   C1A12007   3.723  18.058   6.624 -0.1212  0.0753 -0.0409
  793POPS   D2A12008   3.660  18.193   7.020 -0.0947  0.0261  0.2135
  793POPS   C3A12009   3.375  18.412   6.953  0.1810  0.0097  0.0249
  793POPS   C4A12010   3.071  18.187   6.696 -0.0471  0.2394  0.3245
  793POPS   C1B12011   3.530  18.598   6.519  0.1424  0.0705 -0.2744
  793POPS   C2B12012   3.618  18.990   6.777  0.0203 -0.1295 -0.0900
  793POPS   C3B12013   3.727  19.232   7.111  0.1287  0.4347  0.0903
  793POPS   C4B12014   4.114  19.493   7.222 -0.0716  0.1860  0.0901
  794POPS   CNO12015  17.949  10.685   4.847 -0.0545  0.1673  0.1217
  794POPS   PO412016  17.999  10.756   5.279  0.0654 -0.1009 -0.2879
  794POPS   GL112017  18.064  11.010   5.653  0.1659 -0.1306 -0.4337
  794POPS   GL212018  18.281  11.322   5.673 -0.1133  0.3368  0.3493
  794POPS   C1A12019  18.356  10.922   6.015 -0.0184  0.0148  0.0714
  794POPS   D2A12020  18.458  11.108   6.362 -0.0248 -0.0037  0.1172
  794POPS   C3A12021  18.795  10.970   6.578  0.2846  0.2117  0.1707
  794POPS   C4A12022  19.256  10.964   6.704 -0.1115  0.1471 -0.1513
  794POPS   C1B12023  18.533  11.421   6.015 -0.2718  0.1571 -0.4140
  794POPS   C2B12024  18.798  11.479   6.385  0.0450 -0.2087  0.0672
  794POPS   C3B12025  19.018  11.612   6.712 -0.0720 -0.1312 -0.3876
  794POPS   C4B12026  19.255  11.515   7.055 -0.0717  0.2456  0.0788
  795POPS   CNO12027  14.261  15.233   4.875 -0.1929  0.0085 -0.2079
  795POPS   PO412028  14.457  15.539   5.129  0.3414 -0.0282 -0.0582
  795POPS   GL112029  14.648  15.705   5.350  0.4438 -0.1032 -0.1439
  795POPS   GL212030  14.920  15.540   5.484 -0.0988  0.1094 -0.1588
  795POPS   C1A12031  14.699  15.934   5.728  0.2271  0.1554  0.1073
  795POPS   D2A12032  14.418  16.081   5.969  0.1659 -0.1589 -0.1209
  795POPS   C3A12033  14.368  16.480   6.125  0.1726  0.0424 -0.0542
  795POPS   C4A12034  14.444  16.876   6.458 -0.0384 -0.4137 -0.1521
  795POPS   C1B12035  15.104  15.579   5.926 -0.1521  0.2274 -0.0066
  795POPS   C2B12036  15.161  15.900   6.160  0.2333 -0.0300 -0.1882
  795POPS   C3B12037  15.413  16.089   6.426  0.1228  0.1818 -0.2697
  795POPS   C4B12038  15.826  16.225   6.709  0.0711  0.0965  0.3681
  796POPS   CNO12039  11.576   8.539   5.931  0.0522 -0.1235  0.0718
  796POPS   PO412040  11.262   8.515   6.070 -0.0102 -0.1747 -0.1845
  796POPS   GL112041  11.193   8.583   6.477  0.0989 -0.2070 -0.4634
  796POPS   GL212042  11.280   8.255   6.650 -0.0650 -0.2896  0.0286
  796POPS   C1A12043  10.923   8.795   6.851 -0.2222  0.3906 -0.2292
  796POPS   D2A12044  11.077   9.058   7.149 -0.0078  0.1675 -0.2875
  796POPS   C3A12045  11.057   8.810   7.493 -0.0197 -0.6177  0.2126
  796POPS   C4A12046  11.208   8.673   7.836  0.2767 -0.0733 -0.0256
  796POPS   C1B12047  10.902   8.022   6.947 -0.2394  0.0826  0.1250
  796POPS   C2B12048  10.877   8.001   7.446 -0.3921  0.1608  0.1441
  796POPS   C3B12049  11.007   7.806   7.807 -0.1249  0.4242  0.1903
  796POPS   C4B12050  11.431   7.717   7.826 -0.0337 -0.0499 -0.1280
  797POPS   CNO12051  15.978   0.656   5.136  0.0213 -0.3537  0.0077
  797POPS   PO412052  15.583   0.822   5.239 -0.0289  0.2234 -0.1101
  797POPS   GL112053  15.478   0.555   5.620 -0.1444 -0.1591  0.4659
  797POPS   GL212054  15.180   0.436   5.744 -0.2862  0.4559 -0.1737
  797POPS   C1A12055  15.853   0.555   5.920 -0.2928 -0.0750  0.2388
  797POPS   D2A12056  16.202   0.682   6.121  0.1974  0.1254 -0.3760
  797POPS   C3A12057  16.136   0.981   6.439  0.2611  0.2019 -0.1617
  797POPS   C4A12058  15.886   0.794   6.686  0.3229 -0.0269 -0.0101
  797POPS   C1B12059  15.484   0.185   6.104 -0.1692  0.1301  0.1656
  797POPS   C2B12060  15.859   0.323   6.319 -0.0629 -0.2808 -0.2817
  797POPS   C3B12061  16.184   0.342   6.536  0.0337 -0.1105 -0.1593
  797POPS   C4B12062  16.345   0.021   6.690 -0.2211  0.1463  0.4235
  798POPS   CNO12063   1.727  10.661   4.987 -0.0650  0.1764  0.1139
  798POPS   PO412064   1.524  10.489   5.425 -0.3259 -0.1673 -0.1893
  798POPS   GL112065   1.261  10.384   5.717 -0.2466 -0.0219 -0.1152
  798POPS   GL212066   1.313  10.612   5.832 -0.0494 -0.3462 -0.2307
  798POPS   C1A12067   0.948  10.496   6.110 -0.2119  0.2307  0.1862
  798POPS   D2A12068   0.648  10.146   6.134 -0.0510 -0.0354  0.2918
  798POPS   C3A12069   0.327   9.947   6.482  0.1656 -0.0086 -0.1830
  798POPS   C4A12070  -0.029  10.018   6.648 -0.0036 -0.0423  0.2545
  798POPS   C1B12071   1.393  10.930   5.978 -0.0373  0.1678  0.0409
  798POPS   C2B12072   1.492  11.070   6.377  0.1749  0.1223  0.0997
  798POPS   C3B12073   1.355  11.310   6.783 -0.1825  0.0639  0.1932
  798POPS   C4B12074   1.189  11.355   7.203  0.1349  0.3327  0.2605
  799POPS   CNO12075  10.872  12.886   5.744 -0.0366  0.0260 -0.1498
  799POPS   PO412076  10.542  12.964   5.982  0.1774 -0.2412 -0.3094
  799POPS   GL112077  10.430  13.086   6.398 -0.3008 -0.1154  0.0668
  799POPS   GL212078  10.217  12.963   6.487  0.1884  0.3314 -0.0984
  799POPS   C1A12079  10.169  13.422   6.677  0.0867 -0.1754  0.0733
  799POPS   D2A12080  10.336  13.772   6.788  0.2328 -0.2618  0.1848
  799POPS   C3A12081  10.212  13.915   7.221  0.1451  0.0780  0.0053
  799POPS   C4A12082  10.243  14.347   7.432 -0.0466 -0.0483  0.1241
  799POPS   C1B12083  10.493  12.707   6.770 -0.4102 -0.2380  0.2423
  799POPS   C2B12084  10.780  12.804   7.105 -0.0846 -0.4654  0.1273
  799POPS   C3B12085  10.961  13.168   7.334 -0.0497 -0.3761  0.1668
  799POPS   C4B12086  11.233  13.407   7.175 -0.0122 -0.4123  0.1112
  800POPS   CNO12087   3.650   3.223   5.387 -0.0648 -0.0297 -0.0587
  800POPS   PO412088   3.600   2.989   5.854 -0.0985 -0.0502  0.1079
  800POPS   GL112089   3.336   2.956   6.262 -0.0105 -0.0577  0.2669
  800POPS   GL212090   3.114   2.667   6.431  0.0783  0.0319 -0.0654
  800POPS   C1A12091   3.183   3.127   6.565 -0.0091 -0.1079 -0.0072
  800POPS   D2A12092   3.146   3.421   6.836 -0.0158 -0.2065  0.3203
  800POPS   C3A12093   3.170   3.296   7.265  0.4555 -0.1521  0.1670
  800POPS   C4A12094   3.332   2.958   7.506  0.2754  0.0461 -0.0244
  800POPS   C1B12095   2.836   2.469   6.715  0.1409  0.0771 -0.1271
  800POPS   C2B12096   2.464   2.662   6.898 -0.1485 -0.1841 -0.0005
  800POPS   C3B12097   2.201   2.527   7.337  0.1256  0.0055  0.2564
  800POPS   C4B12098   1.968   2.219   7.548 -0.0646 -0.3304 -0.1711
  801POPS   CNO12099  12.635   5.381   5.263 -0.1482 -0.0680 -0.0295
  801POPS   PO412100  12.698   5.413   5.663  0.1532 -0.2638  0.1377
  801POPS   GL112101  12.749   5.701   6.025  0.2436  0.0486  0.2277
  801POPS   GL212102  12.932   5.901   6.027 -0.1033 -0.2934  0.2021
  801POPS   C1A12103  12.749   5.685   6.480 -0.1212  0.2527  0.1068
  801POPS   D2A12104  12.752   5.470   6.837 -0.1447 -0.1813  0.1557
  801POPS   C3A12105  12.939   5.491   7.202  0.2167  0.3971  0.2111
  801POPS   C4A12106  13.320   5.735   7.189 -0.3104  0.1614  0.0395
  801POPS   C1B12107  13.370   5.919   6.341  0.5013 -0.0319 -0.1041
  801POPS   C2B12108  13.599   6.270   6.534 -0.1980  0.0361 -0.3901
  801POPS   C3B12109  13.665   6.529   6.977 -0.1586  0.5409  0.3239
  801POPS   C4B12110  13.614   6.735   7.429 -0.2311 -0.1994  0.2313
  802POPS   CNO12111  11.261  15.674   5.447 -0.1808 -0.3085 -0.3075
  802POPS   PO412112  11.580  15.313   5.502 -0.0495 -0.3254  0.2983
  802POPS   GL112113  11.734  15.194   5.999 -0.2489  0.4373 -0.0085
  802POPS   GL212114  11.888  14.916   5.904 -0.0090 -0.0927 -0.1299
  802POPS   C1A12115  11.628  15.023   6.462 -0.2550  0.1147  0.1392
  802POPS   D2A12116  11.380  14.853   6.791  0.2633 -0.1704 -0.0151
  802POPS   C3A12117  11.226  14.918   7.209 -0.3943  0.0991 -0.0370
  802POPS   C4A12118  11.227  15.080   7.663 -0.0687 -0.0079  0.1776
  802POPS   C1B12119  11.972  14.749   6.232 -0.3622  0.2195 -0.2403
  802POPS   C2B12120  11.917  14.695   6.686  0.3423  0.1138  0.4999
  802POPS   C3B12121  11.742  14.694   7.091 -0.0913 -0.2661 -0.0624
  802POPS   C4B12122  11.669  14.841   7.467 -0.1689 -0.1395  0.1869
  803POPS   CNO12123   4.651   9.145   5.108 -0.2750 -0.4590 -0.0000
  803POPS   PO412124   4.571   9.081   5.471 -0.1999 -0.0014 -0.2455
  803POPS   GL112125   4.732   9.013   5.966  0.0311  0.1879  0.2872
  803POPS   GL212126   5.077   8.969   6.040  0.1728  0.1786 -0.2948
  803POPS   C1A12127   4.616   8.806   6.316 -0.0832 -0.1756  0.1550
  803POPS   D2A12128   4.617   8.591   6.759 -0.0669  0.1236  0.1440
  803POPS   C3A12129   4.799   8.944   7.070  0.3621 -0.0985  0.1960
  803POPS   C4A12130   4.932   9.071   7.542  0.0707  0.1452  0.1189
  803POPS   C1B12131   5.098   9.192   6.411 -0.3332 -0.4206 -0.2023
  803POPS   C2B12132   5.141   9.278   6.912 -0.2547  0.0905 -0.0157
  803POPS   C3B12133   4.856   9.461   7.176 -0.3069  0.2542  0.1551
  803POPS   C4B12134   4.889   9.572   7.546  0.3502  0.0614 -0.1526
  804POPS   CNO12135  16.046   8.201   4.917  0.0867 -0.0695 -0.2056
  804POPS   PO412136  15.799   8.155   5.210 -0.1916 -0.4201 -0.2280
  804POPS   GL112137  15.734   8.038   5.648 -0.1243  0.1677 -0.3091
  804POPS   GL212138  16.005   8.216   5.890 -0.0079  0.1255 -0.0685
  804POPS   C1A12139  15.495   8.267   5.958  0.0100  0.1573 -0.4165
  804POPS   D2A12140  15.211   8.338   6.304 -0.0688  0.0580 -0.0351
  804POPS   C3A12141  15.304   8.295   6.679 -0.1403  0.0843  0.1443
  804POPS   C4A12142  15.371   8.116   7.081 -0.3423 -0.1237 -0.0379
  804POPS   C1B12143  15.882   8.552   6.082  0.0796 -0.1834 -0.1818
  804POPS   C2B12144  15.571   8.750   6.252 -0.3015 -0.1555 -0.0342
  804POPS   C3B12145  15.539   9.127   6.601  0.3041 -0.2666 -0.1221
  804POPS   C4B12146  15.542   9.133   6.999 -0.0227  0.1896 -0.0491
  805POPS   CNO12147   7.112   0.226   5.305  0.0755 -0.1421 -0.0934
  805POPS   PO412148   7.081   0.156   5.671  0.0709  0.2085  0.2655
  805POPS   GL112149   7.025   0.161   6.137 -0.0004  0.1549 -0.3064
  805POPS   GL212150   6.900  -0.088   6.374  0.1029  0.2367 -0.3005
  805POPS   C1A12151   7.064   0.430   6.478  0.0217  0.2502 -0.3214
  805POPS   D2A12152   7.393   0.668   6.580 -0.2707  0.2027 -0.0023
  805POPS   C3A12153   7.513   1.071   6.446 -0.3554  0.2176 -0.2920
  805POPS   C4A12154   7.644   1.585   6.380  0.1598  0.3604  0.1742
  805POPS   C1B12155   6.595  -0.312   6.654 -0.0990  0.3022 -0.1322
  805POPS   C2B12156   6.424  -0.476   7.078  0.0457  0.0025 -0.0168
  805POPS   C3B12157   6.144  -0.729   7.387 -0.1245  0.3255  0.2850
  805POPS   C4B12158   5.741  -0.846   7.183 -0.1549 -0.2142  0.2514
  806POPS   CNO12159   1.152   7.659   5.356 -0.1222  0.1146 -0.1649
  806POPS   PO412160   1.043   7.888   5.619  0.1631  0.2589  0.4428
  806POPS   GL112161   1.133   7.652   5.860  0.3414 -0.3086  0.0282
  806POPS   GL212162   0.961   7.470   6.148  0.0180  0.2564 -0.2916
  806POPS   C1A12163   1.462   7.559   6.164 -0.2959 -0.1158  0.1208
  806POPS   D2A12164   1.671   7.635   6.565  0.3663 -0.1256  0.3685
  806POPS   C3A12165   2.021   7.887   6.709 -0.2703  0.0380 -0.0970
  806POPS   C4A12166   2.098   8.139   7.095  0.1117 -0.0447 -0.0449
  806POPS   C1B12167   0.736   7.620   6.593 -0.0271 -0.0806  0.0049
  806POPS   C2B12168   0.433   7.771   6.950 -0.2453  0.1381  0.1367
  806POPS   C3B12169   0.156   8.194   7.059  0.2391 -0.0833  0.1033
  806POPS   C4B12170  -0.181   8.452   7.183 -0.1117 -0.4362 -0.5435
  807POPS   CNO12171  11.772   2.581   5.652 -0.4119  0.1584  0.2145
  807POPS   PO412172  11.406   2.601   5.838 -0.4691  0.2244  0.2842
  807POPS   GL112173  11.492   2.583   6.163 -0.0356 -0.0638 -0.3127
  807POPS   GL212174  11.769   2.423   6.144 -0.1379  0.2716  0.0711
  807POPS   C1A12175  11.238   2.717   6.510 -0.0838  0.1530  0.1668
  807POPS   D2A12176  11.035   3.100   6.768  0.1050  0.1709  0.0690
  807POPS   C3A12177  11.093   3.193   7.229 -0.1702  0.1661 -0.1334
  807POPS   C4A12178  10.994   3.460   7.564 -0.2689 -0.3960  0.2226
  807POPS   C1B12179  11.695   2.502   6.625 -0.0288  0.1544 -0.3630
  807POPS   C2B12180  11.916   2.537   6.996  0.3360 -0.1356  0.1344
  807POPS   C3B12181  11.849   2.788   7.207  0.4122 -0.1275  0.0847
  807POPS   C4B12182  11.694   3.201   7.403  0.0255 -0.0484 -0.2083
  808POPS   CNO12183  15.893   4.585   4.482  0.1069  0.1356  0.1956
  808POPS   PO412184  15.967   4.201   4.751  0.1965 -0.2845 -0.0402
  808POPS   GL112185  15.867   4.180   5.223 -0.0531  0.0254  0.5098
  808POPS   GL212186  15.848   4.438   5.402  0.0034  0.0240 -0.0081
  808POPS   C1A12187  16.151   4.036   5.608  0.0456 -0.0266 -0.0234
  808POPS   D2A12188  16.114   3.995   6.109  0.0947 -0.2175 -0.0977
  808POPS   C3A12189  15.950   3.898   6.412  0.1912 -0.1289 -0.2207
  808POPS   C4A12190  15.940   4.003   6.825  0.0521 -0.1712 -0.0776
  808POPS   C1B12191  15.700   4.302   5.797 -0.2024  0.2478  0.0017
  808POPS   C2B12192  15.522   4.409   6.243  0.2513  0.2674  0.1207
  808POPS   C3B12193  15.532   4.096   6.522  0.2928 -0.0608 -0.3132
  808POPS   C4B12194  15.402   4.196   7.035  0.1098 -0.0987 -0.0494
  809POPS   CNO12195  11.851  18.319   5.054  0.0327 -0.2977  0.1691
  809POPS   PO412196  12.101  18.122   5.355  0.1095 -0.2420 -0.0723
  809POPS   GL112197  12.166  18.233   5.872 -0.1013 -0.3940  0.2943
  809POPS   GL212198  12.244  18.425   6.118  0.0340  0.1067  0.1041
  809POPS   C1A12199  11.946  17.980   6.313  0.2192 -0.2965  0.0396
  809POPS   D2A12200  12.019  17.650   6.436  0.0571  0.0763 -0.0169
  809POPS   C3A12201  11.692  17.503   6.645  0.1002 -0.0095  0.2830
  809POPS   C4A12202  11.273  17.477   6.845  0.0638  0.0016 -0.2611
  809POPS   C1B12203  12.443  18.767   6.145  0.1185 -0.0117  0.0663
  809POPS   C2B12204  12.586  18.901   6.536 -0.0439  0.1952 -0.2752
  809POPS   C3B12205  12.529  19.187   6.899  0.3092  0.3057 -0.0750
  809POPS   C4B12206  12.188  19.426   7.193 -0.0488  0.0952  0.0302
  810POPS   CNO12207  15.117   0.409   5.222 -0.1244 -0.1651  0.6340
  810POPS   PO412208  15.235   0.077   5.405  0.0492 -0.0693 -0.0148
  810POPS   GL112209  15.163  -0.067   5.775  0.0145  0.2582 -0.1651
  810POPS   GL212210  14.917  -0.256   5.776 -0.0392 -0.0009  0.1087
  810POPS   C1A12211  15.219  -0.235   6.297 -0.0343 -0.1245  0.1289
  810POPS   D2A12212  15.149  -0.171   6.706  0.0697 -0.0609  0.1564
  810POPS   C3A12213  14.995  -0.257   7.180 -0.0273  0.2736  0.0500
  810POPS   C4A12214  15.153  -0.441   7.495  0.1171  0.3567  0.1815
  810POPS   C1B12215  14.626  -0.237   6.029  0.2913 -0.1783  0.0213
  810POPS   C2B12216  14.634  -0.240   6.419 -0.1219 -0.2502 -0.1546
  810POPS   C3B12217  14.636  -0.357   6.829  0.0322  0.1874  0.3037
  810POPS   C4B12218  14.437  -0.632   7.039 -0.1250 -0.0087  0.3677
  811YOPS   CNO12219   9.797  13.332   5.141  0.2045 -0.0409  0.2316
  811YOPS   PO412220   9.628  13.057   5.453 -0.1090 -0.0493 -0.2373
  811YOPS   GL112221   9.533  13.191   5.994 -0.0402  0.2420  0.1961
  811YOPS   GL212222   9.243  12.975   6.084 -0.1202  0.0746 -0.1679
  811YOPS   C1A12223   9.722  13.194   6.373 -0.1674 -0.3330 -0.2411
  811YOPS   D2A12224   9.574  13.188   6.854  0.0038 -0.0903  0.0944
  811YOPS   C3A12225   9.416  13.027   7.190 -0.2642 -0.0906  0.0496
  811YOPS   C4A12226   9.005  13.119   7.332 -0.0827 -0.0453 -0.1756
  811YOPS   C1B12227   9.229  13.102   6.470  0.0233  0.0078  0.3281
  811YOPS   C2B12228   9.018  13.198   6.835  0.2161 -0.0520  0.0992
  811YOPS   D3B12229   8.655  13.247   6.971  0.0253  0.1472 -0.2193
  811YOPS   C4B12230   8.527  12.857   7.181 -0.2335 -0.1032  0.0197
  812YOPS   CNO12231  16.773  12.134   4.966  0.2922  0.3463 -0.2269
  812YOPS   PO412232  17.216  12.211   5.290  0.2041 -0.1245  0.1705
  812YOPS   GL112233  17.474  12.266   5.582  0.0867  0.0491 -0.0006
  812YOPS   GL212234  17.734  12.099   5.542 -0.2493 -0.2877  0.5073
  812YOPS   C1A12235  17.525  12.505   5.977  0.0715  0.0876  0.3122
  812YOPS   D2A12236  17.512  12.511   6.472  0.2687 -0.0294  0.0628
  812YOPS   C3A12237  17.704  12.540   6.847 -0.1741  0.0794  0.3895
  812YOPS   C4A12238  17.709  12.691   7.210  0.2109  0.2685 -0.0460
  812YOPS   C1B12239  17.760  12.034   5.938 -0.1060  0.0856 -0.0565
  812YOPS   C2B12240  17.919  12.065   6.269  0.3330  0.1606  0.0676
  812YOPS   D3B12241  17.995  12.092   6.714  0.0929  0.3937 -0.3557
  812YOPS   C4B12242  18.138  12.465   6.713 -0.2696  0.0501  0.2376
  813YOPS   CNO12243   0.339   7.108   5.065 -0.2619  0.0622  0.2980
  813YOPS   PO412244   0.410   6.670   5.396 -0.0507  0.0781 -0.0793
  813YOPS   GL112245   0.386   6.785   5.877 -0.0567  0.1664 -0.2311
  813YOPS   GL212246   0.519   7.100   5.864  0.0129 -0.0950 -0.0757
  813YOPS   C1A12247   0.354   6.940   6.424 -0.0510 -0.1664 -0.0235
  813YOPS   D2A12248   0.503   7.213   6.746  0.1693 -0.5644  0.0878
  813YOPS   C3A12249   0.420   7.379   7.234  0.0373  0.0599  0.2475
  813YOPS   C4A12250   0.587   7.154   7.617  0.0896 -0.2924 -0.1444
  813YOPS   C1B12251   0.472   7.362   6.218 -0.3441  0.2185  0.1576
  813YOPS   C2B12252   0.357   7.802   6.334  0.1212  0.0681  0.3941
  813YOPS   D3B12253   0.158   8.132   6.510 -0.0909  0.0886 -0.0571
  813YOPS   C4B12254   0.209   8.511   6.629 -0.0296 -0.0805  0.3050
  814YOPS   CNO12255   7.857   0.840   5.716 -0.0482  0.0504  0.0895
  814YOPS   PO412256   7.771   0.417   5.651 -0.1460 -0.0343  0.0716
  814YOPS   GL112257   7.890   0.169   6.057  0.3345 -0.0090  0.4489
  814YOPS   GL212258   8.121   0.322   6.294 -0.0096  0.1251  0.2829
  814YOPS   C1A12259   7.941  -0.137   6.416  0.4020  0.1178  0.0208
  814YOPS   D2A12260   7.770  -0.144   6.842 -0.1377 -0.1486 -0.0286
  814YOPS   C3A12261   7.475  -0.225   7.248  0.1185 -0.0324  0.1851
  814YOPS   C4A12262   7.034  -0.427   7.174  0.3343 -0.4149  0.3844
  814YOPS   C1B12263   7.943   0.431   6.765  0.1284  0.0653 -0.2954
  814YOPS   C2B12264   8.002   0.264   7.122 -0.1205  0.3567 -0.3400
  814YOPS   D3B12265   7.803   0.356   7.494  0.2155  0.1616 -0.3312
  814YOPS   C4B12266   7.497   0.113   7.649 -0.2217  0.0922 -0.0618
  815YOPS   CNO12267   6.118  18.849   5.419  0.2922  0.0382 -0.0513
  815YOPS   PO412268   6.025  19.168   5.611 -0.1865 -0.1109 -0.1625
  815YOPS   GL112269   6.133  18.926   5.975 -0.0016  0.1661  0.0167
  815YOPS   GL212270   6.485  18.972   6.175 -0.0975 -0.1116  0.1643
  815YOPS   C1A12271   6.107  18.731   6.388 -0.1194 -0.0703 -0.1574
  815YOPS   D2A12272   6.088  18.527   6.730 -0.0541 -0.1956 -0.0833
  815YOPS   C3A12273   5.860  18.538   7.062  0.2530  0.0772 -0.0771
  815YOPS   C4A12274   5.465  18.568   7.174  0.3280 -0.2899  0.4721
  815YOPS   C1B12275   6.620  19.339   6.558 -0.2085  0.1359  0.0946
  815YOPS   C2B12276   6.858  19.269   6.936 -0.2161 -0.0981 -0.0710
  815YOPS   D3B12277   7.125  19.150   7.311 -0.2106  0.1240  0.2654
  815YOPS   C4B12278   7.033  19.207   7.775  0.3702  0.2008 -0.2777
  816YOPS   CNO12279   8.822   6.339   6.089 -0.0361  0.1230  0.1410
  816YOPS   PO412280   8.778   5.844   6.064 -0.2300 -0.1655  0.0467
  816YOPS   GL112281   8.748   6.009   6.472 -0.0392 -0.0407 -0.0187
  816YOPS   GL212282   9.071   6.079   6.510 -0.0003 -0.1270  0.1857
  816YOPS   C1A12283   8.910   5.827   6.919  0.0197 -0.1982 -0.4092
  816YOPS   D2A12284   8.894   5.537   7.298 -0.0857 -0.0810  0.1830
  816YOPS   C3A12285   9.071   5.456   7.695  0.0724 -0.2028 -0.1977
  816YOPS   C4A12286   9.157   5.268   8.004  0.3599 -0.2313 -0.0922
  816YOPS   C1B12287   9.043   6.400   6.777 -0.1628  0.1156 -0.0184
  816YOPS   C2B12288   8.920   6.559   7.108 -0.1347  0.2010 -0.1132
  816YOPS   D3B12289   8.727   6.678   7.543 -0.0219 -0.0207  0.0370
  816YOPS   C4B12290   8.650   7.100   7.546  0.4662 -0.0432  0.4359
  817YOPS   CNO12291   4.115   7.785   4.710 -0.0074  0.0377 -0.1695
  817YOPS   PO412292   3.901   7.653   5.044  0.0787  0.1879 -0.0394
  817YOPS   GL112293   3.897   7.908   5.380  0.2748  0.1021 -0.1901
  817YOPS   GL212294   3.852   7.728   5.715  0.0343  0.1809  0.1904
  817YOPS   C1A12295   4.021   8.189   5.781 -0.2363 -0.3927 -0.1214
  817YOPS   D2A12296   4.370   8.365   6.038  0.2335  0.0824 -0.1911
  817YOPS   C3A12297   4.602   8.095   6.270  0.0638 -0.2369 -0.0372
  817YOPS   C4A12298   4.525   7.667   6.447 -0.1246  0.4324  0.3438
  817YOPS   C1B12299   3.941   7.865   6.177 -0.3580 -0.0158 -0.1257
  817YOPS   C2B12300   3.751   8.219   6.395 -0.1128 -0.2617 -0.0335
  817YOPS   D3B12301   3.757   8.332   6.844 -0.0244  0.0580  0.2384
  817YOPS   C4B12302   3.495   8.614   7.056 -0.1454  0.2448  0.0746
  818YOPS   CNO12303  17.922   4.441   5.316  0.3260 -0.0137 -0.0277
  818YOPS   PO412304  17.637   4.716   5.205  0.1952 -0.1575 -0.0961
  818YOPS   GL112305  17.588   4.597   5.600 -0.3440 -0.1553 -0.1148
  818YOPS   GL212306  17.608   4.864   5.694  0.0566  0.2784 -0.0941
  818YOPS   C1A12307  17.584   4.264   6.039  0.1897  0.1714  0.0996
  818YOPS   D2A12308  17.567   4.155   6.550 -0.2854  0.2514  0.4320
  818YOPS   C3A12309  17.287   4.059   6.817  0.2232  0.1144  0.2920
  818YOPS   C4A12310  17.410   3.853   7.018  0.0865 -0.0782  0.0435
  818YOPS   C1B12311  17.257   4.709   6.047  0.1775 -0.0688 -0.1367
  818YOPS   C2B12312  16.831   4.738   6.115 -0.1253 -0.0365  0.1759
  818YOPS   D3B12313  16.335   4.904   6.267 -0.2146 -0.3811  0.1312
  818YOPS   C4B12314  16.236   5.297   6.523 -0.0609  0.0406  0.2395
  819YOPS   CNO12315  13.929   2.293   5.305 -0.0660  0.0259 -0.0714
  819YOPS   PO412316  14.132   2.684   5.225  0.1001  0.3439  0.3766
  819YOPS   GL112317  14.254   2.746   5.567  0.4640  0.0605 -0.1536
  819YOPS   GL212318  14.544   2.661   5.498 -0.3350 -0.1978 -0.2226
  819YOPS   C1A12319  14.096   2.856   5.903  0.1637 -0.0394  0.2345
  819YOPS   D2A12320  13.967   3.180   6.233 -0.1773 -0.0233 -0.0244
  819YOPS   C3A12321  14.138   3.399   6.489 -0.1592 -0.3099  0.3045
  819YOPS   C4A12322  14.203   3.291   6.938  0.0904  0.0647 -0.3114
  819YOPS   C1B12323  14.624   2.669   5.977 -0.1967 -0.0032  0.0644
  819YOPS   C2B12324  14.346   2.804   6.343  0.1283 -0.1617 -0.1921
  819YOPS   D3B12325  14.114   2.874   6.635 -0.1448 -0.0710 -0.5024
  819YOPS   C4B12326  13.873   2.681   7.005  0.0244  0.3031 -0.1216
  820YOPS   CNO12327  14.741  13.089   6.183  0.1072 -0.2979 -0.1946
  820YOPS   PO412328  14.399  13.283   5.934  0.1716 -0.0558  0.1532
  820YOPS   GL112329  14.252  13.303   6.351  0.2043 -0.0258  0.0096
  820YOPS   GL212330  14.008  13.270   6.357  0.1353 -0.2764  0.0529
  820YOPS   C1A12331  14.184  13.485   6.802  0.0210 -0.0010  0.0293
  820YOPS   D2A12332  14.383  13.703   7.044 -0.0324  0.0486  0.2149
  820YOPS   C3A12333  14.604  13.914   7.265 -0.1519  0.5004 -0.0788
  820YOPS   C4A12334  14.755  13.926   7.645  0.0580 -0.0433  0.1048
  820YOPS   C1B12335  13.597  13.157   6.391  0.2582 -0.1765 -0.3275
  820YOPS   C2B12336  13.249  13.341   6.639  0.0564 -0.2083 -0.0183
  820YOPS   D3B12337  12.856  13.564   6.626 -0.1552 -0.1424  0.0738
  820YOPS   C4B12338  12.851  13.810   7.041  0.0200 -0.1347 -0.1792
  821YOPS   CNO12339  17.833   1.997   5.396  0.1631  0.0635 -0.1178
  821YOPS   PO412340  18.107   2.316   5.404  0.0155  0.3107  0.1209
  821YOPS   GL112341  18.160   2.534   5.870 -0.0236 -0.0130 -0.1213
  821YOPS   GL212342  18.453   2.341   5.927  0.2028 -0.0886  0.0135
  821YOPS   C1A12343  18.089   2.604   6.246  0.1198  0.3063 -0.2341
  821YOPS   D2A12344  17.910   2.767   6.661 -0.0318  0.3256 -0.0472
  821YOPS   C3A12345  18.087   3.081   6.962  0.1598  0.2344 -0.1547
  821YOPS   C4A12346  17.741   3.272   7.074 -0.2791 -0.3382 -0.2375
  821YOPS   C1B12347  18.773   2.178   6.266 -0.0689  0.0521  0.3198
  821YOPS   C2B12348  19.054   2.404   6.656 -0.0416 -0.1088 -0.0827
  821YOPS   D3B12349  19.176   2.474   7.070 -0.1351 -0.1885 -0.1960
  821YOPS   C4B12350  19.387   2.831   7.431  0.0903  0.3363  0.0566
  822YOPS   CNO12351   1.628  17.875   5.475  0.0536 -0.1077  0.0049
  822YOPS   PO412352   1.689  18.237   5.358 -0.1624  0.4544  0.0725
  822YOPS   GL112353   1.777  18.249   5.871  0.3389 -0.0146  0.3418
  822YOPS   GL212354   1.936  17.960   6.017 -0.1886 -0.0339  0.3923
  822YOPS   C1A12355   1.681  18.276   6.323  0.2343  0.1014  0.4345
  822YOPS   D2A12356   1.344  18.048   6.504  0.1883 -0.4024  0.1337
  822YOPS   C3A12357   0.952  17.987   6.563  0.0528  0.1178  0.0372
  822YOPS   C4A12358   0.470  17.823   6.339  0.0355  0.2070 -0.0497
  822YOPS   C1B12359   2.177  18.126   6.448 -0.1296  0.0918  0.1379
  822YOPS   C2B12360   1.876  18.167   6.756  0.0110  0.0170  0.1916
  822YOPS   D3B12361   1.665  18.405   7.015 -0.0561  0.3203 -0.2783
  822YOPS   C4B12362   1.272  18.285   7.161  0.3562 -0.1413  0.2032
  823YOPS   CNO12363   6.457   8.745   5.714 -0.2338  0.2019  0.0100
  823YOPS   PO412364   6.939   8.763   5.791  0.1439 -0.1343  0.1159
  823YOPS   GL112365   6.727   8.502   6.145 -0.3716 -0.0872 -0.0687
  823YOPS   GL212366   6.978   8.276   6.250  0.0916  0.0359 -0.0768
  823YOPS   C1A12367   6.508   8.310   6.501 -0.1343 -0.1571 -0.1601
  823YOPS   D2A12368   6.191   8.398   6.698 -0.0306 -0.1710  0.0699
  823YOPS   C3A12369   5.952   8.494   7.046 -0.0233 -0.1254  0.4798
  823YOPS   C4A12370   5.838   8.351   7.469 -0.2223  0.1925  0.0956
  823YOPS   C1B12371   6.939   8.280   6.675 -0.4293 -0.0597  0.1893
  823YOPS   C2B12372   7.172   8.460   7.091 -0.1682  0.2313  0.2706
  823YOPS   D3B12373   7.462   8.269   7.342 -0.0781 -0.0279  0.0654
  823YOPS   C4B12374   7.441   8.137   7.738 -0.0560  0.0815 -0.0500
  824YOPS   CNO12375  16.397  15.773   5.465  0.0660 -0.1655 -0.0504
  824YOPS   PO412376  16.722  15.536   5.357 -0.2412 -0.0506  0.0846
  824YOPS   GL112377  16.751  15.412   5.781 -0.0632  0.2966 -0.2948
  824YOPS   GL212378  16.552  15.585   5.905 -0.2812 -0.0249 -0.2256
  824YOPS   C1A12379  16.687  15.302   6.325  0.2246  0.4151  0.0302
  824YOPS   D2A12380  16.848  15.552   6.658  0.1016  0.1283  0.3537
  824YOPS   C3A12381  16.595  15.970   6.802  0.0898  0.0344 -0.0843
  824YOPS   C4A12382  16.163  16.035   6.996  0.2037 -0.1357  0.3434
  824YOPS   C1B12383  16.764  15.762   6.204 -0.1477 -0.0196 -0.1432
  824YOPS   C2B12384  17.121  15.911   6.479 -0.1593  0.0342 -0.2378
  824YOPS   D3B12385  17.177  15.937   6.907  0.0313  0.2949 -0.0144
  824YOPS   C4B12386  16.941  15.733   7.122  0.0981 -0.1856  0.1517
  825YOPS   CNO12387   7.337  14.097   4.983 -0.2147 -0.3244  0.1520
  825YOPS   PO412388   7.280  14.050   5.489  0.1551  0.2242 -0.0797
  825YOPS   GL112389   7.465  14.280   5.806  0.1365 -0.0908  0.1795
  825YOPS   GL212390   7.676  14.149   6.065  0.0968  0.0094 -0.2541
  825YOPS   C1A12391   7.418  14.566   6.105 -0.1832 -0.2434 -0.1375
  825YOPS   D2A12392   7.490  14.765   6.487 -0.0321 -0.0780 -0.4366
  825YOPS   C3A12393   7.688  14.725   6.900 -0.2493 -0.1420 -0.0968
  825YOPS   C4A12394   7.743  14.321   7.130  0.1445  0.0037  0.0690
  825YOPS   C1B12395   7.565  13.973   6.301 -0.0192 -0.1973  0.0927
  825YOPS   C2B12396   7.659  13.629   6.463  0.1462 -0.2113  0.1199
  825YOPS   D3B12397   7.935  13.485   6.679 -0.0206 -0.0373 -0.1362
  825YOPS   C4B12398   8.181  13.100   6.838 -0.1164 -0.0431 -0.0022
  826YOPS   CNO12399  10.220   8.368   5.520 -0.1056  0.1133 -0.4754
  826YOPS   PO412400  10.004   8.133   5.806 -0.1753 -0.2256 -0.1445
  826YOPS   GL112401   9.765   8.014   6.194  0.0126  0.5496  0.1348
  826YOPS   GL212402   9.895   7.662   6.387 -0.1707 -0.3437 -0.2241
  826YOPS   C1A12403   9.710   8.231   6.565  0.1265  0.2317  0.3834
  826YOPS   D2A12404   9.411   8.175   6.925  0.2753  0.4506 -0.1035
  826YOPS   C3A12405   9.258   7.840   7.230  0.1908  0.0934  0.2250
  826YOPS   C4A12406   9.196   8.079   7.670  0.3307 -0.1015 -0.3063
  826YOPS   C1B12407   9.832   7.715   6.738  0.0716 -0.1045  0.3716
  826YOPS   C2B12408   9.997   7.589   7.188 -0.2169 -0.1908 -0.3776
  826YOPS   D3B12409  10.256   7.812   7.588 -0.0752  0.0318  0.1013
  826YOPS   C4B12410  10.080   8.063   7.892 -0.1005  0.1094  0.0923
  827YOPS   CNO12411  13.525  14.511   5.658  0.1001 -0.0683 -0.3636
  827YOPS   PO412412  13.727  14.908   5.658  0.1004 -0.0823 -0.1566
  827YOPS   GL112413  13.927  15.105   5.899 -0.1906 -0.0979 -0.2981
  827YOPS   GL212414  13.805  15.024   6.212 -0.4709  0.3154  0.1066
  827YOPS   C1A12415  14.305  15.099   6.258 -0.0995 -0.5628 -0.0776
  827YOPS   D2A12416  14.475  15.281   6.622  0.1191 -0.2599  0.1346
  827YOPS   C3A12417  14.358  15.638   6.905  0.2560 -0.2773  0.0108
  827YOPS   C4A12418  14.549  15.614   7.252 -0.1440  0.0101 -0.1280
  827YOPS   C1B12419  13.964  15.197   6.675  0.0850  0.0293  0.2495
  827YOPS   C2B12420  13.999  15.282   7.091 -0.0344  0.1073 -0.0272
  827YOPS   D3B12421  14.196  15.353   7.537 -0.1044 -0.0034  0.2055
  827YOPS   C4B12422  14.629  15.357   7.802 -0.1732 -0.1622 -0.3461
  828YOPS   CNO12423   2.674   3.430   5.460 -0.4119 -0.1016 -0.0554
  828YOPS   PO412424   2.541   3.296   5.740  0.1335  0.1209  0.0591
  828YOPS   GL112425   2.342   3.616   6.148  0.0276  0.0789  0.0165
  828YOPS   GL212426   2.071   3.794   6.122 -0.1149  0.3189  0.0359
  828YOPS   C1A12427   2.622   3.986   6.306 -0.0526  0.0429  0.1164
  828YOPS   D2A12428   3.035   4.030   6.572 -0.0662 -0.0575  0.1185
  828YOPS   C3A12429   3.066   3.895   6.913  0.2252 -0.2560  0.2194
  828YOPS   C4A12430   3.473   3.791   7.137 -0.2690  0.3273 -0.0535
  828YOPS   C1B12431   2.085   3.806   6.510 -0.1012  0.0027  0.0287
  828YOPS   C2B12432   1.888   3.995   6.829 -0.1155  0.0198 -0.1048
  828YOPS   D3B12433   1.605   4.208   7.012  0.1719  0.2830 -0.2610
  828YOPS   C4B12434   1.382   4.143   7.330  0.0713 -0.0407 -0.2035
  829YOPS   CNO12435  15.634  13.106   5.342  0.0574  0.1512 -0.1945
  829YOPS   PO412436  16.068  13.026   5.313  0.1122  0.1661  0.0297
  829YOPS   GL112437  16.213  12.637   5.665 -0.1340  0.1223 -0.3148
  829YOPS   GL212438  16.389  12.892   5.801 -0.3545 -0.2435  0.1868
  829YOPS   C1A12439  16.099  12.322   5.974  0.0013 -0.4097  0.2838
  829YOPS   D2A12440  15.675  12.231   6.078 -0.0488  0.1953  0.0271
  829YOPS   C3A12441  15.214  12.133   6.174 -0.0345  0.3271  0.0942
  829YOPS   C4A12442  15.028  12.288   6.462  0.2442  0.2913 -0.0186
  829YOPS   C1B12443  16.692  13.130   6.079  0.1077  0.0113 -0.0197
  829YOPS   C2B12444  16.635  13.447   6.383  0.1291 -0.0328  0.0682
  829YOPS   D3B12445  16.816  13.861   6.465  0.1353 -0.0361 -0.1031
  829YOPS   C4B12446  17.116  13.932   6.128 -0.2314  0.0238 -0.0117
  830YOPS   CNO12447   5.171  14.522   5.538  0.3533 -0.2628  0.0757
  830YOPS   PO412448   5.163  14.583   5.985  0.0031 -0.0790 -0.0545
  830YOPS   GL112449   5.000  14.403   6.388 -0.2253 -0.3112  0.2799
  830YOPS   GL212450   5.286  14.238   6.392 -0.2030  0.0267  0.3700
  830YOPS   C1A12451   4.628  14.657   6.724  0.1252  0.1047 -0.0863
  830YOPS   D2A12452   4.219  14.780   6.930  0.1958  0.0758  0.0356
  830YOPS   C3A12453   3.931  14.830   7.149 -0.1156  0.0899  0.0641
  830YOPS   C4A12454   3.972  14.797   7.655 -0.0856  0.2920 -0.1454
  830YOPS   C1B12455   5.040  14.010   6.722  0.2497 -0.1395  0.0740
  830YOPS   C2B12456   4.913  13.564   6.956  0.0946  0.1612  0.1641
  830YOPS   D3B12457   4.622  13.327   7.256 -0.3269 -0.0440 -0.0926
  830YOPS   C4B12458   4.668  12.937   7.396 -0.1077 -0.1332 -0.2239
  831YOPS   CNO12459   4.751   7.539   5.524 -0.2648  0.2994 -0.1254
  831YOPS   PO412460   4.791   7.205   5.142  0.0946 -0.2004  0.2326
  831YOPS   GL112461   4.736   7.094   5.749 -0.0269  0.1666  0.1787
  831YOPS   GL212462   4.443   6.990   5.875  0.2877  0.0808  0.1387
  831YOPS   C1A12463   4.822   7.353   6.040 -0.0378 -0.0280  0.1121
  831YOPS   D2A12464   4.937   7.679   6.190 -0.0512 -0.3806 -0.0475
  831YOPS   C3A12465   5.124   7.925   6.499 -0.1667  0.0226  0.0806
  831YOPS   C4A12466   5.029   8.360   6.452  0.0892 -0.0246 -0.2302
  831YOPS   C1B12467   4.423   7.022   6.255  0.2125 -0.0176 -0.1820
  831YOPS   C2B12468   4.756   7.261   6.582  0.0876  0.1971  0.1212
  831YOPS   D3B12469   4.885   7.536   6.856  0.1752 -0.3111 -0.1221
  831YOPS   C4B12470   4.459   7.721   7.158  0.3447  0.4099  0.2307
  832YOPS   CNO12471  18.294  16.031   4.742  0.0680 -0.0376 -0.1208
  832YOPS   PO412472  18.020  16.006   5.086 -0.2078  0.3037  0.0936
  832YOPS   GL112473  17.862  16.169   5.360  0.0409  0.0057 -0.1150
  832YOPS   GL212474  18.123  16.267   5.530 -0.1498 -0.0796  0.1474
  832YOPS   C1A12475  17.609  15.918   5.637 -0.4155 -0.0941 -0.2285
  832YOPS   D2A12476  17.663  15.912   6.182 -0.0670 -0.0818 -0.0100
  832YOPS   C3A12477  17.659  15.884   6.632  0.0587  0.0537 -0.2154
  832YOPS   C4A12478  17.439  16.335   6.708  0.3998  0.2330 -0.0823
  832YOPS   C1B12479  17.816  16.352   5.928  0.3548 -0.4818 -0.0553
  832YOPS   C2B12480  17.685  16.379   6.335 -0.1681 -0.1384 -0.2612
  832YOPS   D3B12481  17.798  16.708   6.705 -0.0771  0.0839  0.1360
  832YOPS   C4B12482  17.492  16.894   6.921 -0.1138 -0.0970 -0.2604
  833YOPS   CNO12483   6.131   9.137   5.097 -0.0735 -0.1847 -0.2769
  833YOPS   PO412484   6.108   9.565   5.112 -0.1005  0.0320 -0.0344
  833YOPS   GL112485   6.154   9.564   5.505  0.0572  0.1651  0.2367
  833YOPS   GL212486   6.217   9.862   5.618 -0.0343 -0.0388 -0.0533
  833YOPS   C1A12487   6.135   9.496   5.945  0.2292  0.3103 -0.1625
  833YOPS   D2A12488   6.077   9.344   6.345 -0.1161 -0.1306 -0.0796
  833YOPS   C3A12489   6.149   9.359   6.790  0.2148 -0.0524  0.1688
  833YOPS   C4A12490   6.141   9.584   7.276  0.0593  0.0749 -0.0515
  833YOPS   C1B12491   6.305   9.932   6.058 -0.2960  0.1074  0.3018
  833YOPS   C2B12492   6.311  10.108   6.434  0.1269 -0.1155  0.1247
  833YOPS   D3B12493   6.476  10.389   6.715 -0.0936  0.1423  0.1448
  833YOPS   C4B12494   6.329  10.746   6.816  0.0330  0.0097  0.3710
  834YOPS   CNO12495   2.431  12.572   5.416 -0.2333  0.0120  0.0567
  834YOPS   PO412496   2.708  12.625   5.738  0.1414  0.1074  0.5939
  834YOPS   GL112497   2.742  12.494   6.105 -0.2032 -0.3861 -0.2399
  834YOPS   GL212498   2.540  12.063   5.950 -0.0619 -0.0771 -0.1428
  834YOPS   C1A12499   2.641  12.299   6.413  0.2164 -0.0309 -0.3379
  834YOPS   D2A12500   2.699  12.196   6.933 -0.1485  0.1936  0.3444
  834YOPS   C3A12501   2.411  12.451   7.240  0.0442 -0.3098 -0.0954
  834YOPS   C4A12502   2.422  12.477   7.655 -0.3505  0.2033  0.1983
  834YOPS   C1B12503   2.174  12.196   6.181  0.1283 -0.0098  0.2523
  834YOPS   C2B12504   1.877  12.070   6.508  0.2391 -0.0856 -0.0888
  834YOPS   D3B12505   1.760  12.151   6.952  0.2369  0.0454 -0.1186
  834YOPS   C4B12506   1.918  12.495   7.088 -0.3366 -0.0358 -0.5479
  835YOPS   CNO12507   4.884   6.737   5.217 -0.2062 -0.0193 -0.2371
  835YOPS   PO412508   4.949   6.665   5.620 -0.1349  0.1749 -0.0084
  835YOPS   GL112509   5.086   6.719   5.908 -0.2182  0.0711  0.0024
  835YOPS   GL212510   4.981   6.450   6.117  0.1164  0.1737 -0.1672
  835YOPS   C1A12511   5.116   6.986   6.319 -0.1167  0.1790 -0.3428
  835YOPS   D2A12512   5.053   6.985   6.800  0.1952  0.3339 -0.1225
  835YOPS   C3A12513   4.697   7.001   7.100  0.0707  0.0084  0.0065
  835YOPS   C4A12514   4.702   6.708   7.384 -0.0231  0.0620 -0.1249
  835YOPS   C1B12515   4.840   6.170   6.435 -0.1682 -0.0920 -0.0259
  835YOPS   C2B12516   4.695   5.933   6.777  0.4431 -0.0850  0.0729
  835YOPS   D3B12517   4.478   6.065   7.139 -0.0813  0.0618  0.0316
  835YOPS   C4B12518   4.673   6.151   7.550  0.3513  0.2132 -0.0568
  836YOPS   CNO12519   4.350  15.686   5.726  0.0500 -0.0688 -0.1245
  836YOPS   PO412520   4.527  15.240   5.682  0.2042  0.1676 -0.0750
  836YOPS   GL112521   4.455  15.285   6.018 -0.0098 -0.1395 -0.2155
  836YOPS   GL212522   4.770  15.363   6.220 -0.0572 -0.1301 -0.1637
  836YOPS   C1A12523   4.291  15.565   6.348 -0.0249  0.2014 -0.2715
  836YOPS   D2A12524   4.165  15.884   6.677  0.0912  0.0613 -0.0590
  836YOPS   C3A12525   4.255  16.000   7.027  0.0112  0.0541 -0.2966
  836YOPS   C4A12526   4.309  15.720   7.291  0.0542 -0.1138  0.0282
  836YOPS   C1B12527   4.883  15.200   6.680 -0.1057  0.3258  0.0546
  836YOPS   C2B12528   5.115  14.781   6.641 -0.0137  0.0637 -0.0090
  836YOPS   D3B12529   5.068  14.460   6.878 -0.0404 -0.2306  0.1697
  836YOPS   C4B12530   4.793  14.512   7.171  0.3076 -0.0643  0.0118
  837YOPS   CNO12531  14.427  18.500   5.116 -0.1335 -0.0686  0.2945
  837YOPS   PO412532  14.756  18.287   5.281  0.0538 -0.1666  0.2255
  837YOPS   GL112533  14.666  18.127   5.767 -0.1041  0.0936  0.0792
  837YOPS   GL212534  14.425  18.154   5.994 -0.0749  0.0115 -0.1115
  837YOPS   C1A12535  14.825  17.886   6.087 -0.1711 -0.0456 -0.2044
  837YOPS   D2A12536  15.011  17.643   6.376 -0.0581 -0.0607 -0.0731
  837YOPS   C3A12537  15.268  17.285   6.682  0.1464 -0.0101 -0.1754
  837YOPS   C4A12538  15.591  17.163   6.436  0.2298  0.1822  0.2016
  837YOPS   C1B12539  14.327  18.042   6.538 -0.0965  0.3272 -0.2199
  837YOPS   C2B12540  14.581  17.778   6.775 -0.0763 -0.1046  0.2908
  837YOPS   D3B12541  14.713  17.605   7.100  0.0095  0.0947 -0.2936
  837YOPS   C4B12542  14.527  17.741   7.505 -0.3972 -0.0047 -0.3519
  838YOPS   CNO12543   1.325   5.693   5.207  0.1223 -0.0017 -0.1291
  838YOPS   PO412544   1.260   5.312   5.293 -0.2118  0.1219  0.0404
  838YOPS   GL112545   1.070   5.317   5.710  0.1322  0.0072 -0.0394
  838YOPS   GL212546   1.156   4.990   5.827  0.0030  0.1890  0.0084
  838YOPS   C1A12547   1.037   5.376   6.212  0.2641 -0.2596 -0.1699
  838YOPS   D2A12548   1.361   5.429   6.520 -0.2704  0.1519 -0.1042
  838YOPS   C3A12549   1.584   5.659   6.854 -0.2016 -0.1119 -0.0795
  838YOPS   C4A12550   1.833   5.576   7.289 -0.0091 -0.3122 -0.1247
  838YOPS   C1B12551   1.537   5.111   6.094 -0.2431 -0.1283  0.2256
  838YOPS   C2B12552   1.485   4.914   6.571  0.0681  0.2274  0.0971
  838YOPS   D3B12553   1.416   5.201   6.950  0.3033  0.2443  0.2340
  838YOPS   C4B12554   1.016   5.507   6.917 -0.0136  0.0184 -0.0040
  839YOPS   CNO12555   9.643  16.030   5.357 -0.0268 -0.1428  0.2646
  839YOPS   PO412556   9.874  15.679   5.420  0.0467 -0.0091  0.1303
  839YOPS   GL112557   9.822  15.706   5.832  0.0030  0.0289 -0.0047
  839YOPS   GL212558   9.723  15.982   5.860  0.1224 -0.0318 -0.0753
  839YOPS   C1A12559   9.952  15.582   6.256  0.0148  0.1181 -0.0629
  839YOPS   D2A12560  10.250  15.293   6.546  0.0701 -0.2746  0.1577
  839YOPS   C3A12561  10.348  15.191   6.984 -0.2059 -0.1908 -0.3623
  839YOPS   C4A12562  10.359  14.817   7.253  0.0928 -0.4313 -0.1501
  839YOPS   C1B12563   9.568  15.938   6.313 -0.2313  0.0575 -0.1165
  839YOPS   C2B12564   9.602  15.674   6.662 -0.0113  0.0928 -0.1414
  839YOPS   D3B12565   9.785  15.944   7.084 -0.0559  0.2327 -0.1594
  839YOPS   C4B12566   9.803  16.413   7.019 -0.2534  0.1039 -0.3217
  840YOPS   CNO12567  17.234   5.817   4.942 -0.0440  0.3786 -0.0004
  840YOPS   PO412568  17.338   5.586   5.292  0.2500 -0.1718  0.3950
  840YOPS   GL112569  17.155   5.623   5.629 -0.0744 -0.0391  0.0614
  840YOPS   GL212570  17.283   5.931   5.862 -0.3818 -0.1620 -0.0434
  840YOPS   C1A12571  17.045   5.636   6.124  0.1841  0.3617  0.1881
  840YOPS   D2A12572  17.235   5.601   6.423 -0.0434  0.1476 -0.1539
  840YOPS   C3A12573  17.614   5.733   6.639  0.1901  0.0970 -0.0613
  840YOPS   C4A12574  17.675   5.515   7.017  0.0114 -0.1506  0.1372
  840YOPS   C1B12575  17.475   6.003   6.234  0.0237  0.2097  0.1812
  840YOPS   C2B12576  17.800   6.222   6.560 -0.0129  0.3749  0.1081
  840YOPS   D3B12577  18.192   6.267   6.689 -0.4436 -0.2297  0.1073
  840YOPS   C4B12578  18.348   6.052   7.138 -0.2791 -0.3382  0.1718
  841POPE   NH312579   3.790   5.894   5.138 -0.0220 -0.2324  0.0016
  841POPE   PO412580   3.662   6.296   5.192 -0.0864  0.2079 -0.2758
  841POPE   GL112581   3.719   6.380   5.607 -0.2155 -0.0446 -0.1524
  841POPE   GL212582   3.695   6.655   5.729 -0.1363 -0.0131  0.3420
  841POPE   C1A12583   3.434   6.310   6.113 -0.0946  0.1572 -0.0186
  841POPE   D2A12584   3.226   6.457   6.446  0.0806 -0.3014  0.1645
  841POPE   C3A12585   3.266   6.715   6.856 -0.4339 -0.3432 -0.1967
  841POPE   C4A12586   2.977   6.879   7.190  0.0924 -0.2813  0.0834
  841POPE   C1B12587   3.478   6.874   6.156 -0.1731  0.0132 -0.2755
  841POPE   C2B12588   3.621   7.026   6.537 -0.1354 -0.1903 -0.0282
  841POPE   C3B12589   3.722   7.001   6.842  0.0953  0.2234  0.0397
  841POPE   C4B12590   3.835   6.721   7.212 -0.2638 -0.2109 -0.1461
  842POPE   NH312591  14.112  13.742   5.827 -0.2626  0.1394  0.1879
  842POPE   PO412592  13.745  14.044   5.790 -0.3139  0.3636  0.0722
  842POPE   GL112593  13.943  14.105   6.210 -0.2055 -0.0772 -0.1961
  842POPE   GL212594  14.123  13.805   6.350  0.0334 -0.0514  0.1557
  842POPE   C1A12595  13.939  14.132   6.635  0.1156 -0.1144 -0.1110
  842POPE   D2A12596  13.879  13.802   6.947 -0.1373  0.3959  0.0417
  842POPE   C3A12597  13.847  13.970   7.298 -0.0816  0.2035 -0.2185
  842POPE   C4A12598  14.087  14.305   7.550 -0.0042  0.1814 -0.1280
  842POPE   C1B12599  14.397  13.991   6.664 -0.2669  0.2272 -0.1245
  842POPE   C2B12600  14.263  14.231   7.067 -0.3543 -0.2971  0.1555
  842POPE   C3B12601  14.496  14.466   7.369 -0.2273  0.1540 -0.3324
  842POPE   C4B12602  14.451  14.860   7.604 -0.0529  0.0457  0.0928
  843POPE   NH312603   4.695   3.602   5.288  0.5168  0.0348 -0.0104
  843POPE   PO412604   4.787   3.373   5.634  0.1317  0.0934  0.1660
  843POPE   GL112605   4.973   3.624   6.009 -0.1594  0.1522  0.1161
  843POPE   GL212606   4.960   4.002   6.098 -0.0081  0.2250 -0.0244
  843POPE   C1A12607   5.109   3.685   6.454 -0.3467  0.0210 -0.0874
  843POPE   D2A12608   5.243   3.729   6.905 -0.2320  0.3075 -0.0149
  843POPE   C3A12609   5.081   3.609   7.264  0.0989 -0.0334  0.1170
  843POPE   C4A12610   4.819   3.638   7.657 -0.1559 -0.1786 -0.1377
  843POPE   C1B12611   5.005   4.238   6.517  0.2387  0.3278  0.1311
  843POPE   C2B12612   5.302   4.458   6.733  0.4676  0.0216  0.5251
  843POPE   C3B12613   5.341   4.550   7.231  0.0073 -0.1012  0.2310
  843POPE   C4B12614   5.410   4.600   7.675  0.2345  0.0792 -0.0208
  844POPE   NH312615  17.353   6.144   5.325  0.4922 -0.3020 -0.0416
  844POPE   PO412616  17.143   6.544   5.357  0.0873  0.1191  0.0232
  844POPE   GL112617  17.104   6.376   5.726  0.1132  0.3481  0.3558
  844POPE   GL212618  16.861   6.199   5.855  0.0304  0.0179 -0.0457
  844POPE   C1A12619  17.206   6.516   6.078  0.0758 -0.2890 -0.1013
  844POPE   D2A12620  17.369   6.619   6.453 -0.2189  0.3278  0.1389
  844POPE   C3A12621  17.176   6.556   6.863  0.2841 -0.3357  0.4295
  844POPE   C4A12622  16.946   6.491   7.254  0.0081  0.0528 -0.2185
  844POPE   C1B12623  16.956   6.093   6.284 -0.0914  0.0952  0.2199
  844POPE   C2B12624  17.203   6.029   6.696 -0.0494  0.1057 -0.0502
  844POPE   C3B12625  17.383   5.968   7.069 -0.2094  0.0255  0.0281
  844POPE   C4B12626  17.307   6.158   7.533  0.0310  0.0530 -0.0217
  845POPE   NH312627  13.995  14.582   5.438  0.1461  0.1172 -0.4344
  845POPE   PO412628  14.219  14.221   5.641 -0.1446  0.1047 -0.0926
  845POPE   GL112629  14.337  14.372   6.009  0.2036 -0.2731 -0.0536
  845POPE   GL212630  14.478  14.187   6.197 -0.0638  0.2287  0.0427
  845POPE   C1A12631  14.245  14.472   6.513  0.2852 -0.0180 -0.1096
  845POPE   D2A12632  14.283  14.758   6.726  0.0527  0.3746  0.0962
  845POPE   C3A12633  14.060  14.777   7.069  0.1441  0.1103  0.4386
  845POPE   C4A12634  13.874  14.834   7.409  0.1213 -0.3692  0.2108
  845POPE   C1B12635  14.738  14.328   6.467 -0.1093 -0.0781 -0.0395
  845POPE   C2B12636  14.779  14.330   6.822  0.0837  0.3683 -0.0768
  845POPE   C3B12637  14.990  14.329   7.252  0.0592  0.0525 -0.0253
  845POPE   C4B12638  14.850  14.484   7.740 -0.2265  0.0600 -0.0934
  846POPE   NH312639  12.927   9.369   5.736  0.2012  0.0432  0.2113
  846POPE   PO412640  12.895   9.874   5.624  0.1568  0.1044  0.1491
  846POPE   GL112641  13.152   9.858   6.036  0.0632  0.0586  0.4718
  846POPE   GL212642  12.902   9.739   6.187 -0.3200  0.2337  0.0462
  846POPE   C1A12643  13.460   9.823   6.370  0.1815 -0.0274 -0.0238
  846POPE   D2A12644  13.425   9.664   6.775  0.0157  0.0652  0.2881
  846POPE   C3A12645  13.296   9.197   6.906  0.2242 -0.1770 -0.1193
  846POPE   C4A12646  13.353   8.896   7.111  0.2642 -0.2863 -0.0057
  846POPE   C1B12647  12.932   9.858   6.637  0.1439  0.2605  0.2606
  846POPE   C2B12648  12.684   9.966   6.995  0.0016  0.0632 -0.0756
  846POPE   C3B12649  12.495  10.233   7.302  0.0807 -0.1120 -0.0705
  846POPE   C4B12650  12.705  10.437   7.574 -0.1181  0.4705 -0.0330
  847POPE   NH312651   2.903   2.011   5.694 -0.1611 -0.0519  0.0282
  847POPE   PO412652   2.524   1.939   5.622  0.0090 -0.0938 -0.2434
  847POPE   GL112653   2.396   2.133   6.011  0.2651 -0.4547  0.1573
  847POPE   GL212654   2.729   2.117   6.214  0.2182  0.0159 -0.3059
  847POPE   C1A12655   2.003   2.137   6.307  0.0393 -0.2131  0.1608
  847POPE   D2A12656   1.677   2.283   6.594 -0.0034 -0.1040  0.0300
  847POPE   C3A12657   1.717   2.393   7.072 -0.1218 -0.1666 -0.0504
  847POPE   C4A12658   1.686   1.966   7.239 -0.2430 -0.1483 -0.1245
  847POPE   C1B12659   2.944   1.774   6.445  0.0388 -0.0475 -0.2222
  847POPE   C2B12660   3.366   1.799   6.824 -0.0780  0.2461  0.0424
  847POPE   C3B12661   3.551   1.922   7.140 -0.0144 -0.0382 -0.1141
  847POPE   C4B12662   3.979   1.824   7.251  0.2820  0.0272  0.0391
  848POPE   NH312663   2.195   6.500   5.745  0.0190 -0.1116 -0.1751
  848POPE   PO412664   2.550   6.484   5.503 -0.3747 -0.1001 -0.0628
  848POPE   GL112665   2.645   6.625   5.899  0.1071  0.1466 -0.0246
  848POPE   GL212666   2.516   6.907   5.977  0.0434 -0.2870 -0.1781
  848POPE   C1A12667   2.593   6.436   6.257  0.2127  0.0591 -0.1202
  848POPE   D2A12668   2.773   6.480   6.646 -0.1048  0.0540 -0.0358
  848POPE   C3A12669   2.829   6.423   7.000  0.1145  0.3201 -0.0459
  848POPE   C4A12670   2.997   6.067   7.230 -0.1129 -0.1230 -0.1362
  848POPE   C1B12671   2.240   6.857   6.352 -0.3008  0.3103  0.0926
  848POPE   C2B12672   2.078   7.040   6.731 -0.2370  0.1610 -0.2175
  848POPE   C3B12673   2.034   7.439   6.901 -0.0662  0.1126 -0.0650
  848POPE   C4B12674   1.920   7.711   7.180  0.1675 -0.1175  0.0488
  849POPE   NH312675  14.164  11.233   5.702 -0.0655  0.3471 -0.0724
  849POPE   PO412676  14.551  11.015   5.618 -0.4484 -0.1760  0.1583
  849POPE   GL112677  14.857  11.071   5.926 -0.2788  0.1801 -0.0223
  849POPE   GL212678  15.209  11.230   5.803 -0.1239 -0.1395  0.0129
  849POPE   C1A12679  14.757  10.837   6.338 -0.1022  0.2509 -0.2800
  849POPE   D2A12680  14.853  10.876   6.664 -0.0584 -0.0390  0.1352
  849POPE   C3A12681  14.513  10.733   7.082 -0.1400 -0.2977 -0.0395
  849POPE   C4A12682  14.481  10.594   7.589 -0.1717  0.0619  0.1104
  849POPE   C1B12683  15.642  11.161   6.129 -0.1774 -0.0957 -0.1365
  849POPE   C2B12684  15.951  10.917   6.283 -0.0749  0.0152 -0.0253
  849POPE   C3B12685  16.057  11.030   6.686  0.0757 -0.1288 -0.0171
  849POPE   C4B12686  16.383  11.351   6.817 -0.1944  0.1573  0.1389
  850POPE   NH312687   0.206  15.153   4.780 -0.1657  0.0215 -0.0359
  850POPE   PO412688   0.082  14.735   5.030 -0.0725  0.2149  0.2455
  850POPE   GL112689   0.005  14.617   5.418 -0.0439 -0.0444 -0.0795
  850POPE   GL212690  -0.178  14.482   5.498  0.1328  0.2486 -0.0117
  850POPE   C1A12691  -0.080  14.891   5.815  0.1568  0.1140 -0.0718
  850POPE   D2A12692  -0.277  14.737   6.223 -0.0001  0.1099 -0.1875
  850POPE   C3A12693   0.030  14.664   6.552  0.5369 -0.0483 -0.2828
  850POPE   C4A12694   0.457  14.816   6.673  0.1317 -0.3966 -0.1204
  850POPE   C1B12695  -0.471  14.408   5.809  0.1592  0.1072 -0.2609
  850POPE   C2B12696  -0.645  14.350   6.204 -0.0237 -0.0353 -0.1961
  850POPE   C3B12697  -0.839  14.340   6.477 -0.0261 -0.1157 -0.0996
  850POPE   C4B12698  -0.979  14.617   6.886 -0.0270 -0.1714 -0.4455
  851POPE   NH312699  15.607  13.858   5.598  0.0259 -0.0976  0.1222
  851POPE   PO412700  15.389  14.245   5.518 -0.2677 -0.2964 -0.1118
  851POPE   GL112701  15.620  14.376   5.934  0.0790  0.1313 -0.0011
  851POPE   GL212702  15.861  14.150   6.071 -0.0934  0.0988 -0.0727
  851POPE   C1A12703  15.679  14.592   6.301  0.1130  0.0102 -0.4108
  851POPE   D2A12704  15.646  14.986   6.418  0.1264  0.0701 -0.1348
  851POPE   C3A12705  15.997  15.194   6.554  0.4414 -0.0918  0.1501
  851POPE   C4A12706  16.418  15.080   6.775 -0.0477 -0.2367 -0.0181
  851POPE   C1B12707  15.730  14.092   6.471 -0.0307 -0.3218 -0.2276
  851POPE   C2B12708  15.705  14.428   6.833 -0.2007 -0.0650  0.3034
  851POPE   C3B12709  15.616  14.400   7.317 -0.0506 -0.2399  0.3334
  851POPE   C4B12710  15.383  14.546   7.589  0.0285 -0.2166 -0.0165
  852POPE   NH312711   6.490   1.332   5.431 -0.0822 -0.1781 -0.3134
  852POPE   PO412712   6.020   1.133   5.564 -0.3071 -0.2199 -0.0217
  852POPE   GL112713   6.159   1.247   5.849 -0.1128 -0.0850 -0.1402
  852POPE   GL212714   6.291   1.479   5.985 -0.4396 -0.2740 -0.0304
  852POPE   C1A12715   5.934   1.170   6.314 -0.0076  0.3710  0.2037
  852POPE   D2A12716   5.686   1.376   6.669 -0.2192  0.2763  0.1157
  852POPE   C3A12717   5.252   1.083   6.730 -0.1960  0.1150 -0.3813
  852POPE   C4A12718   4.885   0.766   6.678  0.0148  0.0212 -0.2215
  852POPE   C1B12719   6.436   1.444   6.431 -0.3435  0.1500  0.0469
  852POPE   C2B12720   6.724   1.353   6.746 -0.0483 -0.0711  0.0131
  852POPE   C3B12721   7.237   1.362   6.788  0.3304 -0.2257 -0.2584
  852POPE   C4B12722   7.477   1.248   7.134  0.0420 -0.0816 -0.3852
  853POPE   NH312723   6.766  10.716   5.772 -0.2822 -0.0760  0.0775
  853POPE   PO412724   6.515  10.991   5.905 -0.1474 -0.2240  0.1038
  853POPE   GL112725   6.120  10.895   6.047 -0.0763 -0.0508  0.0885
  853POPE   GL212726   5.860  10.754   5.972  0.0764  0.1990  0.1772
  853POPE   C1A12727   5.945  11.005   6.443  0.3267  0.0807  0.0870
  853POPE   D2A12728   5.942  11.050   6.862 -0.2152 -0.1933 -0.1053
  853POPE   C3A12729   5.578  11.182   6.890  0.1249 -0.1471  0.2239
  853POPE   C4A12730   5.281  11.256   7.224  0.1908 -0.1181 -0.0984
  853POPE   C1B12731   5.527  10.465   6.222  0.2817 -0.1251 -0.0324
  853POPE   C2B12732   5.474  10.230   6.599 -0.2294  0.1281 -0.4036
  853POPE   C3B12733   5.241  10.314   6.895  0.0968 -0.0020  0.1674
  853POPE   C4B12734   4.804  10.376   6.978 -0.1465  0.2078 -0.1226
  854POPE   NH312735   7.994  15.475   5.855  0.1342  0.2797  0.2132
  854POPE   PO412736   8.313  15.715   5.739 -0.1621  0.1112 -0.0042
  854POPE   GL112737   8.590  15.786   6.164 -0.2174  0.0595 -0.1309
  854POPE   GL212738   8.887  16.039   6.107 -0.0893 -0.1680  0.1094
  854POPE   C1A12739   8.539  15.715   6.574  0.1075 -0.2553  0.1416
  854POPE   D2A12740   8.514  15.399   6.939 -0.3603 -0.2279 -0.1185
  854POPE   C3A12741   8.840  15.362   7.240 -0.1618  0.0418 -0.1844
  854POPE   C4A12742   9.051  15.149   7.579  0.0611  0.2474  0.2343
  854POPE   C1B12743   9.120  16.087   6.514 -0.1766  0.0376 -0.1096
  854POPE   C2B12744   9.425  16.151   6.827 -0.2396  0.1033  0.0640
  854POPE   C3B12745   9.475  16.191   7.335 -0.1750 -0.0498 -0.0496
  854POPE   C4B12746   9.403  16.253   7.708  0.3063 -0.0648  0.0338
  855POPE   NH312747  12.697   8.685   5.799 -0.2807 -0.0194  0.3007
  855POPE   PO412748  12.872   8.278   5.554  0.0466 -0.2989 -0.0937
  855POPE   GL112749  12.953   8.219   5.972  0.0792 -0.0067  0.2421
  855POPE   GL212750  13.340   8.431   6.123 -0.1091 -0.1566  0.0260
  855POPE   C1A12751  12.753   7.965   6.243  0.2222 -0.1072 -0.0539
  855POPE   D2A12752  12.665   7.668   6.654 -0.1806 -0.2272  0.0345
  855POPE   C3A12753  12.819   7.799   7.019  0.1369  0.0181 -0.0317
  855POPE   C4A12754  13.063   7.587   7.365  0.0766  0.0156  0.0230
  855POPE   C1B12755  13.473   8.158   6.433 -0.2358 -0.3934  0.2327
  855POPE   C2B12756  13.646   7.912   6.816 -0.0699  0.0433  0.3297
  855POPE   C3B12757  13.846   7.624   6.983  0.1027  0.3332  0.1939
  855POPE   C4B12758  14.238   7.327   6.961  0.0003 -0.0187 -0.0240
  856POPE   NH312759  15.653   0.326   5.213 -0.2486 -0.0032 -0.3472
  856POPE   PO412760  15.956   0.283   4.825 -0.2406 -0.1305 -0.0750
  856POPE   GL112761  16.229   0.192   5.197 -0.0730 -0.3633  0.1680
  856POPE   GL212762  16.319   0.465   5.500  0.1093 -0.2658  0.0219
  856POPE   C1A12763  16.250  -0.034   5.537  0.2326 -0.0256 -0.3223
  856POPE   D2A12764  16.669  -0.012   5.749  0.1235  0.3228 -0.1359
  856POPE   C3A12765  16.605  -0.070   6.202  0.0817 -0.0880  0.2270
  856POPE   C4A12766  16.818  -0.025   6.577  0.2749 -0.2113 -0.0601
  856POPE   C1B12767  16.254   0.250   5.938  0.1033  0.5403 -0.0711
  856POPE   C2B12768  16.115  -0.048   6.226 -0.0926  0.1859  0.1824
  856POPE   C3B12769  16.128  -0.424   6.453  0.2658 -0.1263  0.1312
  856POPE   C4B12770  16.377  -0.466   6.772 -0.1341  0.0117 -0.1043
  857POPE   NH312771   8.969   9.945   6.036 -0.3637  0.0248 -0.1914
  857POPE   PO412772   9.417  10.087   6.150 -0.3030 -0.0319  0.2910
  857POPE   GL112773   9.370   9.976   6.503  0.0241 -0.1333 -0.0125
  857POPE   GL212774   9.114   9.731   6.620  0.0657  0.0775  0.0025
  857POPE   C1A12775   9.329  10.127   6.902  0.0263  0.1703 -0.3783
  857POPE   D2A12776   9.517  10.335   7.143  0.1463  0.2331  0.1733
  857POPE   C3A12777   9.809  10.246   7.462 -0.1564  0.0305 -0.3142
  857POPE   C4A12778  10.010  10.245   7.887 -0.1647  0.0011 -0.0824
  857POPE   C1B12779   8.944   9.583   7.026  0.1006 -0.0415  0.0720
  857POPE   C2B12780   8.654   9.607   7.336  0.0538 -0.0797  0.0311
  857POPE   C3B12781   8.447   9.461   7.770  0.1022  0.1134 -0.0634
  857POPE   C4B12782   8.146   9.181   7.877 -0.0178  0.0308 -0.2110
  858POPE   NH312783   3.558   6.790   5.189 -0.0396  0.1042 -0.2570
  858POPE   PO412784   3.321   7.061   5.482 -0.0004 -0.2716  0.1603
  858POPE   GL112785   3.630   7.171   5.769 -0.1684 -0.0884 -0.1562
  858POPE   GL212786   3.909   7.137   5.619  0.1861  0.2677  0.0618
  858POPE   C1A12787   3.623   7.435   6.140  0.2576 -0.6191  0.1298
  858POPE   D2A12788   3.670   7.557   6.563 -0.0271 -0.1441  0.0148
  858POPE   C3A12789   4.096   7.782   6.654  0.0353  0.0765 -0.1970
  858POPE   C4A12790   4.342   8.157   6.749  0.0497 -0.3036  0.0396
  858POPE   C1B12791   4.044   7.261   5.985 -0.1733 -0.0846 -0.3649
  858POPE   C2B12792   4.075   7.340   6.367 -0.1483  0.2634 -0.2462
  858POPE   C3B12793   4.258   7.268   6.886  0.1289 -0.1795 -0.3945
  858POPE   C4B12794   4.191   7.248   7.289 -0.1286 -0.6901 -0.3042
  859POPE   NH312795   7.517  17.920   5.977 -0.0897  0.0269 -0.1236
  859POPE   PO412796   7.433  17.451   5.927  0.2028  0.0024 -0.1347
  859POPE   GL112797   7.302  17.485   6.377  0.0754 -0.0702 -0.0574
  859POPE   GL212798   7.180  17.819   6.299  0.0274 -0.0394  0.1498
  859POPE   C1A12799   7.241  17.510   6.822  0.1482  0.1264 -0.1811
  859POPE   D2A12800   7.114  17.319   7.079 -0.1492  0.1610  0.2630
  859POPE   C3A12801   6.797  17.416   7.152 -0.0850 -0.0233  0.1854
  859POPE   C4A12802   6.389  17.392   6.893 -0.1848  0.1236 -0.1884
  859POPE   C1B12803   7.335  17.983   6.676  0.2637  0.3652  0.1045
  859POPE   C2B12804   7.290  18.011   7.103 -0.1076  0.0175 -0.2078
  859POPE   C3B12805   7.332  17.648   7.456 -0.2209 -0.0383  0.0988
  859POPE   C4B12806   7.026  17.264   7.667  0.2030  0.0486  0.1013
  860POPE   NH312807  10.621  16.212   5.320 -0.0734  0.2930  0.0716
  860POPE   PO412808  10.714  15.754   5.430 -0.0129  0.1875 -0.1201
  860POPE   GL112809  10.920  15.678   5.779  0.2129  0.1433  0.0213
  860POPE   GL212810  11.211  15.858   5.958 -0.1599 -0.4771 -0.1406
  860POPE   C1A12811  10.840  15.559   6.228 -0.1733 -0.1791 -0.0008
  860POPE   D2A12812  10.694  15.519   6.653  0.1723  0.5075  0.0904
  860POPE   C3A12813  10.674  15.670   7.033 -0.1398 -0.1321  0.0282
  860POPE   C4A12814  10.832  15.335   7.251  0.1187 -0.1930 -0.0432
  860POPE   C1B12815  11.205  15.871   6.385 -0.1933 -0.0524 -0.1095
  860POPE   C2B12816  11.448  16.221   6.636 -0.1430 -0.0113  0.2394
  860POPE   C3B12817  11.697  16.514   6.942 -0.1342  0.0209  0.0951
  860POPE   C4B12818  11.733  16.746   7.366  0.0146  0.1255  0.0904
  861POPE   NH312819   4.306  17.138   5.722  0.1313 -0.1377  0.1049
  861POPE   PO412820   4.584  17.393   5.886  0.1178 -0.0361 -0.4003
  861POPE   GL112821   4.397  17.443   6.210  0.0529  0.1080  0.0787
  861POPE   GL212822   4.079  17.323   6.211  0.1009  0.1217 -0.0267
  861POPE   C1A12823   4.163  17.792   6.543 -0.0970 -0.2452  0.1459
  861POPE   D2A12824   4.429  18.075   6.841 -0.0973 -0.1606  0.2117
  861POPE   C3A12825   4.143  18.176   7.099  0.0700 -0.0171  0.2461
  861POPE   C4A12826   3.872  18.371   7.455  0.0132  0.3146 -0.0524
  861POPE   C1B12827   3.797  17.372   6.480 -0.0999  0.0977  0.0090
  861POPE   C2B12828   3.444  17.110   6.665  0.2974 -0.2699 -0.2563
  861POPE   C3B12829   3.138  17.184   7.079  0.0734  0.0096  0.1995
  861POPE   C4B12830   3.190  17.493   7.337  0.0443  0.0471  0.4551
  862POPE   NH312831   2.534  14.134   5.706  0.3234  0.4795  0.0309
  862POPE   PO412832   2.856  14.592   5.701  0.0709  0.5589  0.2686
  862POPE   GL112833   2.449  14.563   6.061 -0.1026  0.1630  0.1739
  862POPE   GL212834   2.214  14.450   6.031 -0.1153  0.2149 -0.3387
  862POPE   C1A12835   2.224  14.813   6.388  0.1777  0.0130  0.0835
  862POPE   D2A12836   2.374  15.211   6.562 -0.1778  0.2295 -0.1169
  862POPE   C3A12837   2.540  15.277   7.005 -0.3261  0.2059  0.0067
  862POPE   C4A12838   2.743  15.272   7.369 -0.1864  0.0462 -0.0163
  862POPE   C1B12839   2.201  14.310   6.412 -0.2142 -0.0531 -0.2220
  862POPE   C2B12840   2.374  14.006   6.605  0.2088 -0.3235 -0.1470
  862POPE   C3B12841   2.317  13.595   6.893  0.0897  0.2394 -0.0288
  862POPE   C4B12842   2.034  13.401   6.990 -0.1816 -0.1936 -0.2167
  863POPE   NH312843  11.501   6.005   6.264 -0.1636 -0.1083 -0.1395
  863POPE   PO412844  11.058   6.000   6.265 -0.2324  0.1801  0.1223
  863POPE   GL112845  11.408   6.143   6.754 -0.1326  0.4224  0.3858
  863POPE   GL212846  11.545   6.483   6.832 -0.0168  0.0116 -0.2480
  863POPE   C1A12847  11.430   6.097   7.185 -0.1403  0.3183  0.1813
  863POPE   D2A12848  11.480   6.286   7.558  0.0271 -0.1400  0.1991
  863POPE   C3A12849  11.835   6.526   7.632 -0.0394  0.1657  0.1492
  863POPE   C4A12850  12.106   6.580   7.288 -0.2748 -0.2009 -0.3869
  863POPE   C1B12851  11.333   6.588   7.175 -0.1158 -0.0394 -0.0292
  863POPE   C2B12852  11.063   6.743   7.435  0.0912 -0.0075  0.0605
  863POPE   C3B12853  10.656   6.656   7.602  0.0852 -0.0625 -0.0067
  863POPE   C4B12854  10.384   6.460   7.619  0.0501  0.0230  0.0988
  864POPE   NH312855  12.639  17.023   5.145 -0.0609 -0.0435  0.2893
  864POPE   PO412856  12.342  17.176   5.353  0.4826  0.2416 -0.3288
  864POPE   GL112857  12.334  17.344   5.783  0.0118  0.0264  0.3924
  864POPE   GL212858  12.341  17.762   5.779 -0.0379 -0.1087 -0.1796
  864POPE   C1A12859  12.442  17.214   6.157 -0.1771 -0.3247 -0.3600
  864POPE   D2A12860  12.437  17.320   6.523 -0.0618 -0.1348 -0.3937
  864POPE   C3A12861  12.579  17.248   6.878 -0.3312  0.1124  0.1041
  864POPE   C4A12862  12.723  16.987   7.217 -0.4284  0.0024  0.0667
  864POPE   C1B12863  12.458  17.715   6.213 -0.2151 -0.0580 -0.0822
  864POPE   C2B12864  12.563  17.779   6.527 -0.0045 -0.1559  0.0549
  864POPE   C3B12865  12.480  17.723   7.000  0.0299 -0.0795 -0.2275
  864POPE   C4B12866  12.194  17.891   7.194  0.2317  0.2864  0.0626
  865POPE   NH312867   0.336   8.717   4.846  0.2247 -0.0327  0.0361
  865POPE   PO412868   0.551   8.460   5.182 -0.2001 -0.0541 -0.1016
  865POPE   GL112869   0.369   8.645   5.549  0.1358 -0.1029 -0.3542
  865POPE   GL212870   0.207   8.356   5.742 -0.0670  0.0896 -0.1942
  865POPE   C1A12871   0.281   9.003   5.761 -0.0415 -0.2774  0.0371
  865POPE   D2A12872   0.276   9.481   5.782  0.0918  0.3118  0.0307
  865POPE   C3A12873   0.162   9.700   6.070 -0.1421  0.3533  0.1624
  865POPE   C4A12874   0.154  10.185   6.124 -0.0051  0.0992  0.0208
  865POPE   C1B12875  -0.010   8.169   6.096  0.0421 -0.3697 -0.0214
  865POPE   C2B12876  -0.292   7.863   6.422 -0.0029  0.1677  0.0322
  865POPE   C3B12877  -0.092   7.680   6.817 -0.2560  0.1197  0.6074
  865POPE   C4B12878  -0.045   7.524   7.230  0.0542 -0.1220  0.1918
  866POPE   NH312879  12.122  14.208   5.638  0.0091  0.4242  0.1022
  866POPE   PO412880  11.751  14.464   5.594 -0.1210 -0.1316 -0.1111
  866POPE   GL112881  11.849  14.304   6.024 -0.5668  0.1660 -0.3201
  866POPE   GL212882  12.084  13.924   6.046  0.2159 -0.0840 -0.1413
  866POPE   C1A12883  11.902  14.188   6.477 -0.2732 -0.0032  0.1670
  866POPE   D2A12884  12.158  14.250   6.862  0.1007 -0.0177  0.0886
  866POPE   C3A12885  12.366  13.871   7.012  0.0535  0.0520 -0.0992
  866POPE   C4A12886  12.425  13.716   7.416  0.0302 -0.4506  0.1607
  866POPE   C1B12887  12.095  13.731   6.476  0.4220  0.2637 -0.1933
  866POPE   C2B12888  11.923  13.699   6.859 -0.1820 -0.1497 -0.0133
  866POPE   C3B12889  12.075  13.403   7.164 -0.0015 -0.1247 -0.0009
  866POPE   C4B12890  12.147  13.324   7.618 -0.1454 -0.0574  0.1902
  867POPE   NH312891   8.096  16.775   6.098 -0.0944  0.0301 -0.0138
  867POPE   PO412892   7.634  16.867   6.013 -0.3441 -0.0282 -0.0623
  867POPE   GL112893   7.584  17.110   6.327  0.0746  0.0790 -0.1550
  867POPE   GL212894   7.942  17.134   6.422  0.2486 -0.0216  0.0396
  867POPE   C1A12895   7.516  17.131   6.706  0.0931  0.3819 -0.0686
  867POPE   D2A12896   7.599  17.184   7.126  0.0119 -0.2488 -0.1236
  867POPE   C3A12897   7.981  17.215   7.447 -0.4034  0.2661 -0.1137
  867POPE   C4A12898   7.982  17.420   7.797  0.0171 -0.0091 -0.0997
  867POPE   C1B12899   8.082  17.053   6.890  0.1223 -0.1769  0.1020
  867POPE   C2B12900   8.371  17.001   7.139  0.3032 -0.1749 -0.0008
  867POPE   C3B12901   8.692  16.809   7.290  0.1229 -0.2563  0.4413
  867POPE   C4B12902   8.719  16.506   7.658  0.2182 -0.1739 -0.0483
  868POPE   NH312903  18.288   8.594   5.277  0.0221  0.1788  0.1348
  868POPE   PO412904  17.867   8.466   5.216  0.0156  0.0490  0.1424
  868POPE   GL112905  17.818   8.431   5.637 -0.0638  0.0379  0.0715
  868POPE   GL212906  18.059   8.541   5.794  0.0029 -0.0894 -0.0063
  868POPE   C1A12907  17.668   8.238   5.938 -0.3550 -0.0931 -0.0192
  868POPE   D2A12908  17.601   7.843   6.267 -0.0565 -0.2843  0.0733
  868POPE   C3A12909  17.651   7.943   6.662 -0.0852  0.1115  0.0111
  868POPE   C4A12910  17.728   7.898   7.097  0.0765 -0.1639 -0.1816
  868POPE   C1B12911  17.801   8.707   6.106  0.1750 -0.1213  0.0613
  868POPE   C2B12912  17.613   8.766   6.469 -0.1459  0.2016  0.1929
  868POPE   C3B12913  17.458   8.948   6.852 -0.1315 -0.2875  0.0810
  868POPE   C4B12914  17.282   8.908   7.239 -0.1736  0.0068 -0.4854
  869POPE   NH312915   2.525  16.708   5.470 -0.0817  0.2141 -0.0510
  869POPE   PO412916   2.240  16.382   5.231  0.0441  0.0219  0.2518
  869POPE   GL112917   2.241  16.374   5.800 -0.0451  0.3360 -0.2310
  869POPE   GL212918   2.023  16.687   5.894 -0.0888  0.0322 -0.0747
  869POPE   C1A12919   2.318  16.451   6.262  0.1720 -0.0487 -0.0474
  869POPE   D2A12920   2.364  16.592   6.610 -0.2026 -0.0039  0.1675
  869POPE   C3A12921   2.071  16.545   6.766 -0.0662 -0.7150 -0.2788
  869POPE   C4A12922   1.650  16.451   6.799  0.0563 -0.2201  0.1263
  869POPE   C1B12923   2.160  16.908   6.290 -0.1064 -0.0169 -0.1242
  869POPE   C2B12924   2.166  17.059   6.718  0.0965 -0.0856 -0.2628
  869POPE   C3B12925   1.939  16.945   7.096  0.0039 -0.1768 -0.2902
  869POPE   C4B12926   2.194  16.957   7.557 -0.1099  0.0662  0.1707
  870POPE   NH312927  10.384   8.031   6.071  0.0309  0.0729 -0.0288
  870POPE   PO412928  10.609   7.601   6.225  0.1170 -0.1078 -0.1602
  870POPE   GL112929  10.499   7.795   6.606  0.2793 -0.0252  0.0173
  870POPE   GL212930  10.254   8.052   6.581 -0.0462  0.1409 -0.0974
  870POPE   C1A12931  10.402   7.955   7.097 -0.4097 -0.1006  0.0879
  870POPE   D2A12932  10.203   8.380   7.329  0.1826  0.3045 -0.2889
  870POPE   C3A12933  10.277   8.519   7.769  0.3133 -0.0421 -0.2271
  870POPE   C4A12934   9.986   8.682   8.085  0.0114  0.0852  0.1782
  870POPE   C1B12935   9.941   8.199   6.982  0.1834 -0.2687 -0.3196
  870POPE   C2B12936   9.752   8.008   7.310  0.2092  0.1173  0.1086
  870POPE   C3B12937   9.605   7.753   7.603 -0.4710  0.1082  0.1774
  870POPE   C4B12938   9.744   7.744   7.992 -0.2137 -0.1039 -0.2977
  871YOPE   NH312939   4.955   1.940   5.823  0.4070 -0.0670 -0.1475
  871YOPE   PO412940   5.103   1.493   5.812  0.0926  0.1798  0.4089
  871YOPE   GL112941   5.036   1.685   6.259 -0.1098 -0.1166  0.0858
  871YOPE   GL212942   5.126   1.960   6.262  0.0576  0.0763  0.0363
  871YOPE   C1A12943   4.998   1.457   6.595 -0.1722 -0.1541  0.0096
  871YOPE   D2A12944   4.829   1.239   7.025 -0.2923 -0.0388  0.0202
  871YOPE   C3A12945   5.000   1.086   7.356 -0.2226 -0.2745  0.0979
  871YOPE   C4A12946   5.258   0.958   7.740 -0.0926 -0.0321  0.0662
  871YOPE   C1B12947   4.891   2.153   6.459 -0.2129 -0.2778  0.3374
  871YOPE   C2B12948   5.035   2.210   6.929  0.1658 -0.0235  0.0040
  871YOPE   D3B12949   4.904   2.395   7.175  0.0939 -0.1264  0.1033
  871YOPE   C4B12950   4.819   2.341   7.606  0.1667  0.0769 -0.1979
  872YOPE   NH312951   7.195  15.135   5.478  0.0054  0.0592  0.2414
  872YOPE   PO412952   7.629  15.340   5.516  0.1537 -0.3748 -0.0100
  872YOPE   GL112953   7.541  15.557   6.011  0.0961  0.0144 -0.1003
  872YOPE   GL212954   7.477  15.884   6.002 -0.0968  0.3538 -0.2485
  872YOPE   C1A12955   7.682  15.549   6.357 -0.1443  0.2300  0.1948
  872YOPE   D2A12956   7.706  15.707   6.818  0.1112 -0.2617  0.1798
  872YOPE   C3A12957   7.774  15.634   7.243 -0.1715  0.2757  0.1862
  872YOPE   C4A12958   7.833  15.620   7.615  0.0281 -0.1536  0.2478
  872YOPE   C1B12959   7.584  16.052   6.413  0.1131  0.0269 -0.0543
  872YOPE   C2B12960   7.450  16.179   6.805  0.1732 -0.0725 -0.0754
  872YOPE   D3B12961   7.543  16.161   7.222 -0.1498  0.2308  0.1273
  872YOPE   C4B12962   7.427  15.927   7.562  0.1726 -0.0371 -0.1046
  873YOPE   NH312963   7.775   1.420   5.600  0.0230 -0.1935 -0.3185
  873YOPE   PO412964   7.327   1.511   5.579  0.2206  0.1488  0.0359
  873YOPE   GL112965   7.307   1.460   5.961 -0.4661 -0.0463 -0.0690
  873YOPE   GL212966   7.265   1.774   6.001  0.1439 -0.0585 -0.1476
  873YOPE   C1A12967   7.028   1.452   6.343 -0.0326  0.1149  0.0625
  873YOPE   D2A12968   6.844   1.774   6.518  0.2579  0.3410 -0.3346
  873YOPE   C3A12969   6.883   1.766   6.926  0.2118  0.1255 -0.0994
  873YOPE   C4A12970   6.609   1.719   7.316 -0.2531  0.0027 -0.2163
  873YOPE   C1B12971   7.307   1.936   6.332  0.1753 -0.0757  0.0807
  873YOPE   C2B12972   7.242   2.071   6.700 -0.1647  0.0640  0.2166
  873YOPE   D3B12973   7.460   2.217   7.031  0.0831  0.0149 -0.1457
  873YOPE   C4B12974   7.798   2.013   7.329 -0.0680  0.2089  0.1937
  874YOPE   NH312975   2.253   2.348   5.531 -0.0080  0.2451 -0.2100
  874YOPE   PO412976   2.343   2.751   5.401 -0.0583  0.1070  0.2765
  874YOPE   GL112977   2.261   2.848   5.779  0.0247 -0.0706 -0.1653
  874YOPE   GL212978   2.206   2.635   5.982 -0.2497 -0.1872  0.1909
  874YOPE   C1A12979   2.235   3.063   6.263  0.0249 -0.0885  0.2240
  874YOPE   D2A12980   2.101   3.166   6.815  0.2600 -0.1487 -0.0276
  874YOPE   C3A12981   2.181   3.532   6.975 -0.1602 -0.3204 -0.2731
  874YOPE   C4A12982   2.314   3.620   7.392  0.1529 -0.0901  0.1599
  874YOPE   C1B12983   2.369   2.521   6.383 -0.2182 -0.0640  0.1603
  874YOPE   C2B12984   2.121   2.406   6.702 -0.1421 -0.1626 -0.1629
  874YOPE   D3B12985   2.140   2.100   7.036  0.0956 -0.0075 -0.2257
  874YOPE   C4B12986   2.431   2.100   7.445  0.0226 -0.0077 -0.2429
  875YOPE   NH312987  12.954  11.993   5.808 -0.0585  0.2883  0.1908
  875YOPE   PO412988  12.473  12.084   5.697 -0.0888  0.3858  0.1735
  875YOPE   GL112989  12.357  12.066   6.154 -0.0031 -0.1934 -0.1015
  875YOPE   GL212990  12.653  12.015   6.371 -0.3466  0.0110  0.0334
  875YOPE   C1A12991  11.997  11.888   6.508 -0.1424  0.1354  0.0827
  875YOPE   D2A12992  12.039  11.612   6.837  0.0707  0.1266 -0.1664
  875YOPE   C3A12993  12.450  11.885   7.042  0.1896  0.2211 -0.2583
  875YOPE   C4A12994  12.841  11.869   7.310 -0.4645  0.0968  0.1401
  875YOPE   C1B12995  12.389  12.262   6.646  0.0077 -0.1338  0.0792
  875YOPE   C2B12996  12.414  12.360   7.074 -0.3088  0.0147 -0.2398
  875YOPE   D3B12997  12.775  12.422   7.378 -0.1753 -0.5271 -0.0385
  875YOPE   C4B12998  13.022  12.324   7.655  0.1721  0.0012 -0.0052
  876YOPE   NH312999   8.067  14.974   5.777 -0.0227  0.0872  0.2081
  876YOPE   PO413000   7.738  14.806   5.540  0.0064 -0.1693  0.0720
  876YOPE   GL113001   7.610  15.006   5.986  0.1781  0.1387  0.1482
  876YOPE   GL213002   7.821  15.119   6.227 -0.0996 -0.1065 -0.0577
  876YOPE   C1A13003   7.306  15.223   6.332 -0.1014 -0.0267  0.0161
  876YOPE   D2A13004   7.250  15.042   6.752 -0.1331 -0.1462 -0.3247
  876YOPE   C3A13005   6.898  15.156   7.092  0.1975  0.0696 -0.0039
  876YOPE   C4A13006   6.616  15.048   7.470 -0.2485 -0.0131  0.4179
  876YOPE   C1B13007   8.111  14.950   6.486 -0.1715  0.0593 -0.0908
  876YOPE   C2B13008   8.184  14.962   6.914 -0.0382  0.0381 -0.2754
  876YOPE   D3B13009   8.551  14.884   7.086  0.0770  0.1257 -0.1170
  876YOPE   C4B13010   8.824  14.543   7.128 -0.0050  0.3914 -0.6127
  877YOPE   NH313011  15.203   5.407   5.227  0.2475  0.2333  0.0471
  877YOPE   PO413012  14.800   5.276   5.285 -0.0317  0.1462 -0.0089
  877YOPE   GL113013  14.933   5.272   5.636  0.0631  0.0204 -0.2514
  877YOPE   GL213014  14.897   5.594   5.778  0.0218  0.1488  0.0159
  877YOPE   C1A13015  15.058   5.303   6.144 -0.0563  0.1811 -0.1602
  877YOPE   D2A13016  15.334   5.320   6.484  0.0392 -0.1641 -0.1186
  877YOPE   C3A13017  15.370   5.079   6.866  0.4537  0.1210 -0.1716
  877YOPE   C4A13018  15.478   4.741   7.180 -0.2135 -0.1767 -0.0291
  877YOPE   C1B13019  14.610   5.597   6.124  0.1525 -0.0718 -0.1477
  877YOPE   C2B13020  14.658   5.792   6.442  0.0988 -0.2483 -0.2417
  877YOPE   D3B13021  14.644   6.039   6.884  0.2172  0.2119 -0.1347
  877YOPE   C4B13022  14.857   6.372   7.063 -0.0124 -0.0754 -0.1055
  878YOPE   NH313023  12.759   5.892   5.142 -0.1128  0.0522 -0.2351
  878YOPE   PO413024  12.758   6.105   5.507 -0.1246 -0.1474 -0.1952
  878YOPE   GL113025  12.926   6.420   5.925  0.1245  0.0664  0.1778
  878YOPE   GL213026  12.647   6.641   6.012  0.0218  0.0245 -0.0564
  878YOPE   C1A13027  12.988   6.458   6.340 -0.2144  0.5306 -0.0571
  878YOPE   D2A13028  12.763   6.700   6.589  0.0868 -0.3326 -0.1126
  878YOPE   C3A13029  12.853   6.743   6.916 -0.1524 -0.3929  0.0691
  878YOPE   C4A13030  13.209   6.561   7.201 -0.2333 -0.2521 -0.0079
  878YOPE   C1B13031  12.961   6.935   6.196  0.0659  0.3022 -0.1103
  878YOPE   C2B13032  13.126   7.158   6.557 -0.0878  0.1176  0.1855
  878YOPE   D3B13033  13.329   7.531   6.908 -0.2728 -0.2028  0.1742
  878YOPE   C4B13034  13.435   7.937   7.270  0.1139  0.0819  0.1866
  879YOPE   NH313035  17.604  10.948   5.108 -0.0336 -0.1364 -0.0862
  879YOPE   PO413036  17.550  11.305   5.347 -0.0243  0.2348 -0.1944
  879YOPE   GL113037  17.665  11.374   5.718 -0.2159  0.0887  0.5526
  879YOPE   GL213038  17.877  11.608   5.611  0.0580 -0.1779 -0.2447
  879YOPE   C1A13039  17.832  11.231   6.071  0.0233  0.2829 -0.2158
  879YOPE   D2A13040  17.900  11.130   6.496  0.2030  0.4245 -0.0240
  879YOPE   C3A13041  17.775  10.928   6.906 -0.2536 -0.3039  0.5299
  879YOPE   C4A13042  17.573  11.104   7.203  0.0392 -0.1984  0.0568
  879YOPE   C1B13043  18.136  11.685   6.016  0.1299 -0.0278  0.3320
  879YOPE   C2B13044  18.157  11.543   6.395  0.0258  0.1567  0.0262
  879YOPE   D3B13045  18.316  11.324   6.765  0.3011 -0.1472 -0.0689
  879YOPE   C4B13046  18.112  11.300   7.164 -0.0217  0.1630 -0.0108
  880YOPE   NH313047   6.952  18.514   5.890 -0.0393  0.1110 -0.0417
  880YOPE   PO413048   7.366  18.365   5.844  0.0399 -0.1130  0.1369
  880YOPE   GL113049   7.444  18.633   6.162  0.2813  0.1850  0.1469
  880YOPE   GL213050   7.572  18.396   6.388  0.0062 -0.0656 -0.1274
  880YOPE   C1A13051   7.465  19.010   6.360 -0.2156 -0.2729  0.0131
  880YOPE   D2A13052   7.385  19.122   6.844 -0.3070 -0.1566  0.1196
  880YOPE   C3A13053   7.527  19.411   7.058 -0.2723  0.0609  0.1583
  880YOPE   C4A13054   7.721  19.741   6.854  0.0737 -0.2073 -0.1995
  880YOPE   C1B13055   7.267  18.581   6.777  0.3004  0.1091 -0.1275
  880YOPE   C2B13056   6.983  18.772   6.841  0.0439 -0.1411  0.1792
  880YOPE   D3B13057   6.682  18.858   7.248 -0.0373  0.0214 -0.2443
  880YOPE   C4B13058   6.507  19.095   7.549  0.1565  0.0123  0.0167
  881YOPE   NH313059  16.677   8.074   5.459 -0.1910  0.0247  0.2933
  881YOPE   PO413060  16.818   7.637   5.613 -0.1616  0.2596  0.1869
  881YOPE   GL113061  16.677   7.528   5.913 -0.0945  0.0435 -0.2004
  881YOPE   GL213062  16.458   7.220   5.886  0.2060  0.2356 -0.3517
  881YOPE   C1A13063  16.467   7.650   6.329  0.1090  0.1834  0.1617
  881YOPE   D2A13064  16.629   7.675   6.787  0.0432 -0.0495 -0.0299
  881YOPE   C3A13065  17.045   7.893   7.013 -0.1965 -0.0515  0.1560
  881YOPE   C4A13066  17.322   8.233   7.074  0.2252  0.0513  0.2434
  881YOPE   C1B13067  16.167   7.035   6.205 -0.1330 -0.2997  0.0344
  881YOPE   C2B13068  16.018   7.331   6.590 -0.3179 -0.1888 -0.0039
  881YOPE   D3B13069  16.275   7.435   6.988  0.1428 -0.2275 -0.0262
  881YOPE   C4B13070  16.520   7.589   7.335  0.0687 -0.2059  0.1089
  882YOPE   NH313071  11.882   8.967   5.776 -0.1082 -0.0923  0.1122
  882YOPE   PO413072  12.103   8.625   5.809  0.0503  0.1845  0.0625
  882YOPE   GL113073  12.240   8.623   6.156  0.1571  0.1706  0.3383
  882YOPE   GL213074  12.524   8.387   6.201  0.1827  0.1070  0.3221
  882YOPE   C1A13075  12.258   8.502   6.639  0.0613 -0.2976 -0.2370
  882YOPE   D2A13076  12.271   8.428   7.128 -0.3362 -0.0462 -0.1728
  882YOPE   C3A13077  12.333   8.761   7.444  0.0969  0.2856  0.2680
  882YOPE   C4A13078  12.342   8.893   7.847  0.2157 -0.0146  0.0080
  882YOPE   C1B13079  12.877   8.363   6.562  0.1056 -0.2048  0.4615
  882YOPE   C2B13080  12.706   8.312   6.924 -0.1118  0.0659 -0.0007
  882YOPE   D3B13081  12.759   8.239   7.422  0.1362  0.0335 -0.0095
  882YOPE   C4B13082  12.558   8.452   7.713  0.1025  0.1187  0.1465
  883YOPE   NH313083   9.079   2.070   5.576 -0.2709  0.0356  0.0888
  883YOPE   PO413084   8.905   2.205   5.956  0.1227  0.0961 -0.0966
  883YOPE   GL113085   9.083   2.135   6.395  0.0889  0.2909  0.1374
  883YOPE   GL213086   9.391   1.944   6.374  0.1842 -0.0246  0.0219
  883YOPE   C1A13087   8.891   2.195   6.915  0.2786  0.1304 -0.4207
  883YOPE   D2A13088   8.719   2.288   7.287 -0.2109 -0.3981 -0.1204
  883YOPE   C3A13089   8.521   2.615   7.455 -0.0801 -0.0856 -0.1160
  883YOPE   C4A13090   8.273   2.916   7.615 -0.1999 -0.1960  0.4291
  883YOPE   C1B13091   9.227   1.753   6.810  0.3279 -0.3624  0.0302
  883YOPE   C2B13092   9.239   1.430   7.164  0.2165  0.0814  0.2538
  883YOPE   D3B13093   9.031   1.124   7.330  0.2761 -0.2689  0.0396
  883YOPE   C4B13094   8.608   0.908   7.451  0.3940 -0.1488 -0.2086
  884YOPE   NH313095  10.250  17.393   5.756  0.1106  0.2037  0.2219
  884YOPE   PO413096  10.009  17.256   6.011 -0.0075 -0.0087 -0.0531
  884YOPE   GL113097   9.704  17.271   6.219 -0.0381 -0.0537  0.0913
  884YOPE   GL213098   9.804  17.297   6.475 -0.1142  0.0287  0.1540
  884YOPE   C1A13099   9.335  17.253   6.473 -0.2009 -0.3374 -0.2939
  884YOPE   D2A13100   9.150  17.200   6.797 -0.3175  0.1795 -0.0466
  884YOPE   C3A13101   9.343  17.170   7.108  0.2805 -0.0556 -0.1235
  884YOPE   C4A13102   9.701  17.163   7.188 -0.1483 -0.1399  0.1215
  884YOPE   C1B13103  10.148  17.094   6.724 -0.2178 -0.3127 -0.0237
  884YOPE   C2B13104  10.582  17.061   6.917  0.2334 -0.2455 -0.2400
  884YOPE   D3B13105  11.021  17.041   6.937 -0.1119 -0.2467 -0.0095
  884YOPE   C4B13106  11.265  16.866   7.253 -0.1740 -0.2146  0.0499
  885YOPE   NH313107  13.429  14.821   6.046  0.2139 -0.0696 -0.1333
  885YOPE   PO413108  13.399  15.221   5.879  0.0807 -0.2116 -0.1270
  885YOPE   GL113109  13.540  15.408   6.221  0.0883  0.1022 -0.0725
  885YOPE   GL213110  13.542  15.737   6.156 -0.2017  0.1830 -0.2767
  885YOPE   C1A13111  13.411  15.494   6.539  0.1319 -0.2903 -0.1144
  885YOPE   D2A13112  13.118  15.752   6.705  0.1233  0.3052 -0.0379
  885YOPE   C3A13113  13.186  15.614   7.150  0.0245  0.0789 -0.3773
  885YOPE   C4A13114  13.180  15.442   7.673  0.0030 -0.1911 -0.3001
  885YOPE   C1B13115  13.538  15.960   6.576 -0.0618  0.1405 -0.0645
  885YOPE   C2B13116  13.468  16.167   6.880  0.2352 -0.3256  0.0663
  885YOPE   D3B13117  13.606  16.254   7.144 -0.1648 -0.3767 -0.0962
  885YOPE   C4B13118  13.505  16.486   7.480 -0.1893 -0.0919  0.3491
  886YOPE   NH313119   4.104   0.227   5.541 -0.0851 -0.0584  0.0414
  886YOPE   PO413120   4.023  -0.218   5.382  0.3931  0.5633  0.2276
  886YOPE   GL113121   4.084  -0.290   5.775  0.0611 -0.2151 -0.0649
  886YOPE   GL213122   3.955  -0.095   6.004  0.1910 -0.0427 -0.0488
  886YOPE   C1A13123   4.522  -0.278   5.902  0.0582 -0.0479  0.0401
  886YOPE   D2A13124   4.788  -0.250   6.341 -0.1851 -0.2996  0.2015
  886YOPE   C3A13125   4.556  -0.258   6.758 -0.0583  0.1194 -0.1213
  886YOPE   C4A13126   4.464  -0.300   7.144  0.3102  0.0024 -0.0242
  886YOPE   C1B13127   3.701   0.167   6.301 -0.0980  0.1262 -0.3042
  886YOPE   C2B13128   3.315   0.237   6.415 -0.0111  0.0280 -0.1000
  886YOPE   D3B13129   3.108   0.015   6.768  0.1966 -0.1727  0.1845
  886YOPE   C4B13130   2.792   0.292   6.974  0.1893 -0.0184  0.2830
  887YOPE   NH313131   5.190  12.565   5.608  0.4397  0.0696 -0.1051
  887YOPE   PO413132   4.961  12.769   5.864 -0.1156  0.2716 -0.0732
  887YOPE   GL113133   4.920  12.697   6.190  0.1834 -0.1492 -0.1848
  887YOPE   GL213134   4.722  12.923   6.412 -0.0624 -0.0329 -0.0245
  887YOPE   C1A13135   5.175  12.748   6.599  0.2304  0.0002 -0.1320
  887YOPE   D2A13136   5.214  12.725   7.098  0.1439  0.0007  0.0558
  887YOPE   C3A13137   5.636  12.509   7.302 -0.1585  0.2938 -0.0556
  887YOPE   C4A13138   5.826  12.041   7.406 -0.1404 -0.2883 -0.0018
  887YOPE   C1B13139   4.689  13.329   6.529 -0.0452  0.0183 -0.0554
  887YOPE   C2B13140   4.457  13.514   6.807  0.0329 -0.0690 -0.0566
  887YOPE   D3B13141   4.412  13.762   7.022 -0.2684  0.1512 -0.2507
  887YOPE   C4B13142   4.694  13.991   7.169 -0.0948  0.2306  0.0116
  888YOPE   NH313143   2.743   5.626   5.032 -0.3759  0.0622  0.1440
  888YOPE   PO413144   2.971   5.530   5.373  0.3514 -0.0001 -0.0453
  888YOPE   GL113145   2.886   5.600   5.835 -0.0486  0.1384 -0.0447
  888YOPE   GL213146   3.103   5.876   6.016  0.3487  0.1583  0.0993
  888YOPE   C1A13147   2.696   5.516   6.224  0.0790  0.0623  0.0041
  888YOPE   D2A13148   2.471   5.421   6.685  0.3193 -0.3715  0.4277
  888YOPE   C3A13149   2.736   5.172   6.971 -0.0951  0.1615  0.0090
  888YOPE   C4A13150   3.169   5.133   6.986  0.3077  0.0701 -0.1997
  888YOPE   C1B13151   2.942   6.083   6.341  0.1071 -0.1802  0.1686
  888YOPE   C2B13152   2.520   6.043   6.635  0.0538 -0.0036 -0.0277
  888YOPE   D3B13153   2.450   6.112   7.093 -0.0025  0.1463  0.0525
  888YOPE   C4B13154   2.410   6.141   7.412 -0.0170 -0.2712 -0.1941
  889YOPE   NH313155   4.894  14.105   6.023 -0.2399  0.3141 -0.0362
  889YOPE   PO413156   4.693  14.481   5.765 -0.0597 -0.0849 -0.2778
  889YOPE   GL113157   4.477  14.318   6.151 -0.2653  0.1365  0.0826
  889YOPE   GL213158   4.345  14.561   6.382 -0.0547 -0.1430  0.4138
  889YOPE   C1A13159   4.063  14.108   6.396  0.4573 -0.0841 -0.0835
  889YOPE   D2A13160   4.051  13.816   6.773  0.1272  0.0006  0.1695
  889YOPE   C3A13161   3.839  13.849   7.162 -0.0036 -0.2916  0.1235
  889YOPE   C4A13162   3.684  13.476   7.196 -0.1587 -0.0191 -0.0148
  889YOPE   C1B13163   3.911  14.608   6.564 -0.2763 -0.0240 -0.1130
  889YOPE   C2B13164   3.690  14.365   6.864 -0.6372  0.0812 -0.1324
  889YOPE   D3B13165   3.902  14.373   7.368  0.1044 -0.1943 -0.1270
  889YOPE   C4B13166   3.856  14.332   7.804  0.2030  0.0394 -0.0317
  890YOPE   NH313167  13.275   5.920   5.663  0.0528 -0.0737 -0.1444
  890YOPE   PO413168  13.227   5.521   5.821  0.0925  0.1544 -0.0889
  890YOPE   GL113169  13.234   5.491   6.273  0.1544  0.3563  0.0014
  890YOPE   GL213170  13.279   5.172   6.368  0.3608  0.0337  0.1174
  890YOPE   C1A13171  13.301   5.517   6.757 -0.1054  0.0235  0.4727
  890YOPE   D2A13172  13.420   5.184   6.979  0.1102  0.1109 -0.1088
  890YOPE   C3A13173  13.357   5.198   7.380  0.2158  0.1895 -0.1576
  890YOPE   C4A13174  12.959   5.207   7.657  0.0039 -0.1244  0.3770
  890YOPE   C1B13175  13.669   5.161   6.450 -0.2008 -0.0601  0.0774
  890YOPE   C2B13176  13.820   5.315   6.819 -0.1221 -0.0399 -0.0671
  890YOPE   D3B13177  13.882   5.551   7.182 -0.1696 -0.2343 -0.2155
  890YOPE   C4B13178  14.178   5.725   7.485 -0.0622  0.0724  0.1841
  891YOPE   NH313179   0.799  18.014   5.417  0.1763  0.0452  0.1674
  891YOPE   PO413180   0.324  17.849   5.584  0.0178 -0.1345  0.2589
  891YOPE   GL113181   0.678  17.795   5.871  0.1520 -0.1279  0.1274
  891YOPE   GL213182   0.791  18.112   5.926 -0.0316 -0.0269  0.2138
  891YOPE   C1A13183   0.856  17.607   6.235 -0.2635 -0.0329  0.0062
  891YOPE   D2A13184   0.805  17.419   6.593  0.1009 -0.0079 -0.0494
  891YOPE   C3A13185   0.591  17.544   6.863 -0.1900 -0.4025  0.3581
  891YOPE   C4A13186   0.350  17.836   7.135 -0.0564  0.2673 -0.0488
  891YOPE   C1B13187   1.178  18.102   6.038 -0.0278 -0.4044 -0.0801
  891YOPE   C2B13188   1.464  17.740   6.031  0.2478 -0.1993  0.3096
  891YOPE   D3B13189   1.337  17.564   6.476  0.1253 -0.0835  0.0486
  891YOPE   C4B13190   1.345  17.228   6.823  0.1874 -0.0834  0.1597
  892YOPE   NH313191   1.587   7.925   5.606  0.0276 -0.2332 -0.2564
  892YOPE   PO413192   1.613   7.464   5.560 -0.3779  0.3617  0.0762
  892YOPE   GL113193   1.802   7.381   5.880 -0.0160 -0.0756  0.3848
  892YOPE   GL213194   2.044   7.085   5.902  0.0689  0.1964 -0.1738
  892YOPE   C1A13195   2.019   7.393   6.297 -0.0165 -0.1140  0.0734
  892YOPE   D2A13196   2.366   7.486   6.529  0.1463  0.1499  0.0250
  892YOPE   C3A13197   2.443   7.710   7.003  0.0862  0.2126 -0.1920
  892YOPE   C4A13198   2.407   7.792   7.426  0.0528  0.0834  0.2605
  892YOPE   C1B13199   2.405   7.398   5.981 -0.2279 -0.1457 -0.0466
  892YOPE   C2B13200   2.869   7.526   6.202 -0.0957 -0.0717 -0.0748
  892YOPE   D3B13201   3.121   7.365   6.398  0.1426 -0.1107 -0.1745
  892YOPE   C4B13202   3.171   7.174   6.736 -0.0661 -0.2181 -0.2003
  893YOPE   NH313203   3.397  16.781   5.899  0.3425 -0.1117 -0.1448
  893YOPE   PO413204   3.788  16.967   5.781 -0.1231  0.1180  0.3054
  893YOPE   GL113205   3.907  16.708   6.078 -0.3012  0.1094 -0.1248
  893YOPE   GL213206   3.760  16.808   6.287 -0.1021 -0.2891  0.0009
  893YOPE   C1A13207   3.554  16.373   6.370  0.0219 -0.0467  0.1803
  893YOPE   D2A13208   3.493  16.380   6.773  0.1158  0.5290  0.1326
  893YOPE   C3A13209   3.913  16.320   6.997  0.0149  0.1457 -0.0704
  893YOPE   C4A13210   4.092  16.670   7.221  0.0188 -0.0772  0.2003
  893YOPE   C1B13211   3.798  16.745   6.707 -0.3064 -0.0189 -0.1281
  893YOPE   C2B13212   3.494  16.762   7.136  0.1305  0.0323 -0.1212
  893YOPE   D3B13213   3.237  16.444   7.304  0.0453  0.0388 -0.0153
  893YOPE   C4B13214   2.954  16.150   7.407  0.1195 -0.0496 -0.1450
  894YOPE   NH313215  12.387  18.524   5.413  0.3295 -0.0389  0.2874
  894YOPE   PO413216  12.236  18.902   5.393  0.2812  0.0664  0.0423
  894YOPE   GL113217  12.599  19.017   5.693 -0.2321  0.1820  0.0215
  894YOPE   GL213218  12.251  19.187   5.899  0.0305  0.2527 -0.3817
  894YOPE   C1A13219  12.712  19.189   6.102 -0.1838 -0.2239  0.0117
  894YOPE   D2A13220  12.767  19.332   6.491 -0.1055  0.0917  0.5867
  894YOPE   C3A13221  12.506  19.638   6.749  0.2567 -0.4917  0.1201
  894YOPE   C4A13222  12.488  19.932   7.069  0.2939  0.0750 -0.0795
  894YOPE   C1B13223  12.272  19.264   6.310  0.3315  0.2141 -0.2650
  894YOPE   C2B13224  12.083  19.099   6.689 -0.0940  0.2545 -0.1166
  894YOPE   D3B13225  11.784  19.243   6.960 -0.0751  0.1525 -0.1164
  894YOPE   C4B13226  11.627  19.364   7.408 -0.0792  0.4529 -0.1826
  895YOPE   NH313227   3.598   1.573   5.783  0.2783  0.1087  0.0551
  895YOPE   PO413228   3.221   1.644   5.767 -0.1297  0.0920  0.3474
  895YOPE   GL113229   3.200   1.412   6.100  0.0639  0.1371 -0.2941
  895YOPE   GL213230   3.273   1.011   6.158  0.2354  0.0563 -0.0875
  895YOPE   C1A13231   3.222   1.372   6.571  0.2199  0.0729 -0.1144
  895YOPE   D2A13232   3.289   1.075   6.883 -0.0865  0.0128  0.1205
  895YOPE   C3A13233   3.119   1.018   7.323  0.3095 -0.0481  0.0511
  895YOPE   C4A13234   2.824   1.189   7.715 -0.2154 -0.0184  0.3308
  895YOPE   C1B13235   3.291   0.719   6.520 -0.0075 -0.1001 -0.1478
  895YOPE   C2B13236   3.296   0.504   6.808 -0.0340 -0.1123 -0.2043
  895YOPE   D3B13237   3.223   0.523   7.173  0.5432  0.0750  0.2912
  895YOPE   C4B13238   3.212   0.460   7.588 -0.0811  0.2831  0.0176
  896YOPE   NH313239   9.082   9.114   5.899  0.0095  0.2018 -0.1263
  896YOPE   PO413240   8.808   9.402   6.011  0.2759 -0.2250  0.1514
  896YOPE   GL113241   8.838   9.163   6.343 -0.1244  0.0985 -0.4589
  896YOPE   GL213242   9.158   8.959   6.420 -0.5736 -0.0712  0.0288
  896YOPE   C1A13243   8.489   8.932   6.513  0.1505 -0.0212 -0.4643
  896YOPE   D2A13244   8.461   8.552   6.830 -0.0188 -0.3930 -0.0503
  896YOPE   C3A13245   8.591   8.663   7.269 -0.0085 -0.0041  0.1065
  896YOPE   C4A13246   8.267   8.751   7.673 -0.0570  0.1610  0.0859
  896YOPE   C1B13247   9.185   9.013   6.812  0.0041  0.1308  0.2710
  896YOPE   C2B13248   8.883   9.089   7.105 -0.1211  0.0399  0.1250
  896YOPE   D3B13249   9.055   9.251   7.533 -0.2060 -0.1418  0.2193
  896YOPE   C4B13250   9.013   9.200   8.033  0.4632  0.0587 -0.3339
  897YOPE   NH313251  11.966  14.972   5.436  0.0427  0.2445 -0.0344
  897YOPE   PO413252  12.372  15.186   5.269 -0.1157 -0.0262  0.1848
  897YOPE   GL113253  12.330  15.309   5.664 -0.0310  0.0490 -0.0637
  897YOPE   GL213254  12.141  15.441   5.748 -0.0902 -0.2926  0.1609
  897YOPE   C1A13255  12.652  15.377   6.049 -0.0746  0.3196  0.1981
  897YOPE   D2A13256  12.778  15.696   6.313 -0.2418  0.1706 -0.0578
  897YOPE   C3A13257  13.005  16.031   6.236  0.1608  0.0851 -0.0495
  897YOPE   C4A13258  13.407  16.280   6.224 -0.0535 -0.0294  0.0285
  897YOPE   C1B13259  12.171  15.653   6.094  0.4329 -0.2928  0.4776
  897YOPE   C2B13260  12.213  15.762   6.474 -0.0343  0.1418  0.0150
  897YOPE   D3B13261  12.197  15.758   6.869  0.1299 -0.0598  0.0682
  897YOPE   C4B13262  12.195  15.546   7.302 -0.1965 -0.2200 -0.0256
  898YOPE   NH313263   2.180   4.168   5.770 -0.0438  0.1101  0.3292
  898YOPE   PO413264   2.492   4.309   5.488 -0.1886 -0.0131  0.1546
  898YOPE   GL113265   2.692   4.299   5.768 -0.2022  0.2072 -0.0089
  898YOPE   GL213266   2.738   4.639   5.951 -0.1900  0.0566 -0.1208
  898YOPE   C1A13267   3.091   4.239   5.970 -0.0831 -0.0714 -0.2097
  898YOPE   D2A13268   3.442   4.191   6.368  0.0111 -0.2934  0.0568
  898YOPE   C3A13269   3.867   4.093   6.418 -0.2210 -0.0722  0.2145
  898YOPE   C4A13270   4.179   3.850   6.541 -0.1800 -0.1356 -0.1540
  898YOPE   C1B13271   2.428   4.489   6.231 -0.1651  0.2419 -0.1206
  898YOPE   C2B13272   2.249   4.252   6.592  0.0470 -0.3291  0.2079
  898YOPE   D3B13273   2.503   4.112   6.839 -0.0291  0.2248 -0.1232
  898YOPE   C4B13274   2.729   4.121   7.212 -0.0562 -0.1055 -0.3491
  899YOPE   NH313275  17.876   7.196   5.545  0.1403 -0.1276  0.2211
  899YOPE   PO413276  18.243   7.036   5.587  0.0582 -0.1480  0.3269
  899YOPE   GL113277  18.361   7.201   5.963  0.1237  0.0042 -0.1391
  899YOPE   GL213278  18.243   6.944   6.088 -0.1162  0.0143  0.0697
  899YOPE   C1A13279  18.402   7.354   6.362  0.1319 -0.0582 -0.1040
  899YOPE   D2A13280  18.319   7.301   6.751 -0.0052 -0.2751  0.0157
  899YOPE   C3A13281  18.462   7.144   7.077 -0.1855  0.0223  0.0554
  899YOPE   C4A13282  18.380   7.117   7.520 -0.1160  0.0251 -0.2929
  899YOPE   C1B13283  18.122   6.935   6.513  0.0678  0.0407  0.0930
  899YOPE   C2B13284  17.794   6.734   6.624 -0.1362  0.0813  0.0502
  899YOPE   D3B13285  17.520   6.968   6.913 -0.0947  0.1649  0.1321
  899YOPE   C4B13286  17.388   6.754   7.376 -0.2099  0.1047  0.2455
  900YOPE   NH313287  16.565  15.048   5.032  0.0204 -0.0590  0.3831
  900YOPE   PO413288  16.193  15.289   5.086 -0.2360  0.0408  0.0160
  900YOPE   GL113289  15.967  15.499   5.484 -0.1009  0.1394  0.1585
  900YOPE   GL213290  15.774  15.209   5.618 -0.0709 -0.1275  0.0365
  900YOPE   C1A13291  16.094  15.688   5.858 -0.0344 -0.2122  0.1369
  900YOPE   D2A13292  16.299  16.031   6.005  0.0396  0.0678  0.0025
  900YOPE   C3A13293  16.461  16.389   5.679 -0.0721 -0.0874 -0.1193
  900YOPE   C4A13294  16.666  16.656   5.393  0.3607 -0.1189  0.1262
  900YOPE   C1B13295  15.644  15.354   5.980 -0.0060 -0.1105 -0.0824
  900YOPE   C2B13296  15.482  15.543   6.335  0.2280  0.2085  0.2272
  900YOPE   D3B13297  15.363  15.733   6.799 -0.0337 -0.3325  0.2419
  900YOPE   C4B13298  15.083  15.934   7.184  0.0396  0.1637 -0.0869
  901YOPE   NH313299  10.701  11.207   5.547 -0.3352 -0.2384  0.0150
  901YOPE   PO413300  10.554  11.631   5.633  0.1324 -0.0519  0.1123
  901YOPE   GL113301  10.576  11.763   6.025 -0.1655  0.1757 -0.1202
  901YOPE   GL213302  10.306  11.551   6.176  0.0324  0.0403 -0.0231
  901YOPE   C1A13303  10.745  11.582   6.456  0.0055  0.1305 -0.4310
  901YOPE   D2A13304  11.076  11.719   6.757 -0.0469  0.2115  0.2840
  901YOPE   C3A13305  11.040  11.931   7.044  0.4479  0.0494  0.1063
  901YOPE   C4A13306  11.222  12.119   7.377 -0.1143  0.0031  0.0136
  901YOPE   C1B13307  10.318  11.424   6.667  0.0981 -0.0765  0.1726
  901YOPE   C2B13308  10.602  11.554   7.010  0.1452  0.2698  0.2355
  901YOPE   D3B13309  10.726  11.665   7.356  0.1147 -0.1323 -0.0980
  901YOPE   C4B13310  10.793  11.948   7.696  0.0668 -0.0489  0.3507
  902YOPE   NH313311   9.525  14.533   5.419 -0.0737  0.3937  0.1671
  902YOPE   PO413312   9.477  14.861   5.500  0.1068  0.1102 -0.2942
  902YOPE   GL113313   9.572  14.814   5.970  0.0539  0.0048  0.0744
  902YOPE   GL213314   9.556  14.450   5.953 -0.0832 -0.1139 -0.0282
  902YOPE   C1A13315   9.315  14.876   6.420  0.3046 -0.2528  0.0408
  902YOPE   D2A13316   8.984  14.621   6.654 -0.0220 -0.2035  0.0281
  902YOPE   C3A13317   9.028  14.288   6.748 -0.2532 -0.1893 -0.0318
  902YOPE   C4A13318   9.042  14.080   7.106  0.2360 -0.1754 -0.1133
  902YOPE   C1B13319   9.259  14.342   6.211 -0.0108 -0.0245 -0.2643
  902YOPE   C2B13320   8.895  14.074   6.377  0.1708 -0.1321 -0.1647
  902YOPE   D3B13321   8.551  14.088   6.691  0.2829  0.2348  0.1865
  902YOPE   C4B13322   8.549  14.047   7.205 -0.0998 -0.2027 -0.0792
  903YOPE   NH313323   2.389   4.799   5.596  0.0659  0.2291 -0.2448
  903YOPE   PO413324   2.753   5.080   5.607 -0.0331  0.1375 -0.2658
  903YOPE   GL113325   2.495   5.155   5.942  0.0376  0.2016  0.3076
  903YOPE   GL213326   2.124   5.280   6.012  0.0692 -0.0123 -0.3213
  903YOPE   C1A13327   2.426   4.990   6.285  0.0143 -0.0452 -0.0660
  903YOPE   D2A13328   2.309   4.906   6.754  0.2313  0.4073  0.6354
  903YOPE   C3A13329   2.000   4.614   6.967 -0.2390 -0.2159 -0.0117
  903YOPE   C4A13330   1.586   4.653   6.965  0.0594 -0.0268 -0.2853
  903YOPE   C1B13331   1.866   5.568   6.107  0.4271  0.0304  0.1222
  903YOPE   C2B13332   1.538   5.891   6.378 -0.2206  0.0296  0.3505
  903YOPE   D3B13333   0.944   5.827   6.336 -0.2232 -0.2486 -0.0363
  903YOPE   C4B13334   0.574   6.021   6.214  0.1496 -0.0529  0.0282
  904YOPE   NH313335  17.681   1.828   4.943  0.2333 -0.1382  0.3146
  904YOPE   PO413336  17.290   1.885   5.224 -0.0003  0.0237  0.1410
  904YOPE   GL113337  17.089   1.942   5.501 -0.0591  0.0984 -0.1412
  904YOPE   GL213338  16.646   1.845   5.561  0.2359  0.3984  0.1687
  904YOPE   C1A13339  17.081   1.793   5.922 -0.0623  0.1417  0.0444
  904YOPE   D2A13340  17.136   1.464   6.280 -0.0239  0.1125  0.0168
  904YOPE   C3A13341  17.569   1.319   6.505  0.2160 -0.0543  0.0347
  904YOPE   C4A13342  17.891   1.259   6.897  0.2895 -0.0634 -0.0165
  904YOPE   C1B13343  16.535   1.493   5.775 -0.4370 -0.4289  0.0220
  904YOPE   C2B13344  16.566   1.206   6.148  0.3199  0.1021 -0.2837
  904YOPE   D3B13345  16.667   1.275   6.476  0.1462 -0.2892  0.1865
  904YOPE   C4B13346  16.591   0.927   6.668 -0.0421 -0.0718 -0.3361
  905YOPE   NH313347   0.976  13.133   5.728  0.0037  0.1157 -0.2479
  905YOPE   PO413348   0.655  13.503   5.577  0.1460  0.0376 -0.1380
  905YOPE   GL113349   0.639  13.728   6.023  0.2177  0.0845  0.3037
  905YOPE   GL213350   0.694  14.068   6.019 -0.0864  0.0779  0.2888
  905YOPE   C1A13351   0.359  13.817   6.415 -0.3550  0.0298  0.0130
  905YOPE   D2A13352  -0.051  13.818   6.505 -0.2534 -0.2616  0.1032
  905YOPE   C3A13353  -0.331  13.598   6.368 -0.1831  0.1856 -0.1524
  905YOPE   C4A13354  -0.740  13.384   6.497  0.1653  0.0294  0.0300
  905YOPE   C1B13355   0.860  13.851   6.426  0.2486  0.0222  0.0308
  905YOPE   C2B13356   0.783  13.969   6.827 -0.1802  0.1039 -0.0659
  905YOPE   D3B13357   0.273  13.939   6.929  0.1892 -0.2057 -0.0389
  905YOPE   C4B13358  -0.106  13.950   6.952 -0.0988  0.0211  0.1127
  906YOPE   NH313359  18.063   1.086   4.866  0.0246  0.2122  0.0052
  906YOPE   PO413360  17.749   1.296   4.882  0.2218  0.2299  0.1086
  906YOPE   GL113361  17.731   1.104   5.301 -0.0980  0.0380 -0.2104
  906YOPE   GL213362  17.444   1.274   5.426  0.0235  0.1288  0.1128
  906YOPE   C1A13363  17.998   1.273   5.634  0.3392 -0.1823  0.5567
  906YOPE   D2A13364  18.260   1.254   5.952 -0.3256 -0.0687  0.0529
  906YOPE   C3A13365  18.207   1.280   6.461 -0.0611 -0.0673  0.1579
  906YOPE   C4A13366  18.469   1.491   6.874  0.0790 -0.0486  0.1297
  906YOPE   C1B13367  17.177   1.281   5.745  0.1276 -0.0264  0.1952
  906YOPE   C2B13368  17.146   0.976   6.092 -0.0019 -0.3859  0.0707
  906YOPE   D3B13369  17.044   0.983   6.434 -0.1574  0.1735 -0.0737
  906YOPE   C4B13370  17.135   1.300   6.749 -0.0286  0.2752  0.1312
  907YOPE   NH313371  18.130  13.623   5.018  0.3999  0.2800  0.0693
  907YOPE   PO413372  17.805  13.645   5.379 -0.3123 -0.0436  0.0529
  907YOPE   GL113373  17.784  13.993   5.605 -0.4011 -0.3853  0.0418
  907YOPE   GL213374  17.935  14.308   5.475 -0.1134 -0.0179  0.0938
  907YOPE   C1A13375  17.792  14.128   5.960 -0.2766 -0.3469  0.0201
  907YOPE   D2A13376  17.503  14.132   6.340 -0.0377 -0.2016 -0.0878
  907YOPE   C3A13377  17.761  13.989   6.707 -0.0773 -0.0777 -0.2159
  907YOPE   C4A13378  18.061  14.101   7.059  0.1078  0.0135 -0.1220
  907YOPE   C1B13379  17.949  14.544   5.795  0.3194 -0.0315 -0.1266
  907YOPE   C2B13380  17.676  14.581   6.122  0.0162  0.3001  0.1201
  907YOPE   D3B13381  17.218  14.755   6.330  0.1273 -0.0930 -0.0146
  907YOPE   C4B13382  17.090  15.077   6.601 -0.0447  0.0785  0.0265
  908YOPE   NH313383  10.909   8.860   6.164  0.0481  0.2842  0.5292
  908YOPE   PO413384  10.607   9.262   6.128 -0.1700 -0.0302  0.1391
  908YOPE   GL113385  10.730   9.176   6.534 -0.0900 -0.3239 -0.1970
  908YOPE   GL213386  11.097   9.150   6.534 -0.3159  0.2942  0.0000
  908YOPE   C1A13387  10.847   9.402   6.895 -0.2326  0.0962  0.1470
  908YOPE   D2A13388  11.125   9.527   7.302  0.2437  0.2944 -0.0184
  908YOPE   C3A13389  11.135   9.349   7.702  0.1447  0.3150 -0.0800
  908YOPE   C4A13390  11.106   9.107   8.017 -0.0080  0.1522  0.0023
  908YOPE   C1B13391  11.442   9.339   6.906  0.2271  0.2216 -0.0663
  908YOPE   C2B13392  11.601   9.310   7.298  0.1098 -0.1628 -0.0601
  908YOPE   D3B13393  11.578   9.129   7.752  0.3078  0.0558 -0.0341
  908YOPE   C4B13394  11.599   8.938   8.138  0.0491  0.0812  0.0051
  909YOPE   NH313395   6.209   3.705   5.990  0.0427  0.1400  0.0985
  909YOPE   PO413396   5.884   4.003   5.838  0.0419 -0.4851  0.0932
  909YOPE   GL113397   5.593   4.119   6.200  0.3873 -0.1772 -0.2028
  909YOPE   GL213398   5.386   4.355   6.251  0.0686 -0.2692  0.2558
  909YOPE   C1A13399   5.594   3.974   6.651  0.1576  0.1126 -0.3086
  909YOPE   D2A13400   5.476   4.085   7.084  0.0464 -0.2073  0.0658
  909YOPE   C3A13401   5.750   4.227   7.379 -0.0240  0.0214 -0.0168
  909YOPE   C4A13402   5.826   4.402   7.769  0.0661  0.1197  0.1620
  909YOPE   C1B13403   5.163   4.634   6.236  0.1719  0.2196  0.2628
  909YOPE   C2B13404   5.018   4.905   6.268 -0.3835  0.0420  0.0339
  909YOPE   D3B13405   4.652   4.998   6.548 -0.4282 -0.3410  0.2775
  909YOPE   C4B13406   4.339   4.787   6.668  0.2678  0.0318  0.1483
  910YOPE   NH313407   9.038  10.583   5.886 -0.1115  0.1064  0.3579
  910YOPE   PO413408   9.340  10.995   5.820  0.2056  0.0248 -0.1711
  910YOPE   GL113409   8.996  10.902   6.251  0.3165 -0.0175 -0.0687
  910YOPE   GL213410   8.674  11.006   6.359  0.0518  0.0075  0.0584
  910YOPE   C1A13411   9.080  11.207   6.598 -0.0376 -0.2137  0.1265
  910YOPE   D2A13412   9.404  11.415   6.892  0.3056  0.0312 -0.0846
  910YOPE   C3A13413   9.399  11.248   7.300  0.0992  0.4330 -0.0005
  910YOPE   C4A13414   9.245  11.469   7.614 -0.1908 -0.1836 -0.3001
  910YOPE   C1B13415   8.739  11.066   6.887  0.0543  0.1342  0.4211
  910YOPE   C2B13416   8.446  11.242   7.192 -0.2108  0.0016 -0.1169
  910YOPE   D3B13417   8.315  11.516   7.462  0.0967  0.1678  0.0117
  910YOPE   C4B13418   7.888  11.558   7.566  0.0742 -0.3612 -0.1574
  911YOPE   NH313419  14.267  12.834   5.631  0.0518 -0.1512 -0.0981
  911YOPE   PO413420  14.384  12.531   5.692  0.0316 -0.2778 -0.2811
  911YOPE   GL113421  14.565  12.464   6.122 -0.0289 -0.1663  0.1274
  911YOPE   GL213422  14.920  12.538   6.085  0.0052  0.3470  0.0755
  911YOPE   C1A13423  14.484  12.316   6.596  0.2472 -0.2436  0.3172
  911YOPE   D2A13424  14.334  12.161   6.907 -0.1780 -0.1059 -0.1457
  911YOPE   C3A13425  14.444  11.866   7.226 -0.0732  0.0899  0.0679
  911YOPE   C4A13426  14.853  11.714   7.476 -0.0040 -0.1526 -0.4017
  911YOPE   C1B13427  14.873  12.720   6.438 -0.2356 -0.0006 -0.2668
  911YOPE   C2B13428  15.043  12.584   6.804 -0.0706 -0.0624 -0.0432
  911YOPE   D3B13429  14.709  12.662   7.132 -0.2710 -0.1128  0.4219
  911YOPE   C4B13430  14.549  12.354   7.358 -0.1875 -0.0437  0.0466
  912YOPE   NH313431   7.894  17.302   5.867 -0.1917 -0.2168  0.1459
  912YOPE   PO413432   8.401  17.188   5.878 -0.2515  0.0236 -0.0141
  912YOPE   GL113433   8.469  17.044   6.335  0.0189  0.0124  0.0960
  912YOPE   GL213434   8.448  16.735   6.454 -0.1669 -0.0026  0.2569
  912YOPE   C1A13435   8.622  17.171   6.758  0.2528  0.0891  0.3173
  912YOPE   D2A13436   8.821  17.290   7.185 -0.0704 -0.3306  0.3171
  912YOPE   C3A13437   8.837  17.655   7.357  0.2578 -0.0410 -0.4466
  912YOPE   C4A13438   9.088  18.023   7.381  0.2805 -0.0434  0.3659
  912YOPE   C1B13439   8.531  16.537   6.796 -0.5691  0.0863  0.0018
  912YOPE   C2B13440   8.469  16.333   7.223  0.0838  0.0791 -0.0443
  912YOPE   D3B13441   8.646  15.941   7.303  0.0735 -0.2159  0.1344
  912YOPE   C4B13442   9.135  15.803   7.464  0.3420 -0.4231 -0.0010
  913YOPE   NH313443   6.601  12.289   5.781 -0.1704 -0.0334  0.1078
  913YOPE   PO413444   6.772  11.826   5.795 -0.0171 -0.1375  0.0402
  913YOPE   GL113445   6.749  11.716   6.165 -0.1799 -0.0552 -0.0295
  913YOPE   GL213446   6.945  11.425   6.283  0.0387  0.0077  0.3961
  913YOPE   C1A13447   6.874  11.801   6.542  0.0655 -0.3089  0.0216
  913YOPE   D2A13448   6.941  12.171   6.835  0.1889  0.2361  0.2738
  913YOPE   C3A13449   7.084  12.120   7.335 -0.0997 -0.1033 -0.4424
  913YOPE   C4A13450   6.981  12.209   7.687 -0.1963 -0.0343  0.0976
  913YOPE   C1B13451   7.390  11.560   6.384 -0.1877  0.0969  0.2285
  913YOPE   C2B13452   7.562  11.468   6.798 -0.0406 -0.0855  0.2003
  913YOPE   D3B13453   7.454  11.426   7.147 -0.1282 -0.1366 -0.1217
  913YOPE   C4B13454   7.334  11.251   7.516  0.2367  0.0469 -0.2649
  914YOPE   NH313455  14.875  17.832   5.443  0.0377 -0.0201 -0.2060
  914YOPE   PO413456  14.781  17.392   5.351 -0.2041  0.2217 -0.1715
  914YOPE   GL113457  14.797  17.326   5.811  0.2749  0.3393  0.0432
  914YOPE   GL213458  14.566  17.504   5.833 -0.1602  0.2258  0.2075
  914YOPE   C1A13459  14.716  17.272   6.235  0.4330 -0.1553  0.3099
  914YOPE   D2A13460  14.752  17.236   6.711 -0.1907  0.1406 -0.3243
  914YOPE   C3A13461  14.508  16.827   7.037 -0.0211  0.4542  0.1025
  914YOPE   C4A13462  14.394  16.706   7.365 -0.2170  0.1959  0.3017
  914YOPE   C1B13463  14.388  17.617   6.262  0.0841 -0.2329 -0.0105
  914YOPE   C2B13464  14.274  17.312   6.562  0.0493 -0.3052  0.0547
  914YOPE   D3B13465  14.382  17.287   7.051 -0.2517  0.0116 -0.1002
  914YOPE   C4B13466  14.425  17.196   7.433  0.0185 -0.0719 -0.0078
  915YOPE   NH313467   0.812   5.524   5.349 -0.1813 -0.1186  0.0485
  915YOPE   PO413468   0.963   5.855   5.626  0.1765  0.0878  0.0365
  915YOPE   GL113469   0.545   5.767   5.767  0.5312 -0.4334  0.0805
  915YOPE   GL213470   0.675   5.594   5.936 -0.0033  0.0340  0.2270
  915YOPE   C1A13471   0.201   5.857   5.952 -0.3255  0.0037 -0.2085
  915YOPE   D2A13472   0.088   5.747   6.405 -0.0554 -0.2231 -0.1572
  915YOPE   C3A13473   0.139   5.697   6.870 -0.0935 -0.0685  0.0454
  915YOPE   C4A13474   0.298   5.758   7.252  0.1803 -0.1516 -0.0418
  915YOPE   C1B13475   0.428   5.476   6.199  0.3436 -0.1936 -0.0580
  915YOPE   C2B13476   0.503   5.202   6.615  0.0007  0.4099  0.1662
  915YOPE   D3B13477   0.550   5.363   7.017  0.0893 -0.1348  0.4703
  915YOPE   C4B13478   0.779   5.573   7.340 -0.1067  0.0724  0.0909
  916YOPE   NH313479   4.459  10.373   5.154  0.1111 -0.0344  0.2451
  916YOPE   PO413480   4.593  10.098   5.434  0.3681  0.0069  0.2061
  916YOPE   GL113481   4.642   9.842   5.824  0.0554 -0.0376  0.1313
  916YOPE   GL213482   4.736   9.552   5.817  0.0183  0.1462 -0.0098
  916YOPE   C1A13483   4.702   9.940   6.266  0.0798  0.0859 -0.0740
  916YOPE   D2A13484   4.488  10.080   6.678 -0.0125  0.1676 -0.1747
  916YOPE   C3A13485   4.418   9.773   6.980  0.2172 -0.0479  0.1216
  916YOPE   C4A13486   4.311   9.667   7.327 -0.0452 -0.0030  0.0201
  916YOPE   C1B13487   4.823   9.434   6.121  0.0249  0.0602 -0.4509
  916YOPE   C2B13488   4.771   9.536   6.640 -0.1313  0.0278 -0.1978
  916YOPE   D3B13489   4.874   9.889   6.805 -0.0945  0.1127  0.1460
  916YOPE   C4B13490   4.818  10.014   7.317 -0.2913  0.1402  0.3295
  917YOPE   NH313491   2.403   8.757   5.274  0.2018 -0.1506 -0.1300
  917YOPE   PO413492   2.881   8.791   5.178 -0.4926 -0.2247  0.3963
  917YOPE   GL113493   2.880   8.883   5.538 -0.1739 -0.2937 -0.0538
  917YOPE   GL213494   3.312   8.931   5.630 -0.1331  0.0489  0.3468
  917YOPE   C1A13495   2.921   9.000   5.962 -0.0906 -0.1636  0.1115
  917YOPE   D2A13496   2.664   9.213   6.292 -0.0359 -0.0640 -0.3438
  917YOPE   C3A13497   2.754   9.129   6.649 -0.0076  0.1257  0.1982
  917YOPE   C4A13498   2.580   9.294   7.025 -0.0482 -0.1619  0.5569
  917YOPE   C1B13499   3.396   8.820   6.039  0.1177  0.0102  0.0893
  917YOPE   C2B13500   3.415   8.647   6.517 -0.2077  0.2044  0.1624
  917YOPE   D3B13501   3.061   8.453   6.797  0.5127 -0.2680  0.1135
  917YOPE   C4B13502   2.862   8.560   7.133 -0.0609 -0.3331  0.1649
  918YOPE   NH313503  18.295   7.595   5.555 -0.0973  0.1677  0.0327
  918YOPE   PO413504  18.678   7.756   5.691  0.2447 -0.2384  0.0212
  918YOPE   GL113505  18.873   7.511   5.934 -0.1338  0.1019 -0.2076
  918YOPE   GL213506  18.880   7.251   5.892  0.1226  0.1958  0.2148
  918YOPE   C1A13507  18.871   7.349   6.364 -0.1252  0.0942  0.0152
  918YOPE   D2A13508  18.873   7.124   6.771 -0.0179 -0.1606 -0.1136
  918YOPE   C3A13509  18.919   6.981   7.234 -0.1140  0.1324  0.3523
  918YOPE   C4A13510  18.917   7.143   7.666  0.3440 -0.3250  0.4459
  918YOPE   C1B13511  18.747   6.890   6.143  0.2588 -0.1074 -0.0359
  918YOPE   C2B13512  18.589   6.773   6.537  0.1052 -0.0431 -0.1042
  918YOPE   D3B13513  18.395   6.627   6.926  0.1577 -0.1971  0.0688
  918YOPE   C4B13514  18.233   6.575   7.284  0.3698  0.2989 -0.0128
  919YOPE   NH313515  15.298   6.194   5.108  0.1453  0.0301 -0.1133
  919YOPE   PO413516  14.939   5.895   5.249  0.2650 -0.1309 -0.1096
  919YOPE   GL113517  15.296   5.831   5.564  0.2082  0.2346 -0.2742
  919YOPE   GL213518  15.503   5.553   5.623 -0.1944 -0.0797  0.2269
  919YOPE   C1A13519  15.560   6.017   5.829 -0.0812  0.1147  0.0919
  919YOPE   D2A13520  15.722   6.111   6.301  0.0135  0.4143  0.2501
  919YOPE   C3A13521  15.396   6.270   6.571  0.1852 -0.0974  0.0510
  919YOPE   C4A13522  15.005   6.201   6.589 -0.2123 -0.0829 -0.0737
  919YOPE   C1B13523  15.465   5.298   5.868 -0.0998 -0.1372  0.0699
  919YOPE   C2B13524  15.590   4.934   6.190  0.0043 -0.2612 -0.0210
  919YOPE   D3B13525  15.862   4.933   6.620 -0.3031  0.1026 -0.0522
  919YOPE   C4B13526  15.821   5.144   7.036 -0.2511 -0.1886 -0.0504
  920YOPE   NH313527  17.126  11.043   5.361 -0.1517  0.0423 -0.0096
  920YOPE   PO413528  17.070  11.492   5.188 -0.0287 -0.2671  0.1140
  920YOPE   GL113529  17.171  11.481   5.624 -0.3254 -0.0318 -0.3534
  920YOPE   GL213530  17.353  11.780   5.806  0.2059  0.2183  0.0663
  920YOPE   C1A13531  17.265  11.216   5.932  0.4441  0.0189  0.1536
  920YOPE   D2A13532  17.418  11.273   6.344  0.0151 -0.0055  0.3176
  920YOPE   C3A13533  17.654  11.633   6.420  0.2245 -0.0032 -0.0873
  920YOPE   C4A13534  17.895  11.635   6.802  0.1172 -0.0050  0.5128
  920YOPE   C1B13535  17.198  11.652   6.142  0.4565  0.0421 -0.0807
  920YOPE   C2B13536  17.211  11.672   6.543  0.0982  0.1053 -0.0248
  920YOPE   D3B13537  17.006  11.848   6.946  0.1732  0.0040 -0.1141
  920YOPE   C4B13538  16.602  11.793   7.040  0.3873  0.1190  0.1862
  921YOPE   NH313539  13.386   7.843   5.408  0.6499  0.0714 -0.2974
  921YOPE   PO413540  13.569   8.188   5.638 -0.4326  0.2441 -0.0198
  921YOPE   GL113541  13.850   8.098   5.962 -0.3671  0.1856 -0.1051
  921YOPE   GL213542  13.886   8.300   6.157  0.0409  0.0849  0.6155
  921YOPE   C1A13543  13.980   7.740   6.200 -0.1173 -0.0583  0.0591
  921YOPE   D2A13544  14.156   7.596   6.546  0.0251 -0.0077 -0.0142
  921YOPE   C3A13545  14.560   7.688   6.710  0.2454  0.0484  0.0187
  921YOPE   C4A13546  14.783   7.459   6.988 -0.0131 -0.0299  0.2098
  921YOPE   C1B13547  14.033   8.112   6.534  0.0482 -0.4741 -0.0181
  921YOPE   C2B13548  14.207   7.972   6.876 -0.1649  0.0583  0.2060
  921YOPE   D3B13549  14.325   7.671   7.265  0.0790  0.0788  0.2514
  921YOPE   C4B13550  14.558   7.331   7.415 -0.0265 -0.3829 -0.1384
  922YOPE   NH313551  16.861  10.104   5.386 -0.1880  0.0639 -0.0186
  922YOPE   PO413552  16.970  10.545   5.411  0.1617  0.2691  0.0191
  922YOPE   GL113553  16.860  10.601   5.777  0.0311  0.1949  0.5088
  922YOPE   GL213554  16.945  10.856   5.835  0.0707 -0.2360 -0.3000
  922YOPE   C1A13555  16.867  10.522   6.171 -0.3935  0.0230 -0.1363
  922YOPE   D2A13556  16.857  10.413   6.542 -0.0065 -0.0994  0.2401
  922YOPE   C3A13557  17.077  10.089   6.752  0.1508  0.4306  0.0882
  922YOPE   C4A13558  17.305   9.851   7.014 -0.2106 -0.0570 -0.0492
  922YOPE   C1B13559  17.053  10.898   6.351 -0.1778  0.1040 -0.0714
  922YOPE   C2B13560  17.276  10.937   6.701  0.0242 -0.0130 -0.1650
  922YOPE   D3B13561  17.454  11.359   6.813  0.2018 -0.0637 -0.1813
  922YOPE   C4B13562  17.482  11.674   7.089 -0.0065  0.1835  0.0500
  923YOPE   NH313563   1.072  11.660   5.415  0.0860 -0.2870 -0.1073
  923YOPE   PO413564   0.646  11.464   5.296  0.0252  0.1003  0.2311
  923YOPE   GL113565   0.236  11.363   5.646 -0.3664 -0.1302 -0.0995
  923YOPE   GL213566  -0.118  11.120   5.607 -0.0767  0.1381  0.3110
  923YOPE   C1A13567   0.168  11.656   5.944 -0.2368  0.1795 -0.1084
  923YOPE   D2A13568   0.059  12.105   6.154 -0.3928 -0.0497 -0.1576
  923YOPE   C3A13569   0.123  12.153   6.655  0.3304 -0.0106  0.1385
  923YOPE   C4A13570   0.309  12.495   6.895 -0.0438  0.0306 -0.1981
  923YOPE   C1B13571   0.100  11.106   6.014  0.2293  0.0063  0.0286
  923YOPE   C2B13572   0.386  11.282   6.297  0.1006 -0.0004 -0.1690
  923YOPE   D3B13573   0.634  11.441   6.618 -0.1669  0.2246 -0.0933
  923YOPE   C4B13574   0.895  11.133   6.853  0.0452 -0.4048 -0.1543
  924YOPE   NH313575   9.433  12.174   5.775  0.1243 -0.2609 -0.2949
  924YOPE   PO413576   9.148  11.847   5.927 -0.0384  0.1446 -0.0140
  924YOPE   GL113577   9.035  11.814   6.344 -0.2891 -0.2053  0.1780
  924YOPE   GL213578   9.377  11.880   6.491 -0.1699  0.0249 -0.3862
  924YOPE   C1A13579   8.990  11.644   6.770  0.0502 -0.1468 -0.1088
  924YOPE   D2A13580   8.915  11.377   7.183 -0.3295 -0.0032  0.2952
  924YOPE   C3A13581   8.776  11.676   7.496 -0.0020  0.0463  0.1591
  924YOPE   C4A13582   8.727  11.597   7.932  0.1535  0.0864  0.0227
  924YOPE   C1B13583   9.755  11.656   6.530  0.1538 -0.2187  0.3722
  924YOPE   C2B13584   9.969  11.829   6.798 -0.0240 -0.2800 -0.0816
  924YOPE   D3B13585  10.187  11.884   7.223 -0.0634  0.0255  0.0702
  924YOPE   C4B13586  10.302  11.533   7.425  0.2797 -0.1793 -0.2149
  925YOPE   NH313587   5.512   1.090   5.758 -0.0276 -0.0515 -0.3575
  925YOPE   PO413588   5.169   0.968   6.006  0.0098  0.0921 -0.2619
  925YOPE   GL113589   5.230   0.686   6.280  0.2538  0.2526  0.0759
  925YOPE   GL213590   5.544   0.781   6.425  0.3681  0.1627 -0.0151
  925YOPE   C1A13591   5.307   0.406   6.694  0.1068  0.1703  0.0674
  925YOPE   D2A13592   5.155   0.661   7.113  0.1693  0.1835 -0.2945
  925YOPE   C3A13593   5.420   0.552   7.467  0.3137 -0.0756 -0.0757
  925YOPE   C4A13594   5.394   0.271   7.864  0.0913 -0.0779  0.0198
  925YOPE   C1B13595   5.673   0.682   6.814  0.0095 -0.0359 -0.0161
  925YOPE   C2B13596   5.844   0.394   7.214  0.0317  0.0895  0.0477
  925YOPE   D3B13597   6.106  -0.056   7.362  0.1083  0.0955 -0.1531
  925YOPE   C4B13598   6.303  -0.185   7.729 -0.0214  0.0606 -0.1275
  926YOPE   NH313599   7.602  13.756   5.687 -0.0500 -0.3800  0.0206
  926YOPE   PO413600   7.247  13.525   5.609 -0.1044 -0.0728 -0.0092
  926YOPE   GL113601   7.079  13.532   5.887 -0.3041  0.1811 -0.5334
  926YOPE   GL213602   7.163  13.913   6.006 -0.1576  0.2102 -0.2789
  926YOPE   C1A13603   7.203  13.552   6.341 -0.0975 -0.1320 -0.3008
  926YOPE   D2A13604   7.259  13.492   6.781 -0.1153 -0.2742  0.0254
  926YOPE   C3A13605   7.636  13.639   7.036  0.3299 -0.1703  0.1053
  926YOPE   C4A13606   7.905  13.489   7.239 -0.0953  0.1161  0.0247
  926YOPE   C1B13607   7.165  14.157   6.407 -0.3350 -0.1965 -0.0900
  926YOPE   C2B13608   6.910  14.037   6.720 -0.0983 -0.1613 -0.2667
  926YOPE   D3B13609   6.400  13.983   6.770  0.0603  0.1140  0.0164
  926YOPE   C4B13610   6.191  13.712   6.591  0.0651  0.0539  0.1689
  927YOPE   NH313611   0.240   7.450   5.475  0.2597  0.0143  0.2664
  927YOPE   PO413612   0.666   7.439   5.328  0.2377  0.0696  0.3240
  927YOPE   GL113613   0.639   7.651   5.760 -0.0628 -0.1130 -0.4046
  927YOPE   GL213614   0.456   7.920   5.822  0.1189  0.0567  0.0342
  927YOPE   C1A13615   0.802   7.899   6.191 -0.1648  0.1319  0.1066
  927YOPE   D2A13616   1.171   7.822   6.413 -0.3655  0.2925  0.1291
  927YOPE   C3A13617   1.214   7.690   6.756 -0.2549 -0.0146  0.2733
  927YOPE   C4A13618   0.953   7.930   6.971  0.1943 -0.0458 -0.1030
  927YOPE   C1B13619   0.509   8.317   6.160  0.0847 -0.3848  0.3993
  927YOPE   C2B13620   0.698   8.754   6.346 -0.2081  0.0585 -0.1320
  927YOPE   D3B13621   0.796   9.057   6.517 -0.2575 -0.2308 -0.0229
  927YOPE   C4B13622   0.705   9.521   6.631  0.1330 -0.3507 -0.2135
  928YOPE   NH313623   7.885   6.123   6.035 -0.0861  0.0125  0.2609
  928YOPE   PO413624   7.636   6.477   5.677  0.2147 -0.0129  0.0611
  928YOPE   GL113625   7.559   6.466   6.173  0.0501  0.2230 -0.0370
  928YOPE   GL213626   7.208   6.389   6.171 -0.0513  0.0912 -0.1735
  928YOPE   C1A13627   7.609   6.648   6.604  0.2446  0.0858  0.2242
  928YOPE   D2A13628   7.495   6.940   6.926  0.0081  0.2801 -0.0980
  928YOPE   C3A13629   7.021   7.019   6.813  0.2146 -0.0066 -0.1633
  928YOPE   C4A13630   6.556   6.918   6.925  0.1283  0.4171  0.0312
  928YOPE   C1B13631   7.104   6.671   6.429 -0.2467 -0.0388 -0.4141
  928YOPE   C2B13632   7.141   6.564   6.835 -0.0866  0.0961  0.1258
  928YOPE   D3B13633   7.089   6.414   7.284  0.4645 -0.1550 -0.1633
  928YOPE   C4B13634   6.892   6.349   7.670  0.3418  0.1575  0.1106
  929YOPE   NH313635   5.468   5.055   5.377 -0.0220 -0.4707 -0.1135
  929YOPE   PO413636   5.828   5.203   5.649 -0.1408 -0.0508 -0.0546
  929YOPE   GL113637   5.814   5.190   5.990 -0.3069  0.2273  0.0311
  929YOPE   GL213638   6.121   5.091   6.170  0.0234 -0.1171  0.0331
  929YOPE   C1A13639   5.543   5.048   6.177 -0.3395 -0.0506  0.2625
  929YOPE   D2A13640   5.467   4.918   6.638 -0.1559 -0.1728  0.0793
  929YOPE   C3A13641   5.117   4.998   6.765  0.0182 -0.1219  0.1714
  929YOPE   C4A13642   4.804   4.641   6.933 -0.1089  0.0334 -0.0210
  929YOPE   C1B13643   5.940   4.983   6.575  0.2738  0.0517 -0.1307
  929YOPE   C2B13644   5.888   5.264   6.906  0.1544 -0.1120 -0.2481
  929YOPE   D3B13645   5.773   5.463   7.284  0.5594 -0.0780  0.2082
  929YOPE   C4B13646   5.865   5.329   7.743 -0.1941 -0.3249  0.3361
  930YOPE   NH313647   9.105  13.014   5.497  0.0616  0.0821 -0.1355
  930YOPE   PO413648   9.048  13.376   5.842 -0.0246 -0.1005 -0.0896
  930YOPE   GL113649   9.235  13.578   6.154  0.2542  0.1784 -0.1505
  930YOPE   GL213650   9.348  13.776   6.038  0.0119 -0.3217 -0.0413
  930YOPE   C1A13651   9.042  13.595   6.473  0.0065  0.0105  0.1383
  930YOPE   D2A13652   8.813  13.710   6.887 -0.0830 -0.2148 -0.2507
  930YOPE   C3A13653   9.043  13.570   7.192  0.0349 -0.0368 -0.0205
  930YOPE   C4A13654   9.280  13.481   7.518 -0.0217 -0.0739 -0.1478
  930YOPE   C1B13655   9.445  13.941   6.479 -0.2702 -0.3380 -0.1458
  930YOPE   C2B13656   9.402  13.883   6.916  0.3689  0.2048  0.3940
  930YOPE   D3B13657   9.608  13.614   7.185 -0.0834 -0.0981  0.2751
  930YOPE   C4B13658   9.968  13.457   7.174 -0.2386 -0.1660 -0.1946
  931YOPE   NH313659  13.594  16.590   5.513 -0.0031 -0.0765 -0.1738
  931YOPE   PO413660  13.267  16.793   5.115  0.2907  0.0414  0.2468
  931YOPE   GL113661  13.315  17.018   5.457 -0.0299  0.1653 -0.3611
  931YOPE   GL213662  13.019  17.203   5.569 -0.1138  0.1730 -0.1203
  931YOPE   C1A13663  13.458  17.271   5.874  0.2747 -0.0380 -0.0148
  931YOPE   D2A13664  13.838  17.389   6.159 -0.2802  0.2734 -0.0482
  931YOPE   C3A13665  14.240  17.144   6.070 -0.2596  0.0448 -0.1089
  931YOPE   C4A13666  14.653  16.877   6.009 -0.1593  0.0000 -0.1805
  931YOPE   C1B13667  12.924  17.053   5.941 -0.2910 -0.4031  0.3566
  931YOPE   C2B13668  12.889  17.028   6.405 -0.0645  0.0561  0.2341
  931YOPE   D3B13669  13.015  16.858   6.721 -0.3074  0.1998 -0.1836
  931YOPE   C4B13670  13.151  16.621   7.178 -0.2048 -0.2137  0.2346
  932YOPE   NH313671   8.846  11.309   5.964 -0.3391 -0.2087  0.0039
  932YOPE   PO413672   8.292  11.205   6.036  0.2313  0.1583  0.0320
  932YOPE   GL113673   8.168  11.025   6.375  0.2897 -0.0763  0.2520
  932YOPE   GL213674   7.942  11.363   6.430 -0.2438 -0.0123  0.0033
  932YOPE   C1A13675   8.198  11.096   6.785  0.0246 -0.0693  0.0799
  932YOPE   D2A13676   7.880  11.231   7.162  0.1868  0.3672 -0.3212
  932YOPE   C3A13677   8.108  10.970   7.490  0.3236 -0.1169 -0.2072
  932YOPE   C4A13678   8.221  10.540   7.791  0.0993  0.2006 -0.1299
  932YOPE   C1B13679   7.779  11.846   6.568 -0.2393 -0.0587  0.1032
  932YOPE   C2B13680   8.073  12.179   6.720  0.0061  0.0542 -0.2520
  932YOPE   D3B13681   8.156  12.266   7.158  0.1306 -0.1798  0.1063
  932YOPE   C4B13682   8.038  12.086   7.496 -0.0927  0.2690  0.2670
  933YOPE   NH313683  17.660   6.542   5.296 -0.2118  0.1692 -0.2936
  933YOPE   PO413684  17.903   6.649   5.571 -0.3062  0.3052 -0.1101
  933YOPE   GL113685  18.180   6.533   5.799  0.0693 -0.0656  0.3148
  933YOPE   GL213686  18.487   6.443   5.803  0.0536  0.2137  0.0107
  933YOPE   C1A13687  18.330   6.475   6.267  0.1080  0.2903  0.2416
  933YOPE   D2A13688  18.673   6.261   6.409  0.3359 -0.2245 -0.1802
  933YOPE   C3A13689  18.858   6.178   6.816  0.1472 -0.4994  0.1037
  933YOPE   C4A13690  19.211   6.230   7.171 -0.3100  0.1306  0.2120
  933YOPE   C1B13691  18.857   6.403   5.960  0.2162  0.0967 -0.0042
  933YOPE   C2B13692  19.143   6.458   6.326 -0.1274 -0.2648  0.3007
  933YOPE   D3B13693  19.285   6.169   6.639 -0.1484  0.2317 -0.1561
  933YOPE   C4B13694  19.450   5.822   6.756 -0.2636  0.0250  0.1564
  934YOPE   NH313695   6.776  13.700   5.532  0.0336  0.1893 -0.1492
  934YOPE   PO413696   6.660  13.991   5.841 -0.0227 -0.1775  0.1267
  934YOPE   GL113697   6.672  13.925   6.288 -0.2080  0.1833  0.1663
  934YOPE   GL213698   6.555  14.231   6.358 -0.2242  0.2829  0.3342
  934YOPE   C1A13699   6.756  13.626   6.576  0.2522  0.3422 -0.0683
  934YOPE   D2A13700   6.714  13.661   6.953 -0.0872 -0.0408 -0.3475
  934YOPE   C3A13701   7.214  13.828   7.187 -0.1266 -0.1235 -0.0707
  934YOPE   C4A13702   7.433  14.107   7.505  0.0445  0.2113 -0.1215
  934YOPE   C1B13703   6.598  14.402   6.784 -0.0635  0.0509  0.1034
  934YOPE   C2B13704   6.785  14.696   7.026  0.1935  0.2399 -0.0460
  934YOPE   D3B13705   6.932  14.740   7.318 -0.1260 -0.2285  0.0622
  934YOPE   C4B13706   7.270  14.554   7.556  0.2428 -0.2869  0.2459
  935YOPE   NH313707  15.101  15.070   4.614 -0.1735  0.1542  0.0400
  935YOPE   PO413708  15.428  15.135   4.860  0.2626 -0.1452 -0.2298
  935YOPE   GL113709  15.379  15.317   5.277  0.3607 -0.0131  0.1903
  935YOPE   GL213710  15.425  15.532   5.511  0.0454 -0.0317 -0.0841
  935YOPE   C1A13711  15.314  15.067   5.712 -0.0320  0.0224  0.0721
  935YOPE   D2A13712  15.197  15.114   6.117  0.0868  0.4417  0.1680
  935YOPE   C3A13713  15.179  15.208   6.612  0.5358  0.0817 -0.1421
  935YOPE   C4A13714  15.231  15.346   7.043 -0.1400  0.0433 -0.0331
  935YOPE   C1B13715  15.576  15.794   5.793  0.3048 -0.1447  0.0469
  935YOPE   C2B13716  15.838  15.985   6.231 -0.1901 -0.1799 -0.0928
  935YOPE   D3B13717  15.854  15.731   6.559  0.1065 -0.2547 -0.3157
  935YOPE   C4B13718  15.956  15.507   6.980  0.0902  0.0213 -0.1188
  936YOPE   NH313719   6.199  14.292   5.825  0.0987 -0.1160 -0.1793
  936YOPE   PO413720   6.589  14.644   5.815 -0.1096  0.0038 -0.1902
  936YOPE   GL113721   6.790  14.909   6.168  0.0283  0.1911 -0.0941
  936YOPE   GL213722   6.768  15.102   6.586  0.2807  0.0041  0.0557
  936YOPE   C1A13723   6.991  14.616   6.453  0.0130  0.4138  0.0700
  936YOPE   D2A13724   7.221  14.514   6.785  0.0362 -0.1077  0.3183
  936YOPE   C3A13725   7.120  14.316   7.119 -0.0502 -0.1540  0.0797
  936YOPE   C4A13726   6.776  14.096   7.216 -0.1526  0.2955 -0.1611
  936YOPE   C1B13727   6.584  15.441   6.852 -0.1236  0.1137 -0.1937
  936YOPE   C2B13728   6.317  15.430   7.179 -0.1636  0.3151 -0.0728
  936YOPE   D3B13729   6.018  15.605   7.453 -0.2240  0.1327  0.3383
  936YOPE   C4B13730   5.938  15.935   7.684 -0.2634  0.2393  0.1045
  937YOPE   NH313731   0.540  12.385   5.585  0.0251 -0.1662 -0.1799
  937YOPE   PO413732   0.916  12.636   5.679  0.2677 -0.0480  0.0208
  937YOPE   GL113733   0.884  12.647   6.077  0.2732 -0.0036 -0.1576
  937YOPE   GL213734   0.940  12.986   6.221  0.0166  0.0701 -0.0766
  937YOPE   C1A13735   0.574  12.544   6.454  0.0118  0.1018 -0.0191
  937YOPE   D2A13736   0.106  12.667   6.468 -0.0822  0.1375  0.2756
  937YOPE   C3A13737   0.010  12.895   6.777 -0.3301 -0.1946  0.2401
  937YOPE   C4A13738   0.212  12.965   7.113  0.0042  0.0778  0.1895
  937YOPE   C1B13739   1.016  12.752   6.584  0.0491  0.0281  0.2311
  937YOPE   C2B13740   0.802  12.546   6.890  0.0207 -0.0417 -0.0953
  937YOPE   D3B13741   0.678  12.723   7.229  0.2075 -0.1834  0.0735
  937YOPE   C4B13742   0.353  12.502   7.492 -0.3169  0.1361 -0.1142
  938YOPE   NH313743  10.696  15.196   5.589  0.4236  0.0359  0.0869
  938YOPE   PO413744  11.099  15.165   5.566 -0.1508 -0.2144 -0.1051
  938YOPE   GL113745  11.199  15.285   5.902  0.4326  0.3768 -0.0340
  938YOPE   GL213746  11.153  14.967   6.070 -0.0748  0.0785  0.2036
  938YOPE   C1A13747  11.255  15.353   6.407 -0.2605 -0.3371  0.0996
  938YOPE   D2A13748  11.241  15.396   6.861  0.1180 -0.0193 -0.1455
  938YOPE   C3A13749  11.168  15.760   6.960 -0.0640 -0.1643  0.0936
  938YOPE   C4A13750  11.198  16.164   7.058  0.0483  0.0370 -0.0215
  938YOPE   C1B13751  11.060  14.705   6.462  0.1006 -0.2319  0.2033
  938YOPE   C2B13752  10.898  14.523   6.864  0.2650 -0.1930 -0.1571
  938YOPE   D3B13753  10.762  14.514   7.364 -0.1714 -0.2614  0.0839
  938YOPE   C4B13754  10.574  14.486   7.792 -0.1926  0.2143  0.0069
  939YOPE   NH313755   6.095   7.418   5.629 -0.0921  0.2642 -0.2068
  939YOPE   PO413756   6.280   7.774   5.736 -0.2303 -0.0872  0.0649
  939YOPE   GL113757   6.297   8.025   6.117 -0.1010  0.1260 -0.0482
  939YOPE   GL213758   6.277   8.281   6.053  0.1778  0.3403  0.0824
  939YOPE   C1A13759   6.172   7.909   6.553  0.0413  0.1995 -0.1935
  939YOPE   D2A13760   6.000   8.043   7.028 -0.5351  0.1456 -0.0782
  939YOPE   C3A13761   5.672   7.914   7.306 -0.0953  0.0934 -0.1329
  939YOPE   C4A13762   5.267   7.981   7.408 -0.2209 -0.1336  0.0733
  939YOPE   C1B13763   6.062   8.509   6.154  0.1841 -0.0521  0.1409
  939YOPE   C2B13764   5.842   8.678   6.582 -0.0057 -0.3118  0.4804
  939YOPE   D3B13765   5.760   8.992   6.734  0.0686  0.0741 -0.2063
  939YOPE   C4B13766   5.920   9.117   7.162  0.0485 -0.1783 -0.4199
  940YOPE   NH313767   9.092   4.026   6.138 -0.3919  0.2385  0.2467
  940YOPE   PO413768   9.432   4.256   6.255 -0.0069  0.1127 -0.2043
  940YOPE   GL113769   9.263   4.104   6.637  0.1440  0.1837  0.3160
  940YOPE   GL213770   8.929   3.955   6.645 -0.1027 -0.0215  0.2057
  940YOPE   C1A13771   9.343   3.873   7.056  0.1663 -0.0138  0.0137
  940YOPE   D2A13772   9.500   3.629   7.374  0.0763 -0.0089 -0.2837
  940YOPE   C3A13773   9.915   3.775   7.602  0.0457  0.4014  0.3787
  940YOPE   C4A13774  10.180   4.031   7.658 -0.0435 -0.1696  0.2163
  940YOPE   C1B13775   8.864   4.207   6.995 -0.1650  0.1917  0.2065
  940YOPE   C2B13776   8.577   4.151   7.146 -0.0661  0.0075 -0.0894
  940YOPE   D3B13777   8.261   3.921   7.375  0.0215 -0.0009  0.1955
  940YOPE   C4B13778   8.052   3.815   7.672 -0.0017  0.2332 -0.2248
  941POPC   NC313779  12.149  16.449   4.841  0.4937  0.1304  0.1892
  941POPC   PO413780  12.026  16.157   5.100 -0.0017  0.1104  0.1344
  941POPC   GL113781  12.084  16.274   5.507  0.2864  0.0357 -0.2208
  941POPC   GL213782  12.009  15.980   5.735  0.2501  0.0231 -0.3385
  941POPC   C1A13783  11.788  16.465   5.822 -0.0745  0.4430 -0.1984
  941POPC   D2A13784  11.672  16.665   6.136 -0.0593 -0.0883  0.0153
  941POPC   C3A13785  11.453  16.712   6.498  0.2137 -0.1748  0.2448
  941POPC   C4A13786  11.086  16.538   6.771  0.0212  0.2197 -0.3253
  941POPC   C1B13787  12.270  16.230   6.002 -0.2639  0.0577  0.1364
  941POPC   C2B13788  12.505  16.215   6.370 -0.0681  0.0459  0.4772
  941POPC   C3B13789  12.590  16.016   6.752 -0.0062  0.2131  0.0675
  941POPC   C4B13790  12.463  16.036   7.161  0.2058 -0.0566 -0.0081
  942POPC   NC313791  16.407  17.304   5.390 -0.1614  0.2017  0.2144
  942POPC   PO413792  16.760  17.282   5.051 -0.1543 -0.1096 -0.0413
  942POPC   GL113793  16.979  17.106   5.446  0.4965 -0.0091 -0.0409
  942POPC   GL213794  17.249  16.996   5.545  0.2029  0.3716  0.0518
  942POPC   C1A13795  16.918  17.212   5.946  0.2690  0.0953 -0.2963
  942POPC   D2A13796  16.901  16.833   6.314 -0.2684  0.2555  0.2692
  942POPC   C3A13797  16.631  16.777   6.615 -0.2848 -0.0098 -0.1239
  942POPC   C4A13798  16.606  16.715   6.997  0.0120  0.0595  0.1653
  942POPC   C1B13799  16.979  16.742   5.814  0.2650 -0.2698 -0.2649
  942POPC   C2B13800  16.586  16.880   5.928 -0.4048 -0.2339 -0.0371
  942POPC   C3B13801  16.095  16.994   5.900 -0.0370 -0.1837 -0.0100
  942POPC   C4B13802  15.660  17.062   5.932 -0.0717  0.1203  0.0608
  943POPC   NC313803  11.598  10.781   5.896  0.1561 -0.2201 -0.0143
  943POPC   PO413804  11.645  10.621   5.585  0.0867  0.1493  0.2035
  943POPC   GL113805  11.834  10.336   5.991  0.0528  0.1313  0.2013
  943POPC   GL213806  11.570  10.414   6.252 -0.2971  0.0294  0.0371
  943POPC   C1A13807  12.029  10.253   6.378 -0.1441  0.0595  0.1480
  943POPC   D2A13808  12.099  10.217   6.880 -0.1658 -0.1689 -0.2304
  943POPC   C3A13809  12.196  10.617   6.998 -0.2722 -0.1786 -0.2143
  943POPC   C4A13810  12.338  10.696   7.437 -0.0526  0.2727  0.1246
  943POPC   C1B13811  11.740  10.534   6.727  0.1096  0.2542  0.1451
  943POPC   C2B13812  11.771  10.403   7.197  0.2458 -0.1544 -0.1575
  943POPC   C3B13813  11.848  10.257   7.567  0.1140  0.0627 -0.1308
  943POPC   C4B13814  11.808  10.154   8.036 -0.0015  0.1376 -0.0004
  944POPC   NC313815   9.812   7.146   5.702 -0.1320 -0.1630 -0.0604
  944POPC   PO413816   9.934   7.122   6.131 -0.0831 -0.1957 -0.0381
  944POPC   GL113817   9.705   6.950   6.494  0.0743 -0.1225  0.4013
  944POPC   GL213818   9.580   7.311   6.596  0.0851 -0.2903 -0.0194
  944POPC   C1A13819   9.490   6.873   6.967 -0.5766 -0.1905  0.2090
  944POPC   D2A13820   9.402   6.465   7.202 -0.1776 -0.0797  0.1063
  944POPC   C3A13821   9.197   6.474   7.558 -0.1656 -0.2683 -0.3535
  944POPC   C4A13822   8.924   6.424   7.892  0.1613  0.0429 -0.0413
  944POPC   C1B13823   9.481   7.411   6.958  0.0203  0.3379 -0.1296
  944POPC   C2B13824   9.571   7.323   7.304  0.3150  0.0844  0.1387
  944POPC   C3B13825   9.893   7.310   7.640  0.1710  0.3841 -0.0504
  944POPC   C4B13826  10.044   7.333   8.104  0.0611 -0.0349  0.2752
  945POPC   NC313827   7.999   3.686   5.757 -0.0502  0.0427 -0.0792
  945POPC   PO413828   8.253   3.836   6.050 -0.1344 -0.1036 -0.0580
  945POPC   GL113829   8.517   3.812   6.383  0.3782 -0.0201  0.0817
  945POPC   GL213830   8.278   4.003   6.533 -0.0319 -0.0315  0.2726
  945POPC   C1A13831   8.576   3.587   6.687 -0.3229 -0.0573  0.0130
  945POPC   D2A13832   8.996   3.512   6.975  0.0137 -0.0524 -0.3359
  945POPC   C3A13833   9.076   3.362   7.457 -0.0315  0.3303 -0.2180
  945POPC   C4A13834   8.913   3.344   7.900 -0.1085  0.0228 -0.1723
  945POPC   C1B13835   8.055   3.854   6.890 -0.0258  0.3071  0.1327
  945POPC   C2B13836   7.687   3.829   7.179  0.1668  0.0428  0.2665
  945POPC   C3B13837   7.574   3.595   7.535  0.1188  0.4086  0.1131
  945POPC   C4B13838   7.508   3.470   7.918 -0.0152  0.0812 -0.1862
  946POPC   NC313839  13.350   6.659   5.315  0.2037 -0.0110 -0.0509
  946POPC   PO413840  13.380   6.437   5.653 -0.2841 -0.3189 -0.0509
  946POPC   GL113841  13.627   6.691   5.923 -0.1837 -0.2921  0.0154
  946POPC   GL213842  13.947   6.629   6.056 -0.0077 -0.1152  0.1088
  946POPC   C1A13843  13.488   6.705   6.306  0.4119  0.2973  0.0110
  946POPC   D2A13844  13.271   6.714   6.682 -0.0131  0.2216  0.3439
  946POPC   C3A13845  13.195   6.321   6.772 -0.0855  0.2933  0.1382
  946POPC   C4A13846  13.171   5.989   6.785 -0.0262 -0.0728 -0.0654
  946POPC   C1B13847  13.980   6.579   6.484  0.1796  0.2619  0.1087
  946POPC   C2B13848  14.254   6.390   6.805  0.1821  0.2144  0.0643
  946POPC   C3B13849  14.380   6.421   7.191  0.1853 -0.1461  0.2129
  946POPC   C4B13850  14.568   6.001   7.448  0.6558  0.1752  0.1381
  947POPC   NC313851   4.714  13.174   5.937  0.4252 -0.1630 -0.1730
  947POPC   PO413852   4.848  13.579   5.938 -0.3452 -0.0795 -0.0061
  947POPC   GL113853   4.554  13.634   6.165  0.1428 -0.0641  0.0319
  947POPC   GL213854   4.533  13.859   6.273 -0.0424  0.0761  0.1205
  947POPC   C1A13855   4.180  13.550   6.353  0.0415 -0.1893 -0.3808
  947POPC   D2A13856   3.958  13.313   6.762 -0.0335 -0.1798 -0.0813
  947POPC   C3A13857   4.156  13.337   7.172  0.0190  0.0026  0.1454
  947POPC   C4A13858   4.341  13.626   7.470  0.2786  0.4740 -0.2656
  947POPC   C1B13859   4.599  14.184   6.653  0.1137  0.1815  0.0543
  947POPC   C2B13860   4.273  14.259   7.009 -0.1176 -0.0540  0.0386
  947POPC   C3B13861   4.293  14.106   7.447  0.0195  0.0739  0.3448
  947POPC   C4B13862   3.922  13.829   7.605  0.1840 -0.0012 -0.4286
  948POPC   NC313863   5.696  15.697   5.827 -0.0405  0.0730  0.1063
  948POPC   PO413864   6.113  15.558   5.859  0.0282 -0.0030  0.2823
  948POPC   GL113865   5.901  15.669   6.276 -0.1546 -0.1423  0.1533
  948POPC   GL213866   5.702  15.352   6.271  0.0487 -0.0908  0.4389
  948POPC   C1A13867   5.890  16.050   6.568 -0.1555  0.0582 -0.0042
  948POPC   D2A13868   5.643  16.171   6.981 -0.0914  0.0804 -0.2314
  948POPC   C3A13869   5.849  16.343   7.411  0.1512  0.0801 -0.0599
  948POPC   C4A13870   5.794  16.396   7.846 -0.0221 -0.0238  0.1850
  948POPC   C1B13871   5.463  15.201   6.549 -0.2318  0.2793  0.0186
  948POPC   C2B13872   5.470  14.873   6.935  0.0899  0.1561  0.0023
  948POPC   C3B13873   5.398  14.628   7.292 -0.0185  0.3333 -0.1848
  948POPC   C4B13874   5.731  14.287   7.421  0.1110 -0.1523  0.1130
  949POPC   NC313875  14.856  12.263   5.607  0.0857  0.2978 -0.2329
  949POPC   PO413876  14.508  12.069   5.834  0.1085  0.1209 -0.0086
  949POPC   GL113877  14.642  12.011   6.184 -0.2694  0.2601  0.0274
  949POPC   GL213878  14.522  11.624   6.126  0.2390 -0.1844  0.2901
  949POPC   C1A13879  14.992  11.787   6.493  0.2913  0.1072 -0.2180
  949POPC   D2A13880  15.281  11.776   6.786  0.0933  0.1364  0.3639
  949POPC   C3A13881  15.244  11.648   7.191 -0.3548 -0.1965 -0.1490
  949POPC   C4A13882  15.350  11.680   7.624  0.1411  0.1715  0.0499
  949POPC   C1B13883  14.700  11.392   6.375 -0.3887 -0.2559  0.0466
  949POPC   C2B13884  15.153  11.290   6.344  0.1448 -0.1163 -0.2651
  949POPC   C3B13885  15.449  11.208   6.691  0.2016  0.0495 -0.0704
  949POPC   C4B13886  15.617  10.992   6.944 -0.1933 -0.2203  0.0306
  950POPC   NC313887  10.905   8.095   6.261 -0.3818 -0.1259 -0.1090
  950POPC   PO413888  10.738   8.426   6.170 -0.0441 -0.2100 -0.1847
  950POPC   GL113889  10.608   8.604   6.506 -0.3563 -0.2537 -0.0947
  950POPC   GL213890  10.370   8.826   6.367  0.0024 -0.1825 -0.2175
  950POPC   C1A13891  10.506   8.528   6.868  0.1031  0.1337 -0.0741
  950POPC   D2A13892  10.742   8.433   7.200  0.2698 -0.7144  0.2313
  950POPC   C3A13893  11.220   8.450   7.097 -0.1955 -0.1475 -0.1572
  950POPC   C4A13894  11.529   8.730   7.338  0.0382 -0.2767 -0.4782
  950POPC   C1B13895  10.087   8.610   6.672  0.1052  0.3819  0.0904
  950POPC   C2B13896  10.034   8.774   7.095  0.0877  0.0491 -0.0718
  950POPC   C3B13897   9.939   8.943   7.571  0.2273  0.0922 -0.1107
  950POPC   C4B13898   9.931   9.194   7.923  0.0411  0.0343 -0.1598
  951POPC   NC313899  17.034   0.018   4.954 -0.0380 -0.1225 -0.1506
  951POPC   PO413900  16.804   0.400   5.194 -0.1697  0.2162 -0.2214
  951POPC   GL113901  16.960   0.380   5.573 -0.0612  0.1640  0.1082
  951POPC   GL213902  17.184   0.544   5.742 -0.0308 -0.3252 -0.1817
  951POPC   C1A13903  17.027   0.158   6.023 -0.1893 -0.1337  0.0539
  951POPC   D2A13904  17.287   0.126   6.389  0.1852 -0.1358 -0.0133
  951POPC   C3A13905  17.192   0.413   6.759  0.0393  0.0263  0.2876
  951POPC   C4A13906  16.972   0.801   6.967 -0.0365 -0.0047 -0.2102
  951POPC   C1B13907  17.399   0.506   6.143  0.0960  0.1525 -0.1812
  951POPC   C2B13908  17.511   0.759   6.417  0.0963 -0.1218 -0.1791
  951POPC   C3B13909  17.477   0.990   6.823 -0.0222 -0.0034 -0.2710
  951POPC   C4B13910  17.225   1.183   7.259  0.0209 -0.0221 -0.0422
  952POPC   NC313911  15.716   3.811   4.894 -0.0874  0.5478  0.3358
  952POPC   PO413912  15.399   3.602   4.911  0.2385  0.3255  0.0034
  952POPC   GL113913  15.470   3.396   5.217 -0.1132 -0.2602  0.1170
  952POPC   GL213914  15.194   3.304   5.353  0.1094  0.2102  0.2426
  952POPC   C1A13915  15.714   3.267   5.466  0.2516  0.3877  0.0130
  952POPC   D2A13916  15.904   2.862   5.751 -0.3905 -0.3773 -0.0399
  952POPC   C3A13917  16.221   2.762   6.072  0.3128  0.0761 -0.3966
  952POPC   C4A13918  16.445   2.512   6.410 -0.1695  0.3548  0.0636
  952POPC   C1B13919  15.290   3.302   5.720 -0.3997  0.0831 -0.2277
  952POPC   C2B13920  15.618   3.227   5.950 -0.0476  0.0169 -0.4894
  952POPC   C3B13921  15.722   2.877   6.277 -0.1329  0.0157  0.2468
  952POPC   C4B13922  15.519   2.630   6.605 -0.1145  0.2907  0.2839
  953POPC   NC313923   0.868   6.313   5.464 -0.0274 -0.1304 -0.2421
  953POPC   PO413924   1.187   6.634   5.555  0.0888 -0.1494  0.0055
  953POPC   GL113925   0.931   6.764   5.860 -0.1059 -0.1695 -0.1110
  953POPC   GL213926   0.790   6.513   5.918 -0.1450 -0.1371 -0.0205
  953POPC   C1A13927   0.872   6.951   6.245 -0.2265  0.4643  0.0898
  953POPC   D2A13928   0.950   6.926   6.666 -0.3569 -0.0978 -0.0426
  953POPC   C3A13929   0.616   6.651   6.782 -0.4017  0.1155  0.0722
  953POPC   C4A13930   0.128   6.616   6.778 -0.0284  0.0599 -0.2744
  953POPC   C1B13931   0.854   6.416   6.327  0.1069  0.0734  0.0191
  953POPC   C2B13932   0.910   6.229   6.668 -0.0665 -0.3262  0.2403
  953POPC   C3B13933   1.165   5.996   6.877  0.0177 -0.5829 -0.0634
  953POPC   C4B13934   1.497   5.964   7.236 -0.1478 -0.2062  0.2430
  954POPC   NC313935   5.796  17.921   5.654  0.1320 -0.1098  0.1245
  954POPC   PO413936   5.302  17.817   5.569 -0.1017  0.1556  0.0746
  954POPC   GL113937   5.484  17.736   6.028  0.1415 -0.0800 -0.0541
  954POPC   GL213938   5.469  17.395   6.092  0.0778 -0.2005  0.1443
  954POPC   C1A13939   5.276  17.790   6.392  0.0322  0.1570 -0.6273
  954POPC   D2A13940   5.124  17.877   6.851 -0.1290  0.2269 -0.1386
  954POPC   C3A13941   4.998  18.276   6.914 -0.4590  0.0222  0.2913
  954POPC   C4A13942   4.926  18.429   7.305 -0.1472  0.3460 -0.1319
  954POPC   C1B13943   5.182  17.193   6.362 -0.0686  0.0692 -0.0354
  954POPC   C2B13944   5.128  16.812   6.570  0.2119 -0.5254  0.1993
  954POPC   C3B13945   5.093  16.529   6.943 -0.1745  0.1275  0.1380
  954POPC   C4B13946   5.184  16.254   7.236  0.0132  0.1870  0.1068
  955POPC   NC313947   8.818   1.079   5.534  0.1018  0.0249  0.1953
  955POPC   PO413948   8.609   0.734   5.551 -0.0004 -0.3302 -0.1849
  955POPC   GL113949   8.546   0.898   5.981 -0.1564 -0.1069  0.0277
  955POPC   GL213950   8.299   0.972   6.117  0.2491  0.2645 -0.4494
  955POPC   C1A13951   8.825   0.921   6.297 -0.2186 -0.0190  0.0112
  955POPC   D2A13952   9.042   0.529   6.449 -0.0711  0.3539  0.2027
  955POPC   C3A13953   9.121   0.442   6.769  0.1940  0.1128 -0.1804
  955POPC   C4A13954   9.090   0.250   7.283 -0.2280 -0.0251  0.2113
  955POPC   C1B13955   8.050   1.158   6.506  0.1672 -0.4035 -0.0007
  955POPC   C2B13956   7.953   1.332   6.943 -0.0623 -0.1995 -0.0461
  955POPC   C3B13957   7.885   1.523   7.302 -0.1345  0.1462  0.0101
  955POPC   C4B13958   7.596   1.556   7.559 -0.2581  0.1021  0.2251
  956POPC   NC313959  15.798  13.573   4.967 -0.2643  0.1895 -0.0559
  956POPC   PO413960  15.933  13.532   5.424 -0.2251 -0.0707  0.2429
  956POPC   GL113961  15.942  13.580   5.873  0.2624  0.2766  0.6324
  956POPC   GL213962  16.161  13.361   5.909  0.3249  0.2455 -0.0717
  956POPC   C1A13963  15.771  13.635   6.191  0.0650  0.1286 -0.1628
  956POPC   D2A13964  15.440  13.711   6.503  0.2364 -0.0186  0.3633
  956POPC   C3A13965  15.399  13.514   6.887  0.0695 -0.0398  0.2096
  956POPC   C4A13966  15.119  13.244   7.165 -0.0443 -0.2176  0.3244
  956POPC   C1B13967  16.123  13.351   6.347 -0.2491  0.1000  0.1432
  956POPC   C2B13968  16.172  13.190   6.791 -0.0895  0.0522 -0.1097
  956POPC   C3B13969  16.221  12.981   7.172 -0.0293 -0.3013  0.1709
  956POPC   C4B13970  16.062  13.161   7.482  0.1433 -0.0993  0.2532
  957POPC   NC313971   0.154   4.500   5.007 -0.0640 -0.1157  0.3342
  957POPC   PO413972   0.245   4.477   5.345 -0.2317 -0.0512 -0.1170
  957POPC   GL113973   0.180   4.571   5.691 -0.2055  0.1661  0.0896
  957POPC   GL213974   0.268   4.217   5.816  0.1500 -0.1461 -0.2006
  957POPC   C1A13975  -0.062   4.658   6.088 -0.0651 -0.3550  0.0268
  957POPC   D2A13976  -0.405   4.544   6.428 -0.0645 -0.1786  0.2101
  957POPC   C3A13977  -0.542   4.805   6.689 -0.0618 -0.1663  0.1433
  957POPC   C4A13978  -0.361   5.007   6.979 -0.0886 -0.3173  0.0834
  957POPC   C1B13979   0.450   3.975   6.097  0.1725  0.1890 -0.0172
  957POPC   C2B13980   0.792   4.107   6.268  0.1268  0.1044 -0.0086
  957POPC   C3B13981   1.050   4.518   6.134  0.3915  0.0828  0.1871
  957POPC   C4B13982   1.488   4.504   6.144 -0.0325  0.2441 -0.0908
  958POPC   NC313983   7.058   4.343   6.393  0.0393 -0.4086  0.1353
  958POPC   PO413984   6.904   4.600   6.071 -0.1628  0.2680 -0.1148
  958POPC   GL113985   6.757   4.746   6.469  0.2118 -0.0238 -0.0093
  958POPC   GL213986   6.506   4.929   6.485 -0.1693 -0.1817 -0.0591
  958POPC   C1A13987   6.527   4.538   6.861  0.1208  0.0728  0.3803
  958POPC   D2A13988   6.262   4.639   7.162 -0.0491  0.1822 -0.1308
  958POPC   C3A13989   5.808   4.603   7.041  0.0276  0.0837  0.0622
  958POPC   C4A13990   5.560   4.988   7.102  0.1385  0.1159 -0.0352
  958POPC   C1B13991   6.367   5.022   6.878 -0.1313 -0.0971  0.1535
  958POPC   C2B13992   6.158   5.070   7.282  0.0125 -0.0332 -0.2714
  958POPC   C3B13993   5.881   4.836   7.504  0.0221 -0.3160 -0.3006
  958POPC   C4B13994   5.475   5.053   7.573  0.0950 -0.4090 -0.1004
  959POPC   NC313995   4.841  10.724   5.404 -0.0937 -0.0497  0.2634
  959POPC   PO413996   5.219  10.732   5.209  0.0974  0.3669 -0.0032
  959POPC   GL113997   5.230  10.616   5.668  0.1919 -0.0524  0.0115
  959POPC   GL213998   5.445  10.322   5.761 -0.0572  0.0560  0.1350
  959POPC   C1A13999   5.086  10.661   6.113 -0.2388  0.0361 -0.1037
  959POPC   D2A14000   4.965  10.334   6.451  0.0675  0.1323 -0.2745
  959POPC   C3A14001   4.631  10.601   6.549  0.2452 -0.0792  0.0517
  959POPC   C4A14002   4.562  10.967   6.684  0.0174 -0.4374 -0.2273
  959POPC   C1B14003   5.247  10.101   6.076 -0.4128  0.0560 -0.0670
  959POPC   C2B14004   5.219   9.840   6.387 -0.1175  0.1012 -0.4033
  959POPC   C3B14005   5.325   9.745   6.771 -0.0921 -0.0543 -0.0278
  959POPC   C4B14006   5.249   9.803   7.198  0.2986 -0.1479 -0.1452
  960POPC   NC314007  14.272  17.887   5.076 -0.0040 -0.2740 -0.0046
  960POPC   PO414008  14.310  17.913   5.467  0.0043 -0.0038 -0.0178
  960POPC   GL114009  14.063  17.811   5.767  0.3976  0.0576  0.2576
  960POPC   GL214010  13.635  17.719   5.760 -0.0072 -0.0362 -0.1980
  960POPC   C1A14011  13.947  17.913   6.256 -0.0259 -0.1568  0.1109
  960POPC   D2A14012  13.623  17.926   6.429  0.2633 -0.0666  0.1385
  960POPC   C3A14013  13.400  17.847   6.861 -0.2522 -0.2960 -0.0511
  960POPC   C4A14014  13.088  17.949   7.179  0.1402  0.1122 -0.0585
  960POPC   C1B14015  13.354  17.741   5.960 -0.0948  0.0980 -0.0774
  960POPC   C2B14016  13.147  17.879   6.392 -0.1488  0.2359 -0.0919
  960POPC   C3B14017  13.019  18.171   6.700 -0.2450 -0.0475  0.0256
  960POPC   C4B14018  12.723  18.432   6.979  0.0560  0.2277  0.1409
  961POPC   NC314019   2.172  16.034   4.912 -0.3962  0.0963 -0.1405
  961POPC   PO414020   1.872  16.088   5.276 -0.2489 -0.0748  0.2459
  961POPC   GL114021   1.755  16.166   5.799 -0.1986  0.1783 -0.2121
  961POPC   GL214022   1.613  16.435   5.941  0.1362 -0.1998  0.0540
  961POPC   C1A14023   1.918  16.130   6.188  0.1053  0.1761  0.2356
  961POPC   D2A14024   2.089  16.052   6.607  0.1487 -0.0711 -0.1301
  961POPC   C3A14025   1.904  16.053   6.925 -0.3216  0.0085 -0.1801
  961POPC   C4A14026   2.129  16.289   7.221  0.4149 -0.1503 -0.1629
  961POPC   C1B14027   1.781  16.543   6.314 -0.0586  0.1668 -0.4921
  961POPC   C2B14028   1.673  16.918   6.697 -0.0137 -0.1436  0.0683
  961POPC   C3B14029   1.792  17.399   6.843  0.0662  0.1779  0.0261
  961POPC   C4B14030   1.837  17.742   7.111  0.0602  0.3201  0.0986
  962POPC   NC314031   1.917  12.492   5.263 -0.1852  0.1024  0.1183
  962POPC   PO414032   1.612  12.795   5.313 -0.0812  0.2105 -0.0559
  962POPC   GL114033   1.905  12.824   5.697 -0.2792 -0.3034 -0.1087
  962POPC   GL214034   1.918  13.208   5.761  0.1833  0.0261 -0.0639
  962POPC   C1A14035   1.867  12.787   6.105 -0.0260  0.1089 -0.1757
  962POPC   D2A14036   1.871  12.599   6.368  0.0561 -0.1294 -0.0002
  962POPC   C3A14037   1.631  12.561   6.684  0.1612  0.0180 -0.1843
  962POPC   C4A14038   1.348  12.702   6.900 -0.4251 -0.0413 -0.2525
  962POPC   C1B14039   2.099  13.173   6.244 -0.2716 -0.0533  0.2693
  962POPC   C2B14040   1.855  13.085   6.594 -0.4150 -0.1677  0.0650
  962POPC   C3B14041   1.731  12.908   7.122  0.1418  0.1199  0.0486
  962POPC   C4B14042   1.494  12.957   7.496  0.4133  0.3100  0.0779
  963POPC   NC314043   3.259   8.530   5.296  0.0537  0.0100 -0.1468
  963POPC   PO414044   3.672   8.550   5.330  0.1929 -0.0395  0.1408
  963POPC   GL114045   3.662   8.555   5.687  0.1323  0.0386 -0.2102
  963POPC   GL214046   3.536   8.167   5.668  0.0588  0.0482  0.2628
  963POPC   C1A14047   3.894   8.585   6.136  0.4893 -0.0040  0.3715
  963POPC   D2A14048   4.123   8.600   6.441  0.0857  0.1328  0.1781
  963POPC   C3A14049   4.333   8.974   6.669  0.0656 -0.2377  0.2973
  963POPC   C4A14050   4.424   9.337   6.881 -0.1218  0.0777 -0.0006
  963POPC   C1B14051   3.363   8.279   6.010 -0.1443 -0.0095 -0.1227
  963POPC   C2B14052   3.035   8.488   6.061  0.4651 -0.1609 -0.0117
  963POPC   C3B14053   2.907   8.722   6.425 -0.2061 -0.0054 -0.3368
  963POPC   C4B14054   2.525   8.533   6.650  0.0325  0.2052  0.2959
  964POPC   NC314055   5.171   7.169   5.439 -0.2636 -0.0418 -0.3366
  964POPC   PO414056   5.666   7.428   5.406 -0.2929 -0.0036  0.1927
  964POPC   GL114057   5.699   7.120   5.698  0.1211  0.0293 -0.1306
  964POPC   GL214058   5.496   6.990   6.006  0.2127  0.2085 -0.0686
  964POPC   C1A14059   5.952   7.063   6.110 -0.1828 -0.1315 -0.2294
  964POPC   D2A14060   6.109   6.987   6.458 -0.1453 -0.1002  0.1143
  964POPC   C3A14061   6.600   6.871   6.350  0.1488 -0.3401  0.1472
  964POPC   C4A14062   6.927   7.136   6.304 -0.3598  0.2623  0.1995
  964POPC   C1B14063   5.570   7.017   6.416 -0.1175  0.1358  0.1803
  964POPC   C2B14064   5.565   6.916   6.787 -0.0911 -0.1282  0.0580
  964POPC   C3B14065   5.268   6.673   7.133  0.2322  0.1266 -0.0594
  964POPC   C4B14066   5.077   6.221   7.221  0.1299  0.3256 -0.3301
  965POPC   NC314067  12.867  10.300   5.796 -0.0864 -0.3718  0.1051
  965POPC   PO414068  13.149  10.658   5.696 -0.0094  0.1299  0.0997
  965POPC   GL114069  12.846  10.823   5.922  0.0892 -0.0263  0.1960
  965POPC   GL214070  12.921  10.619   6.203  0.1480 -0.3551 -0.3227
  965POPC   C1A14071  12.574  11.009   6.277  0.2975 -0.1006 -0.2661
  965POPC   D2A14072  12.598  10.956   6.662 -0.1450 -0.1244  0.4762
  965POPC   C3A14073  12.406  11.271   7.017  0.2287 -0.3147  0.2046
  965POPC   C4A14074  12.661  11.413   7.328  0.2239 -0.1814  0.2138
  965POPC   C1B14075  13.118  10.278   6.388  0.3910  0.1609 -0.1685
  965POPC   C2B14076  13.310  10.168   6.793 -0.1242 -0.1776  0.0396
  965POPC   C3B14077  13.516  10.088   7.059  0.0944  0.0002  0.1368
  965POPC   C4B14078  13.966   9.870   7.253  0.0974 -0.0638 -0.0009
  966POPC   NC314079   8.434   2.828   5.644  0.1271  0.0247  0.0278
  966POPC   PO414080   8.606   3.136   5.895  0.2393 -0.1273 -0.0198
  966POPC   GL114081   8.758   3.236   6.295 -0.1379 -0.0457  0.0261
  966POPC   GL214082   8.990   3.553   6.389 -0.0223  0.2056  0.1328
  966POPC   C1A14083   8.824   3.138   6.723  0.2294  0.0355  0.0340
  966POPC   D2A14084   9.222   2.934   7.015 -0.1229 -0.0154 -0.1490
  966POPC   C3A14085   9.151   2.678   7.424 -0.6725  0.0381 -0.3308
  966POPC   C4A14086   9.273   2.488   7.751 -0.1455  0.1404  0.0682
  966POPC   C1B14087   9.370   3.585   6.632  0.0668  0.0211 -0.2131
  966POPC   C2B14088   9.698   3.825   6.688  0.0599  0.3239  0.1688
  966POPC   C3B14089   9.880   3.861   7.094  0.2072  0.5165  0.2122
  966POPC   C4B14090   9.722   4.184   7.265  0.3025 -0.1348  0.0839
  967POPC   NC314091  12.587  13.655   5.259  0.0234  0.5197  0.1672
  967POPC   PO414092  12.463  13.860   5.691 -0.3181  0.2371  0.0982
  967POPC   GL114093  12.725  13.955   6.153 -0.0748  0.0644  0.0115
  967POPC   GL214094  12.932  14.233   6.209  0.2761  0.0675  0.0311
  967POPC   C1A14095  12.599  14.004   6.591 -0.1516 -0.0642 -0.1406
  967POPC   D2A14096  12.640  14.259   6.986 -0.1188 -0.4379 -0.1185
  967POPC   C3A14097  13.001  14.302   7.045  0.1415  0.0205 -0.0275
  967POPC   C4A14098  13.271  14.574   7.246 -0.1759 -0.3579 -0.1851
  967POPC   C1B14099  13.103  14.500   6.502 -0.1400  0.0519  0.1488
  967POPC   C2B14100  12.967  14.763   6.876  0.0702 -0.1722 -0.0791
  967POPC   C3B14101  12.794  14.687   7.291 -0.2242 -0.0661 -0.2156
  967POPC   C4B14102  12.834  14.667   7.750 -0.1341  0.4007  0.1073
  968POPC   NC314103   6.150  17.474   5.147  0.2891  0.0697 -0.1307
  968POPC   PO414104   6.260  17.612   5.521  0.1611  0.0424 -0.0263
  968POPC   GL114105   6.222  17.501   5.952 -0.1064 -0.1987 -0.1030
  968POPC   GL214106   6.131  17.760   6.084 -0.0300 -0.0976  0.0163
  968POPC   C1A14107   6.426  17.445   6.380 -0.0599 -0.2016 -0.1719
  968POPC   D2A14108   6.809  17.543   6.552  0.1052 -0.2105 -0.1921
  968POPC   C3A14109   6.832  17.832   6.815  0.0766  0.0184  0.1420
  968POPC   C4A14110   6.513  17.875   7.071  0.1162  0.2215  0.1760
  968POPC   C1B14111   5.905  17.852   6.374 -0.1335 -0.1548  0.0569
  968POPC   C2B14112   5.596  18.071   6.664  0.1177 -0.2039 -0.1962
  968POPC   C3B14113   5.564  18.448   6.669 -0.0584 -0.0564 -0.1055
  968POPC   C4B14114   5.645  18.916   6.803 -0.0039  0.0890  0.0286
  969POPC   NC314115  18.349   0.585   4.943 -0.0838 -0.2160 -0.2253
  969POPC   PO414116  18.758   0.662   5.066  0.0264 -0.1439 -0.1622
  969POPC   GL114117  18.475   0.481   5.424  0.0204 -0.0569 -0.1803
  969POPC   GL214118  18.150   0.655   5.446  0.1102  0.1218 -0.2315
  969POPC   C1A14119  18.579   0.366   5.841 -0.1258 -0.1884 -0.0093
  969POPC   D2A14120  18.496   0.340   6.333  0.0562  0.0746 -0.1962
  969POPC   C3A14121  18.749   0.560   6.762 -0.1441 -0.1183  0.2464
  969POPC   C4A14122  18.827   0.650   7.084 -0.0054  0.4042  0.2140
  969POPC   C1B14123  18.325   0.783   5.906 -0.1270  0.1395  0.1498
  969POPC   C2B14124  18.448   0.841   6.355  0.3282  0.0854  0.4970
  969POPC   C3B14125  18.476   0.939   6.792 -0.0268  0.0422 -0.1739
  969POPC   C4B14126  18.632   1.140   7.158 -0.2762 -0.0860 -0.0036
  970POPC   NC314127   1.306   3.816   5.516  0.2070 -0.1658 -0.0648
  970POPC   PO414128   0.915   3.728   5.608 -0.0897  0.0830 -0.2295
  970POPC   GL114129   0.843   3.674   6.012 -0.4082  0.1939  0.2794
  970POPC   GL214130   1.150   3.561   6.079 -0.1173  0.2288  0.0385
  970POPC   C1A14131   0.796   3.623   6.463 -0.0003 -0.0947 -0.1729
  970POPC   D2A14132   0.887   3.524   6.911 -0.1512  0.2402 -0.3313
  970POPC   C3A14133   0.478   3.429   7.215 -0.0661 -0.1364  0.0581
  970POPC   C4A14134   0.466   3.576   7.672 -0.1643 -0.3474 -0.0638
  970POPC   C1B14135   1.206   3.340   6.462 -0.1360 -0.2361 -0.1075
  970POPC   C2B14136   1.255   3.140   6.770 -0.2567  0.0205  0.2761
  970POPC   C3B14137   1.477   3.120   7.160 -0.1225 -0.0375 -0.2166
  970POPC   C4B14138   1.811   3.297   7.292  0.0551  0.1201  0.4640
  971POPC   NC314139   6.772  15.991   5.418 -0.0009 -0.2057 -0.0123
  971POPC   PO414140   6.986  16.033   5.869  0.0463  0.1133  0.2495
  971POPC   GL114141   7.096  16.258   6.259 -0.2447  0.0004 -0.0667
  971POPC   GL214142   7.183  16.603   6.238 -0.0124 -0.1390  0.2157
  971POPC   C1A14143   6.903  16.332   6.703 -0.0206 -0.0981 -0.1103
  971POPC   D2A14144   7.007  16.415   7.069  0.1144  0.2745  0.0527
  971POPC   C3A14145   6.825  16.168   7.419 -0.2877 -0.5157 -0.0686
  971POPC   C4A14146   6.922  15.904   7.708  0.3329 -0.1437  0.3308
  971POPC   C1B14147   7.266  16.652   6.657  0.0266 -0.2920  0.2208
  971POPC   C2B14148   7.306  16.761   7.012 -0.1203 -0.0650  0.0882
  971POPC   C3B14149   7.430  16.745   7.404 -0.3648 -0.1937  0.1688
  971POPC   C4B14150   7.562  16.659   7.707 -0.1075  0.2406  0.0209
  972POPC   NC314151  10.468   0.638   4.886 -0.2650 -0.2214  0.0015
  972POPC   PO414152  10.357   0.632   5.374 -0.0411 -0.2083 -0.1119
  972POPC   GL114153  10.327   0.629   5.761  0.1316 -0.0179  0.1742
  972POPC   GL214154  10.085   0.833   5.795 -0.1055 -0.0530 -0.0573
  972POPC   C1A14155  10.346   0.674   6.228 -0.1384  0.0384  0.1109
  972POPC   D2A14156  10.562   0.956   6.493  0.0628  0.0993 -0.0920
  972POPC   C3A14157  10.914   0.958   6.836 -0.3594  0.1271 -0.2216
  972POPC   C4A14158  11.252   0.651   7.033  0.1506 -0.2158  0.0121
  972POPC   C1B14159  10.142   1.216   6.198 -0.1004  0.1916  0.0212
  972POPC   C2B14160  10.195   1.426   6.570  0.2839 -0.1223  0.0267
  972POPC   C3B14161  10.188   1.404   7.025 -0.2622  0.4242  0.0148
  972POPC   C4B14162  10.517   1.171   7.272 -0.0101 -0.1871  0.1710
  973POPC   NC314163   5.873  15.001   5.967  0.0282 -0.1501  0.1765
  973POPC   PO414164   5.791  14.566   5.898 -0.0547  0.0101  0.1553
  973POPC   GL114165   5.563  14.634   6.307 -0.1701  0.1039  0.3093
  973POPC   GL214166   5.784  14.870   6.423  0.0112 -0.2181  0.3047
  973POPC   C1A14167   5.568  14.464   6.730  0.2999 -0.0876 -0.2667
  973POPC   D2A14168   5.508  14.173   6.988 -0.0204 -0.1645 -0.0942
  973POPC   C3A14169   5.216  14.101   7.269  0.0181 -0.2574 -0.1343
  973POPC   C4A14170   4.861  14.137   7.624 -0.3917  0.1237 -0.0849
  973POPC   C1B14171   5.961  14.725   6.739  0.0566  0.2296 -0.1036
  973POPC   C2B14172   6.176  14.486   7.027 -0.1670  0.2607  0.2822
  973POPC   C3B14173   6.402  14.618   7.402 -0.0354  0.3817 -0.1758
  973POPC   C4B14174   6.367  14.717   7.731  0.0497  0.2339  0.0998
  974POPC   NC314175  14.272   6.899   5.572 -0.2732  0.2775  0.6721
  974POPC   PO414176  14.732   6.799   5.538 -0.1271 -0.2903 -0.1773
  974POPC   GL114177  14.700   7.051   5.861  0.2928  0.1504 -0.0342
  974POPC   GL214178  14.532   6.965   6.079  0.1161  0.0241  0.1786
  974POPC   C1A14179  14.811   7.181   6.331 -0.0242  0.2015  0.0907
  974POPC   D2A14180  15.073   7.258   6.635 -0.2046  0.1239  0.0618
  974POPC   C3A14181  15.305   7.318   6.953 -0.1310  0.0094 -0.1154
  974POPC   C4A14182  15.209   7.605   7.169  0.2066 -0.1681 -0.0714
  974POPC   C1B14183  14.372   7.137   6.493 -0.0265  0.2270 -0.2274
  974POPC   C2B14184  14.178   6.847   6.824 -0.0827  0.1024 -0.4042
  974POPC   C3B14185  14.072   6.863   7.202 -0.1094 -0.0098  0.0296
  974POPC   C4B14186  14.115   7.181   7.383  0.1711 -0.2462  0.2724
  975POPC   NC314187  11.244  14.058   5.872 -0.0387  0.0634  0.0191
  975POPC   PO414188  11.179  14.423   5.740 -0.1783 -0.0070 -0.3361
  975POPC   GL114189  11.356  14.449   6.185  0.2464  0.1562 -0.4262
  975POPC   GL214190  11.489  14.659   6.169 -0.1050  0.4364 -0.1779
  975POPC   C1A14191  11.121  14.186   6.472 -0.2691 -0.3686 -0.3442
  975POPC   D2A14192  10.741  14.006   6.583 -0.1399  0.1445  0.0625
  975POPC   C3A14193  10.805  13.630   6.919  0.2235  0.1474 -0.2577
  975POPC   C4A14194  10.624  13.225   6.883  0.1038  0.1134  0.2599
  975POPC   C1B14195  11.490  14.417   6.658 -0.3605  0.0321 -0.1993
  975POPC   C2B14196  11.701  14.199   7.054  0.1272  0.2566 -0.0701
  975POPC   C3B14197  11.934  13.921   7.246 -0.0034 -0.2053  0.1428
  975POPC   C4B14198  12.088  13.966   7.745 -0.5308 -0.0361  0.1292
  976POPC   NC314199   1.481   1.256   5.166 -0.2082  0.1483  0.1861
  976POPC   PO414200   1.085   1.517   5.340 -0.0175 -0.1326  0.0737
  976POPC   GL114201   0.920   1.524   5.729 -0.2786  0.1296  0.0989
  976POPC   GL214202   0.627   1.743   5.884 -0.1863 -0.1994 -0.1316
  976POPC   C1A14203   0.965   1.613   6.245 -0.1791  0.2696 -0.1151
  976POPC   D2A14204   0.822   1.807   6.671  0.4254 -0.1812  0.0990
  976POPC   C3A14205   0.718   2.317   6.615 -0.1369 -0.0918  0.0700
  976POPC   C4A14206   0.549   2.699   6.475 -0.2895 -0.2950 -0.0804
  976POPC   C1B14207   0.193   1.635   6.026 -0.4826 -0.1642 -0.1688
  976POPC   C2B14208   0.012   1.633   6.492  0.1285  0.1581 -0.5588
  976POPC   C3B14209  -0.168   1.961   6.712  0.3710 -0.1115 -0.1676
  976POPC   C4B14210  -0.502   2.038   6.952  0.0625  0.2043 -0.3301
  977POPC   NC314211  10.793   6.572   6.223  0.2542  0.4302 -0.1960
  977POPC   PO414212  10.745   7.107   6.199 -0.4042  0.1896 -0.5132
  977POPC   GL114213  10.855   7.326   6.596  0.4273  0.1714  0.1610
  977POPC   GL214214  11.036   7.657   6.551 -0.1916  0.1048 -0.0931
  977POPC   C1A14215  10.719   7.496   7.006 -0.2389  0.0740 -0.0503
  977POPC   D2A14216  10.707   7.532   7.454  0.2618  0.1292 -0.1650
  977POPC   C3A14217  10.365   7.349   7.536  0.0793 -0.1729  0.1251
  977POPC   C4A14218  10.282   7.020   7.788 -0.0273 -0.2742  0.5581
  977POPC   C1B14219  11.271   7.677   6.966  0.1648 -0.3041 -0.0331
  977POPC   C2B14220  11.421   7.844   7.298 -0.2001 -0.2477  0.2036
  977POPC   C3B14221  11.401   8.222   7.613 -0.0792  0.2735 -0.0843
  977POPC   C4B14222  11.316   8.180   8.005 -0.0610  0.0501  0.0363
  978POPC   NC314223   1.468  17.484   5.197 -0.0014  0.3482 -0.1527
  978POPC   PO414224   1.111  17.254   5.359 -0.1028  0.0873 -0.0502
  978POPC   GL114225   1.087  17.259   5.843 -0.4719 -0.2451 -0.1653
  978POPC   GL214226   0.827  17.227   5.888 -0.1598  0.1006  0.1205
  978POPC   C1A14227   1.033  17.115   6.308  0.1243 -0.0090  0.1178
  978POPC   D2A14228   0.997  16.908   6.778 -0.4890 -0.1187  0.0064
  978POPC   C3A14229   0.826  17.082   7.134  0.0116 -0.4694 -0.0297
  978POPC   C4A14230   0.772  17.450   7.418  0.4327 -0.1490 -0.0854
  978POPC   C1B14231   0.540  17.173   6.192 -0.1184  0.2122  0.0455
  978POPC   C2B14232   0.518  17.032   6.639 -0.0453 -0.1076 -0.0530
  978POPC   C3B14233   0.369  17.173   6.993 -0.0006 -0.1307  0.0729
  978POPC   C4B14234   0.267  17.337   7.414 -0.0963  0.0158 -0.1206
  979POPC   NC314235  11.936   7.129   5.718  0.0733  0.0886  0.1267
  979POPC   PO414236  11.691   6.959   5.998  0.0111  0.0027 -0.0360
  979POPC   GL114237  11.610   6.901   6.477  0.0684  0.3180 -0.0979
  979POPC   GL214238  11.281   6.896   6.551 -0.4623  0.1239  0.1386
  979POPC   C1A14239  11.730   6.935   6.957 -0.0338  0.0463 -0.0123
  979POPC   D2A14240  11.785   6.980   7.404  0.3500  0.0911  0.1932
  979POPC   C3A14241  11.505   6.837   7.626  0.0000  0.1403  0.1182
  979POPC   C4A14242  11.584   6.732   8.040 -0.3400  0.0255  0.3749
  979POPC   C1B14243  11.073   6.907   6.914  0.2082 -0.4298  0.1119
  979POPC   C2B14244  11.104   7.187   7.292  0.2336 -0.0412 -0.0709
  979POPC   C3B14245  11.162   7.318   7.638  0.1384 -0.2510  0.1296
  979POPC   C4B14246  11.373   7.264   7.978  0.0974 -0.0886  0.1471
  980POPC   NC314247  12.593   9.499   5.352  0.0495 -0.2076  0.0335
  980POPC   PO414248  12.459   9.078   5.675  0.1109  0.1041 -0.3087
  980POPC   GL114249  12.445   9.122   6.070  0.3397 -0.1759  0.0363
  980POPC   GL214250  12.563   9.349   6.116 -0.0706  0.0694 -0.1651
  980POPC   C1A14251  12.249   8.998   6.421 -0.0201 -0.0715 -0.0393
  980POPC   D2A14252  12.277   9.008   6.874 -0.2339  0.5188  0.1144
  980POPC   C3A14253  12.477   9.275   7.171 -0.3129  0.0313  0.3483
  980POPC   C4A14254  12.711   9.141   7.449  0.3303 -0.3351  0.0164
  980POPC   C1B14255  12.385   9.717   6.176  0.2117  0.4185  0.2011
  980POPC   C2B14256  12.503  10.055   6.357  0.1173  0.2393 -0.0119
  980POPC   C3B14257  12.474  10.504   6.494  0.0424 -0.1410 -0.2454
  980POPC   C4B14258  12.148  10.892   6.582  0.0034 -0.1626  0.1226
  981YOPC   NC314259   4.200   2.041   5.243 -0.0564  0.1944  0.0604
  981YOPC   PO414260   4.193   2.245   5.676  0.0647 -0.0317 -0.0762
  981YOPC   GL114261   4.236   2.431   6.075 -0.0802  0.0825  0.0207
  981YOPC   GL214262   4.038   2.751   6.100 -0.1292 -0.1812  0.0449
  981YOPC   C1A14263   4.230   2.647   6.524 -0.0419  0.5077 -0.1720
  981YOPC   D2A14264   4.160   2.986   6.914  0.2304 -0.0224  0.0851
  981YOPC   C3A14265   4.523   3.189   7.147  0.1792  0.2646 -0.0096
  981YOPC   C4A14266   4.768   3.211   7.303  0.0782 -0.0315  0.1050
  981YOPC   C1B14267   4.292   3.120   6.374  0.0425 -0.0638 -0.1730
  981YOPC   C2B14268   4.397   3.461   6.753 -0.1682  0.0748 -0.1332
  981YOPC   D3B14269   4.851   3.449   6.856 -0.1360  0.1301 -0.0504
  981YOPC   C4B14270   5.300   3.160   7.040 -0.1047  0.0444 -0.0200
  982YOPC   NC314271   0.130  16.182   5.040 -0.1322 -0.4017 -0.0508
  982YOPC   PO414272   0.039  16.625   5.248  0.0362  0.0036 -0.1846
  982YOPC   GL114273   0.258  16.823   5.572  0.0051  0.1540 -0.3305
  982YOPC   GL214274   0.246  17.210   5.727 -0.0220  0.1688 -0.2569
  982YOPC   C1A14275   0.330  16.807   5.956  0.1584 -0.0707 -0.0886
  982YOPC   D2A14276   0.788  16.721   6.174  0.0006 -0.0503  0.0682
  982YOPC   C3A14277   0.689  16.546   6.608  0.1662  0.1444  0.0459
  982YOPC   C4A14278   0.584  16.646   6.937  0.0027 -0.1151 -0.1162
  982YOPC   C1B14279   0.141  17.505   6.113 -0.3162  0.1728  0.0523
  982YOPC   C2B14280   0.232  17.377   6.518  0.0203  0.0620 -0.1925
  982YOPC   D3B14281  -0.046  17.432   6.791 -0.2717 -0.1622 -0.1863
  982YOPC   C4B14282  -0.226  17.373   7.160 -0.1408 -0.1180  0.0345
  983YOPC   NC314283   5.307  11.535   5.672  0.2797  0.1513  0.1956
  983YOPC   PO414284   5.154  11.156   5.460 -0.2425  0.1681  0.2543
  983YOPC   GL114285   5.404  11.035   5.830 -0.1311  0.1043 -0.0019
  983YOPC   GL214286   5.207  11.340   6.097 -0.2204  0.2915  0.0155
  983YOPC   C1A14287   5.487  10.944   6.242 -0.0570  0.3595 -0.2081
  983YOPC   D2A14288   5.600  10.720   6.689  0.3996 -0.1091  0.0139
  983YOPC   C3A14289   5.395  10.677   7.117  0.2296 -0.5207 -0.0142
  983YOPC   C4A14290   5.090  10.438   7.402 -0.1905  0.1946  0.0070
  983YOPC   C1B14291   4.925  11.115   6.406 -0.0974 -0.0458 -0.0556
  983YOPC   C2B14292   5.125  10.766   6.638 -0.1298 -0.1047 -0.0112
  983YOPC   D3B14293   4.939  10.886   7.019 -0.0933  0.2352 -0.0671
  983YOPC   C4B14294   4.747  10.771   7.373  0.0280  0.1508  0.0118
  984YOPC   NC314295  16.416   3.934   4.737 -0.2521  0.0717  0.2435
  984YOPC   PO414296  16.167   3.634   4.967  0.2947  0.3867  0.1661
  984YOPC   GL114297  15.985   3.628   5.303  0.2291  0.0475 -0.0632
  984YOPC   GL214298  16.294   3.344   5.363 -0.4434  0.0735  0.1925
  984YOPC   C1A14299  16.048   3.552   5.767  0.1223  0.0415  0.1751
  984YOPC   D2A14300  16.026   3.461   6.193 -0.1228 -0.0131 -0.0323
  984YOPC   C3A14301  16.339   3.181   6.392 -0.3034 -0.0721  0.2488
  984YOPC   C4A14302  16.454   2.883   6.687  0.0279  0.2204 -0.0792
  984YOPC   C1B14303  16.366   3.179   5.832  0.0037 -0.0188  0.0751
  984YOPC   C2B14304  16.720   3.025   6.097  0.0904  0.1126 -0.1397
  984YOPC   D3B14305  16.727   2.640   5.956  0.1312 -0.3742 -0.1196
  984YOPC   C4B14306  16.616   2.215   5.878  0.3058  0.0749 -0.2658
  985YOPC   NC314307   3.068   3.176   5.413  0.1924  0.0889  0.1404
  985YOPC   PO414308   2.876   2.855   5.589  0.0830  0.2075 -0.2370
  985YOPC   GL114309   2.735   2.946   6.068 -0.1263 -0.2113 -0.0315
  985YOPC   GL214310   3.006   3.200   5.963 -0.0670 -0.0252 -0.2872
  985YOPC   C1A14311   2.705   2.900   6.498  0.1184 -0.2462  0.1241
  985YOPC   D2A14312   2.642   3.137   6.821  0.2161  0.1745 -0.0866
  985YOPC   C3A14313   2.489   3.178   7.217  0.0847 -0.3418  0.1558
  985YOPC   C4A14314   2.197   3.049   7.517 -0.0965 -0.1880 -0.0537
  985YOPC   C1B14315   2.839   3.436   6.399  0.0704 -0.1936 -0.0903
  985YOPC   C2B14316   2.586   3.636   6.667  0.1450 -0.0212  0.0002
  985YOPC   D3B14317   2.700   3.573   7.056  0.0325  0.3106  0.1659
  985YOPC   C4B14318   3.042   3.746   7.412 -0.1901 -0.2267  0.3022
  986YOPC   NC314319  15.297   2.313   4.956 -0.0208 -0.0657  0.1759
  986YOPC   PO414320  15.373   2.698   5.135 -0.0233 -0.0588 -0.1459
  986YOPC   GL114321  15.337   2.756   5.613 -0.3431  0.1238  0.0517
  986YOPC   GL214322  15.051   2.673   5.715 -0.1613 -0.0497 -0.0814
  986YOPC   C1A14323  15.501   2.469   5.925 -0.1199  0.0491 -0.1175
  986YOPC   D2A14324  15.452   2.154   6.276  0.1418  0.1952  0.2612
  986YOPC   C3A14325  15.063   1.908   6.468  0.2353 -0.2238  0.0235
  986YOPC   C4A14326  14.666   1.744   6.391 -0.1209 -0.1623 -0.0990
  986YOPC   C1B14327  15.258   2.922   6.070 -0.1424  0.1974  0.1801
  986YOPC   C2B14328  15.236   3.060   6.501 -0.1816 -0.2039 -0.1291
  986YOPC   D3B14329  15.031   3.327   6.733 -0.2268  0.1833 -0.0192
  986YOPC   C4B14330  15.014   3.408   7.126 -0.2323 -0.5118 -0.0315
  987YOPC   NC314331  18.618   3.096   5.386 -0.3173 -0.2185  0.1858
  987YOPC   PO414332  18.430   2.685   5.501  0.1673  0.1605 -0.0482
  987YOPC   GL114333  18.669   2.767   5.850 -0.0938 -0.0397  0.1147
  987YOPC   GL214334  18.953   2.578   5.825  0.1284 -0.0875  0.0309
  987YOPC   C1A14335  18.843   2.699   6.272 -0.0310 -0.0670 -0.4399
  987YOPC   D2A14336  18.846   2.820   6.791 -0.3070  0.2019 -0.1249
  987YOPC   C3A14337  19.221   2.975   7.013  0.2333  0.2908  0.2896
  987YOPC   C4A14338  19.614   3.038   6.728 -0.0316 -0.2726  0.0456
  987YOPC   C1B14339  19.232   2.396   6.119  0.3082 -0.3056  0.1316
  987YOPC   C2B14340  19.241   2.004   6.391  0.3303  0.0570 -0.0164
  987YOPC   D3B14341  19.162   1.950   6.884 -0.1625  0.0958  0.3975
  987YOPC   C4B14342  19.419   1.983   7.264  0.0987  0.0606  0.0577
  988YOPC   NC314343  16.946   5.326   4.976 -0.2418 -0.0206 -0.0888
  988YOPC   PO414344  16.726   5.710   4.952  0.2353 -0.0259  0.1689
  988YOPC   GL114345  16.720   5.561   5.333 -0.2571 -0.1999 -0.1556
  988YOPC   GL214346  16.814   5.244   5.485  0.0236 -0.0811 -0.0275
  988YOPC   C1A14347  16.544   5.708   5.792 -0.2305 -0.1323  0.4326
  988YOPC   D2A14348  16.494   5.732   6.311 -0.0778 -0.0400 -0.0529
  988YOPC   C3A14349  16.789   5.669   6.637 -0.0159 -0.1308 -0.3916
  988YOPC   C4A14350  17.085   5.559   6.898  0.0763  0.1778 -0.0534
  988YOPC   C1B14351  17.208   5.175   5.796 -0.0488  0.0495 -0.0008
  988YOPC   C2B14352  17.523   5.091   6.220 -0.1475 -0.1285  0.2635
  988YOPC   D3B14353  17.527   5.211   6.592  0.0272 -0.0791  0.0848
  988YOPC   C4B14354  17.587   5.006   6.904 -0.0928  0.3036  0.2894
  989YOPC   NC314355   5.447   3.763   5.890 -0.0949  0.0908 -0.0986
  989YOPC   PO414356   5.366   3.295   5.780  0.2960  0.2678 -0.0978
  989YOPC   GL114357   5.435   3.348   6.225 -0.0734  0.1149 -0.0064
  989YOPC   GL214358   5.271   3.158   6.498 -0.0378 -0.1891  0.0741
  989YOPC   C1A14359   5.628   3.417   6.751  0.0982 -0.0571 -0.0507
  989YOPC   D2A14360   5.676   3.504   7.155  0.1045 -0.2732  0.2573
  989YOPC   C3A14361   5.521   3.772   7.458 -0.1085  0.1984 -0.0192
  989YOPC   C4A14362   5.341   3.752   7.769  0.2159 -0.1034  0.2811
  989YOPC   C1B14363   5.144   2.822   6.661  0.2185 -0.0825 -0.2579
  989YOPC   C2B14364   5.426   2.667   6.956  0.0365  0.0113 -0.0280
  989YOPC   D3B14365   5.671   2.286   6.965 -0.0007 -0.1957 -0.3260
  989YOPC   C4B14366   5.792   1.827   6.897 -0.4290 -0.2735  0.1102
  990YOPC   NC314367  10.383   0.149   5.596 -0.3828 -0.0424  0.0437
  990YOPC   PO414368  10.753  -0.033   5.773  0.1454 -0.1391 -0.1051
  990YOPC   GL114369  10.931  -0.090   6.213  0.0893  0.0055  0.0234
  990YOPC   GL214370  11.362   0.005   6.186  0.4171 -0.1237 -0.0533
  990YOPC   C1A14371  11.126  -0.073   6.636 -0.0447 -0.0840 -0.3315
  990YOPC   D2A14372  10.900   0.013   6.931  0.1797  0.1494  0.0483
  990YOPC   C3A14373  10.798   0.391   7.057  0.1996 -0.4170  0.1709
  990YOPC   C4A14374  10.481   0.722   6.988  0.0905  0.1831 -0.1305
  990YOPC   C1B14375  11.596   0.162   6.571  0.1790 -0.1782 -0.0063
  990YOPC   C2B14376  11.391   0.137   6.991  0.2280 -0.0711  0.5823
  990YOPC   D3B14377  11.449  -0.024   7.394 -0.0365  0.1175 -0.2198
  990YOPC   C4B14378  11.491   0.161   7.782 -0.2722  0.3195 -0.3502
  991YOPC   NC314379   6.935   9.607   4.917  0.2821 -0.3096 -0.2162
  991YOPC   PO414380   6.554   9.733   5.284  0.0770  0.3590  0.4894
  991YOPC   GL114381   6.634   9.529   5.703  0.2091 -0.1265  0.0226
  991YOPC   GL214382   6.565   9.220   5.749 -0.2476  0.0257 -0.2879
  991YOPC   C1A14383   6.588   9.609   6.244 -0.0105  0.1045 -0.1427
  991YOPC   D2A14384   6.656   9.349   6.679  0.0956  0.1382 -0.0532
  991YOPC   C3A14385   6.580   9.454   7.115 -0.2097  0.0947 -0.5469
  991YOPC   C4A14386   6.880   9.220   7.393 -0.3120  0.1666  0.1165
  991YOPC   C1B14387   6.574   9.098   6.174 -0.0652 -0.1528  0.0498
  991YOPC   C2B14388   6.303   8.876   6.464  0.1545  0.2271  0.3345
  991YOPC   D3B14389   6.282   8.844   6.864  0.1307  0.2208 -0.1995
  991YOPC   C4B14390   6.405   9.008   7.277 -0.2431  0.1517 -0.0151
  992YOPC   NC314391  10.153   4.753   6.082 -0.0167 -0.1012  0.0399
  992YOPC   PO414392  10.634   4.652   6.200  0.0137  0.2511  0.1439
  992YOPC   GL114393  10.437   4.637   6.477 -0.1378  0.0481  0.0398
  992YOPC   GL214394  10.500   4.296   6.655  0.0031  0.0248 -0.1291
  992YOPC   C1A14395  10.454   4.694   6.986  0.3580 -0.0142 -0.0128
  992YOPC   D2A14396  10.476   4.883   7.376  0.2456 -0.1169 -0.1073
  992YOPC   C3A14397  10.158   4.803   7.686 -0.2348  0.1822  0.0003
  992YOPC   C4A14398  10.382   4.482   7.927 -0.1422 -0.0991 -0.3598
  992YOPC   C1B14399  10.792   4.235   6.967 -0.2390  0.1840  0.1872
  992YOPC   C2B14400  10.816   3.787   7.070 -0.0434 -0.1713 -0.1517
  992YOPC   D3B14401  10.541   3.748   7.438  0.2354  0.1178 -0.3313
  992YOPC   C4B14402  10.290   3.511   7.804 -0.0403 -0.0199 -0.0024
  993YOPC   NC314403   0.776  15.091   5.550 -0.1334 -0.1052  0.1306
  993YOPC   PO414404   0.935  14.593   5.753 -0.2325  0.2192  0.0020
  993YOPC   GL114405   0.764  14.540   6.190 -0.0215  0.0734  0.1345
  993YOPC   GL214406   0.698  14.903   6.201 -0.0735 -0.2392 -0.0263
  993YOPC   C1A14407   0.671  14.401   6.640 -0.0735  0.3253 -0.0767
  993YOPC   D2A14408   0.497  14.382   6.983 -0.3402 -0.3993 -0.0322
  993YOPC   C3A14409   0.780  14.354   7.256 -0.1807 -0.0926  0.3369
  993YOPC   C4A14410   0.981  14.710   7.462  0.1300  0.1965 -0.0963
  993YOPC   C1B14411   0.965  14.756   6.574 -0.1034 -0.0017  0.0436
  993YOPC   C2B14412   1.044  14.651   6.904  0.1226 -0.1210 -0.4862
  993YOPC   D3B14413   0.801  15.026   7.028 -0.0568  0.1176 -0.2445
  993YOPC   C4B14414   0.555  14.953   7.317 -0.0268 -0.1428 -0.2490
  994YOPC   NC314415   3.983  15.159   5.552 -0.1548 -0.0352 -0.2050
  994YOPC   PO414416   3.879  14.742   5.628 -0.0748 -0.1008  0.2093
  994YOPC   GL114417   3.848  14.816   6.052  0.0279  0.0430 -0.3197
  994YOPC   GL214418   3.978  15.171   6.055  0.0990  0.3801  0.1422
  994YOPC   C1A14419   3.575  14.970   6.311  0.4238 -0.2140  0.0374
  994YOPC   D2A14420   3.278  15.267   6.489 -0.0027 -0.2118 -0.2855
  994YOPC   C3A14421   3.401  15.577   6.706 -0.1285  0.1583 -0.1083
  994YOPC   C4A14422   3.661  15.860   6.720  0.0004 -0.1402 -0.3133
  994YOPC   C1B14423   4.163  15.057   6.474  0.4405  0.2971 -0.0598
  994YOPC   C2B14424   4.258  15.342   6.819 -0.3683 -0.0783  0.3761
  994YOPC   D3B14425   3.876  15.578   7.004 -0.2288  0.0658 -0.0051
  994YOPC   C4B14426   3.786  15.862   7.319  0.0493  0.1047  0.0536
  995YOPC   NC314427  17.149   9.522   4.966 -0.0765  0.0778 -0.2195
  995YOPC   PO414428  17.279   9.891   5.293 -0.1779 -0.0315 -0.0915
  995YOPC   GL114429  17.334  10.127   5.632 -0.2055 -0.0700  0.2238
  995YOPC   GL214430  17.057  10.179   5.813  0.3045 -0.1196 -0.1116
  995YOPC   C1A14431  17.535  10.115   6.045  0.1518 -0.0294  0.1331
  995YOPC   D2A14432  18.016  10.250   6.179 -0.2394  0.2742  0.0128
  995YOPC   C3A14433  18.132  10.629   6.333  0.0447  0.0659 -0.0507
  995YOPC   C4A14434  18.259  10.851   6.710 -0.1679 -0.0746 -0.0820
  995YOPC   C1B14435  17.084  10.099   6.235  0.0339 -0.0418 -0.1436
  995YOPC   C2B14436  17.558  10.050   6.511  0.1887  0.1400 -0.2881
  995YOPC   D3B14437  17.710  10.081   6.916  0.1566 -0.4005 -0.0487
  995YOPC   C4B14438  17.754  10.056   7.388  0.0231 -0.2985  0.1585
  996YOPC   NC314439   8.997  16.428   5.770 -0.0664  0.0149  0.0972
  996YOPC   PO414440   9.274  16.785   5.720 -0.0447 -0.2867 -0.2541
  996YOPC   GL114441   9.619  16.806   6.020  0.2089  0.0500  0.1498
  996YOPC   GL214442   9.976  16.781   6.046 -0.3995  0.0455 -0.3629
  996YOPC   C1A14443   9.631  16.690   6.418 -0.2606  0.1378  0.0852
  996YOPC   D2A14444   9.578  16.871   6.757  0.2692 -0.0820 -0.1079
  996YOPC   C3A14445   9.409  16.697   7.083  0.2048 -0.1992  0.0714
  996YOPC   C4A14446   9.265  16.754   7.411 -0.0471  0.0271 -0.3354
  996YOPC   C1B14447   9.855  16.348   6.131  0.1496  0.2837  0.0858
  996YOPC   C2B14448  10.123  16.079   6.184  0.1004  0.1581 -0.0589
  996YOPC   D3B14449  10.123  15.918   6.631  0.0614  0.1065  0.0689
  996YOPC   C4B14450  10.212  15.668   6.922 -0.0602 -0.1262  0.0459
  997YOPC   NC314451  15.935   5.441   5.361  0.1408 -0.0308 -0.0211
  997YOPC   PO414452  16.190   5.816   5.188  0.0795 -0.1225  0.2814
  997YOPC   GL114453  16.140   5.925   5.632 -0.1240 -0.1259  0.1057
  997YOPC   GL214454  16.078   6.241   5.799  0.0979  0.0161  0.1385
  997YOPC   C1A14455  15.948   5.780   6.012 -0.0689  0.2100  0.1039
  997YOPC   D2A14456  15.920   5.760   6.585  0.1737  0.0390 -0.0164
  997YOPC   C3A14457  15.830   6.112   6.755  0.2812  0.0530  0.4506
  997YOPC   C4A14458  15.989   6.567   6.955 -0.3015 -0.0855 -0.1620
  997YOPC   C1B14459  15.992   6.511   6.178  0.1911  0.1060  0.0596
  997YOPC   C2B14460  16.191   6.582   6.485 -0.1683 -0.3384 -0.2182
  997YOPC   D3B14461  16.321   6.953   6.737 -0.0139  0.1117  0.0489
  997YOPC   C4B14462  16.684   7.126   6.895 -0.0356  0.0409  0.3065
  998YOPC   NC314463  14.021  12.156   5.676  0.0735 -0.1815 -0.3454
  998YOPC   PO414464  13.786  12.598   5.804  0.3386 -0.2450  0.1301
  998YOPC   GL114465  13.792  12.775   6.171  0.0608  0.1256 -0.0172
  998YOPC   GL214466  14.162  12.833   6.108  0.0154 -0.2142 -0.1944
  998YOPC   C1A14467  13.846  12.686   6.585  0.1130  0.0476  0.1727
  998YOPC   D2A14468  14.004  13.032   6.789 -0.1618  0.0933  0.1099
  998YOPC   C3A14469  13.730  13.337   6.975  0.2930  0.1145  0.3327
  998YOPC   C4A14470  13.593  13.485   7.358  0.1737  0.2220 -0.2871
  998YOPC   C1B14471  14.356  12.798   6.489  0.2097 -0.0047  0.0300
  998YOPC   C2B14472  14.190  12.638   6.957 -0.0811 -0.0469  0.1281
  998YOPC   D3B14473  14.209  12.743   7.289 -0.3673 -0.1893 -0.2854
  998YOPC   C4B14474  14.514  13.009   7.535 -0.3289 -0.1074  0.1078
  999YOPC   NC314475  10.898  18.346   5.793 -0.3453 -0.0600  0.0166
  999YOPC   PO414476  11.246  18.052   5.599 -0.0659 -0.0402 -0.1218
  999YOPC   GL114477  11.285  18.133   6.048  0.2476 -0.2643 -0.0767
  999YOPC   GL214478  10.913  17.944   6.175 -0.0839  0.0507  0.0781
  999YOPC   C1A14479  11.300  18.320   6.484 -0.2254  0.0305  0.3086
  999YOPC   D2A14480  11.607  18.516   6.768 -0.1945 -0.2146 -0.2765
  999YOPC   C3A14481  11.850  18.778   7.078 -0.2239  0.0229 -0.0082
  999YOPC   C4A14482  12.018  18.973   7.394 -0.1665 -0.0472 -0.0284
  999YOPC   C1B14483  10.995  17.583   6.374 -0.0733  0.0856  0.1883
  999YOPC   C2B14484  10.759  17.470   6.684 -0.0046  0.1596 -0.1201
  999YOPC   D3B14485  10.353  17.513   6.859  0.5152  0.0638 -0.1321
  999YOPC   C4B14486  10.250  17.696   7.299  0.2637  0.2963 -0.1611
 1000YOPC   NC314487  10.581  17.758   5.777  0.0865 -0.0855 -0.1681
 1000YOPC   PO414488  10.210  17.924   5.797 -0.0938  0.0151 -0.3792
 1000YOPC   GL114489  10.440  18.055   6.170 -0.1573 -0.0774  0.0170
 1000YOPC   GL214490  10.593  18.403   6.212 -0.3353 -0.0681 -0.1328
 1000YOPC   C1A14491  10.568  17.943   6.605 -0.0288  0.2300 -0.0628
 1000YOPC   D2A14492  10.673  17.872   7.013 -0.2042  0.2340 -0.0846
 1000YOPC   C3A14493  10.711  17.464   7.247  0.0443  0.2073 -0.1660
 1000YOPC   C4A14494  10.693  16.988   7.453  0.1818 -0.0629 -0.0747
 1000YOPC   C1B14495  10.784  18.352   6.656 -0.0893  0.0207 -0.1422
 1000YOPC   C2B14496  11.172  18.015   6.830 -0.2450  0.0075 -0.1353
 1000YOPC   D3B14497  11.134  17.986   7.242  0.1568  0.1288  0.2542
 1000YOPC   C4B14498  11.375  17.709   7.467 -0.1234  0.2200 -0.2706
 1001YOPC   NC314499  11.461  10.024   5.596 -0.0283 -0.3809  0.1262
 1001YOPC   PO414500  11.117   9.819   5.725  0.0233  0.3285  0.1857
 1001YOPC   GL114501  11.097   9.500   6.167  0.3607 -0.2305 -0.0923
 1001YOPC   GL214502  11.472   9.436   6.375 -0.1197 -0.1784  0.0112
 1001YOPC   C1A14503  11.124   9.769   6.584 -0.2407 -0.0120 -0.2968
 1001YOPC   D2A14504  11.047   9.898   6.987  0.0094  0.3040 -0.2666
 1001YOPC   C3A14505  11.120  10.231   7.237 -0.1453 -0.0077 -0.1692
 1001YOPC   C4A14506  11.392  10.468   7.610  0.1982 -0.1485 -0.0724
 1001YOPC   C1B14507  11.820   9.318   6.592  0.1299  0.2425  0.0609
 1001YOPC   C2B14508  12.035   9.427   6.991  0.1213 -0.0498 -0.0307
 1001YOPC   D3B14509  12.027   9.896   7.275 -0.4192 -0.0890 -0.0410
 1001YOPC   C4B14510  12.221  10.052   7.716 -0.5504 -0.0456 -0.2434
 1002YOPC   NC314511  14.426   3.089   5.229 -0.1780 -0.0071 -0.1877
 1002YOPC   PO414512  14.708   3.421   5.283  0.0444 -0.1412  0.3686
 1002YOPC   GL114513  14.535   3.573   5.595  0.0392  0.2541  0.0561
 1002YOPC   GL214514  14.221   3.366   5.655  0.0652  0.1096 -0.0470
 1002YOPC   C1A14515  14.336   3.684   6.052  0.3649 -0.1481  0.0690
 1002YOPC   D2A14516  14.072   4.042   6.289 -0.1425 -0.3153 -0.0307
 1002YOPC   C3A14517  14.093   3.871   6.698 -0.4311 -0.1674 -0.0574
 1002YOPC   C4A14518  14.134   3.859   7.157 -0.0839  0.2260  0.1413
 1002YOPC   C1B14519  14.427   3.198   6.045 -0.1285  0.0272 -0.2778
 1002YOPC   C2B14520  14.806   3.059   6.249  0.1479  0.1188  0.0011
 1002YOPC   D3B14521  15.149   3.375   6.152  0.1228  0.4438 -0.1543
 1002YOPC   C4B14522  15.072   3.720   5.889 -0.1461  0.2891 -0.0017
 1003YOPC   NC314523  16.823   0.833   4.819 -0.0567  0.2171 -0.1953
 1003YOPC   PO414524  16.503   1.038   5.178 -0.0022  0.0302  0.1187
 1003YOPC   GL114525  16.144   1.139   5.567  0.2560  0.1084 -0.0245
 1003YOPC   GL214526  15.933   0.882   5.583  0.0769 -0.1799 -0.0983
 1003YOPC   C1A14527  15.970   1.482   5.664  0.1124  0.2179 -0.1088
 1003YOPC   D2A14528  15.886   1.537   6.118 -0.7324 -0.0594 -0.2141
 1003YOPC   C3A14529  16.271   1.595   6.397 -0.1648 -0.0006  0.2027
 1003YOPC   C4A14530  16.662   1.786   6.266 -0.1972  0.0830 -0.1250
 1003YOPC   C1B14531  15.935   1.106   5.984 -0.4337  0.2738  0.2269
 1003YOPC   C2B14532  15.635   1.110   6.366 -0.1879  0.2299  0.1660
 1003YOPC   D3B14533  15.832   1.348   6.705  0.1057 -0.1357 -0.2189
 1003YOPC   C4B14534  15.802   1.484   7.114  0.1438 -0.1258 -0.2146
 1004YOPC   NC314535  17.959  17.056   5.117 -0.1031  0.2347 -0.1295
 1004YOPC   PO414536  17.605  17.290   5.297 -0.2175 -0.2068  0.0206
 1004YOPC   GL114537  17.487  17.445   5.719 -0.1504 -0.0810  0.0252
 1004YOPC   GL214538  17.286  17.741   5.686  0.0477 -0.1548  0.1699
 1004YOPC   C1A14539  17.821  17.525   6.063 -0.1797 -0.4496  0.2065
 1004YOPC   D2A14540  18.089  17.423   6.442 -0.2064 -0.1104  0.1763
 1004YOPC   C3A14541  18.425  17.651   6.700  0.0458 -0.3489 -0.1561
 1004YOPC   C4A14542  18.771  17.893   6.949  0.0070  0.0059 -0.0617
 1004YOPC   C1B14543  17.062  17.649   6.077  0.0377 -0.1151 -0.1582
 1004YOPC   C2B14544  17.077  17.371   6.494 -0.0699  0.3676 -0.0061
 1004YOPC   D3B14545  16.984  17.781   6.750  0.0977  0.0571  0.1461
 1004YOPC   C4B14546  16.698  18.088   7.111  0.1884 -0.1512 -0.3175
 1005YOPC   NC314547   7.425   8.943   5.799 -0.0889  0.1092  0.4369
 1005YOPC   PO414548   7.738   8.715   5.930 -0.0216 -0.1084 -0.0480
 1005YOPC   GL114549   7.587   8.830   6.286  0.0201  0.0002  0.1480
 1005YOPC   GL214550   7.501   9.045   6.453  0.0682  0.1141  0.0466
 1005YOPC   C1A14551   7.349   8.530   6.561 -0.2338  0.4268 -0.2108
 1005YOPC   D2A14552   7.508   8.225   6.828 -0.1809  0.1141 -0.0099
 1005YOPC   C3A14553   7.939   8.202   7.045  0.2687  0.0707  0.2283
 1005YOPC   C4A14554   8.263   8.335   7.339 -0.0010 -0.0426  0.2102
 1005YOPC   C1B14555   7.439   8.945   6.908  0.2795  0.1449 -0.1962
 1005YOPC   C2B14556   7.336   8.915   7.341  0.2195  0.0075  0.1767
 1005YOPC   D3B14557   7.149   8.578   7.657 -0.2548  0.0692  0.2781
 1005YOPC   C4B14558   7.012   8.407   7.923 -0.0411  0.1631  0.0159
 1006YOPC   NC314559   3.976   8.912   5.446 -0.1204  0.1404 -0.0355
 1006YOPC   PO414560   3.668   9.218   5.436 -0.2329  0.2099 -0.0011
 1006YOPC   GL114561   3.768   9.164   5.874 -0.0084 -0.0832  0.3302
 1006YOPC   GL214562   3.783   9.512   5.908  0.2532  0.3157  0.2471
 1006YOPC   C1A14563   3.852   9.031   6.403 -0.0087  0.1538  0.2769
 1006YOPC   D2A14564   3.802   8.909   6.801  0.2669  0.0304 -0.0634
 1006YOPC   C3A14565   3.610   9.142   7.160 -0.1369 -0.1397 -0.4336
 1006YOPC   C4A14566   3.467   9.523   7.459  0.0078  0.1558  0.2842
 1006YOPC   C1B14567   3.633   9.529   6.265  0.0457 -0.2591  0.2676
 1006YOPC   C2B14568   3.602   9.352   6.664 -0.0507  0.0213  0.3062
 1006YOPC   D3B14569   3.958   9.419   6.951 -0.1298  0.0660  0.0564
 1006YOPC   C4B14570   4.138   9.062   7.143  0.0284 -0.0730 -0.0798
 1007YOPC   NC314571   9.932  12.689   5.411  0.0764 -0.1724  0.2830
 1007YOPC   PO414572   9.859  12.232   5.572  0.0578  0.1047 -0.0119
 1007YOPC   GL114573   9.795  12.351   6.028  0.2143 -0.0964  0.0596
 1007YOPC   GL214574   9.693  12.730   6.209  0.1092  0.1283 -0.0140
 1007YOPC   C1A14575   9.712  12.245   6.489 -0.1918 -0.0293  0.1218
 1007YOPC   D2A14576   9.545  12.076   6.914 -0.1439  0.1664 -0.2386
 1007YOPC   C3A14577   9.773  12.105   7.184  0.1871 -0.0558  0.0032
 1007YOPC   C4A14578   9.972  12.281   7.471 -0.1243  0.1568  0.2595
 1007YOPC   C1B14579   9.735  12.750   6.677  0.0940 -0.0107  0.0824
 1007YOPC   C2B14580   9.981  12.940   6.954  0.3808  0.1376 -0.0942
 1007YOPC   D3B14581   9.880  12.912   7.440 -0.0279  0.0708 -0.0658
 1007YOPC   C4B14582  10.009  13.126   7.874  0.1662  0.2022 -0.0783
 1008YOPC   NC314583   8.120  11.569   5.713 -0.3015  0.2371 -0.2516
 1008YOPC   PO414584   8.277  11.940   5.639  0.0527  0.0529 -0.1023
 1008YOPC   GL114585   8.227  12.090   6.043  0.0363  0.0386 -0.0120
 1008YOPC   GL214586   8.172  11.818   6.269  0.0069 -0.0058  0.0642
 1008YOPC   C1A14587   8.319  12.410   6.335  0.2420  0.5022 -0.2207
 1008YOPC   D2A14588   8.309  12.615   6.769 -0.1140 -0.1178 -0.0032
 1008YOPC   C3A14589   8.638  12.404   7.091  0.1644 -0.2626  0.3645
 1008YOPC   C4A14590   8.734  12.293   7.487 -0.2135 -0.2330  0.3141
 1008YOPC   C1B14591   8.554  11.995   6.466 -0.0943  0.0684 -0.0707
 1008YOPC   C2B14592   8.846  12.155   6.723  0.0346 -0.1808  0.2207
 1008YOPC   D3B14593   9.000  12.012   7.087 -0.3533  0.3578  0.3936
 1008YOPC   C4B14594   9.263  12.088   7.364  0.1032  0.0186 -0.1079
 1009YOPC   NC314595   9.990   5.923   6.267  0.0238 -0.1357  0.2405
 1009YOPC   PO414596  10.461   5.670   6.153 -0.1426  0.0507 -0.1269
 1009YOPC   GL114597  10.611   5.923   6.422  0.0863 -0.1155 -0.3195
 1009YOPC   GL214598  10.861   5.823   6.706 -0.2120  0.0532  0.1461
 1009YOPC   C1A14599  10.367   5.963   6.791  0.1742 -0.0711 -0.0254
 1009YOPC   D2A14600  10.333   6.329   7.135  0.3504  0.0614 -0.2448
 1009YOPC   C3A14601  10.475   6.686   7.127  0.0306 -0.0151  0.1411
 1009YOPC   C4A14602  10.612   7.043   7.243 -0.1029 -0.2690  0.3038
 1009YOPC   C1B14603  10.638   5.631   6.970 -0.2296  0.0975 -0.0694
 1009YOPC   C2B14604  10.593   5.373   7.172 -0.0562  0.4271 -0.2603
 1009YOPC   D3B14605  10.585   5.408   7.668  0.2064  0.2402  0.1842
 1009YOPC   C4B14606  11.049   5.373   7.909  0.1676  0.0882 -0.0568
 1010YOPC   NC314607  13.828  13.376   5.102  0.0154  0.2900  0.2452
 1010YOPC   PO414608  13.647  13.522   5.458 -0.1123  0.0663  0.3132
 1010YOPC   GL114609  13.375  13.638   5.858 -0.1061 -0.0653 -0.0601
 1010YOPC   GL214610  13.682  13.580   6.111  0.0921  0.3599 -0.1972
 1010YOPC   C1A14611  13.200  13.780   6.277  0.2839  0.1500  0.1742
 1010YOPC   D2A14612  13.170  14.062   6.639 -0.0737  0.1043  0.1831
 1010YOPC   C3A14613  13.447  14.229   6.811  0.0759 -0.1350 -0.4562
 1010YOPC   C4A14614  13.754  14.414   7.051  0.1077 -0.2346  0.1543
 1010YOPC   C1B14615  13.619  13.684   6.562 -0.0613  0.1001 -0.0980
 1010YOPC   C2B14616  13.425  13.755   6.921  0.0090 -0.2632 -0.2408
 1010YOPC   D3B14617  13.360  13.970   7.297  0.0577  0.1385 -0.2973
 1010YOPC   C4B14618  13.493  14.008   7.692 -0.4335  0.2087  0.4294
 1011YOPC   NC314619   8.655   0.251   5.971  0.1516  0.1372 -0.2438
 1011YOPC   PO414620   8.374  -0.159   5.902  0.1431 -0.0400 -0.2930
 1011YOPC   GL114621   8.513  -0.089   6.334  0.1196  0.2362  0.0978
 1011YOPC   GL214622   8.733  -0.402   6.409 -0.0457 -0.1486 -0.1354
 1011YOPC   C1A14623   8.362   0.144   6.752  0.0895 -0.4701 -0.1097
 1011YOPC   D2A14624   8.541   0.269   7.083 -0.0973  0.3228 -0.4163
 1011YOPC   C3A14625   8.316   0.425   7.434  0.0196 -0.3984 -0.0210
 1011YOPC   C4A14626   8.161   0.696   7.749 -0.2793 -0.0448  0.1695
 1011YOPC   C1B14627   8.309  -0.388   6.736  0.2256  0.1515  0.1086
 1011YOPC   C2B14628   8.163  -0.249   7.106  0.0172 -0.0292 -0.0704
 1011YOPC   D3B14629   8.322  -0.486   7.515  0.1853  0.0144  0.1034
 1011YOPC   C4B14630   8.546  -0.805   7.611  0.1411  0.3209  0.0988
 1012YOPC   NC314631  15.704   4.656   4.972 -0.0384  0.0353 -0.2863
 1012YOPC   PO414632  15.479   5.086   5.024  0.0199 -0.0546 -0.4008
 1012YOPC   GL114633  15.412   4.853   5.440 -0.1464  0.0506  0.1571
 1012YOPC   GL214634  15.093   4.783   5.594 -0.2659  0.0829  0.2690
 1012YOPC   C1A14635  15.685   4.792   5.757  0.1083 -0.0604 -0.0236
 1012YOPC   D2A14636  16.093   4.566   5.971  0.1194 -0.1005  0.1774
 1012YOPC   C3A14637  16.037   4.489   6.336  0.1735 -0.3096 -0.0735
 1012YOPC   C4A14638  16.263   4.381   6.711  0.1678 -0.3417  0.1972
 1012YOPC   C1B14639  15.166   4.841   5.953 -0.1303 -0.1115  0.0270
 1012YOPC   C2B14640  15.152   4.772   6.391  0.0742 -0.1252 -0.1511
 1012YOPC   D3B14641  15.492   4.585   6.684 -0.4425 -0.1882 -0.3217
 1012YOPC   C4B14642  15.807   4.495   6.852  0.0495  0.0813  0.0064
 1013YOPC   NC314643  12.245   1.461   5.134 -0.2388 -0.0288 -0.0591
 1013YOPC   PO414644  12.250   1.144   5.590  0.1070  0.2867  0.0906
 1013YOPC   GL114645  12.464   1.454   6.036  0.0392  0.0251  0.0576
 1013YOPC   GL214646  12.309   1.737   6.162  0.0845 -0.2477 -0.5283
 1013YOPC   C1A14647  12.780   1.366   6.373 -0.1259  0.0533 -0.2366
 1013YOPC   D2A14648  12.939   1.061   6.650 -0.0280  0.0536 -0.0787
 1013YOPC   C3A14649  13.216   1.048   6.991  0.0306  0.1776 -0.1936
 1013YOPC   C4A14650  13.490   1.056   7.362  0.4317  0.0139  0.1252
 1013YOPC   C1B14651  12.102   1.908   6.529  0.0327 -0.2260 -0.3622
 1013YOPC   C2B14652  12.175   1.927   6.938 -0.0709  0.1412  0.0580
 1013YOPC   D3B14653  12.617   1.718   7.135 -0.0048 -0.0047 -0.2206
 1013YOPC   C4B14654  12.942   2.018   7.244 -0.2906  0.1122  0.3880
 1014YOPC   NC314655   4.545  12.096   5.349  0.0175 -0.0474 -0.2534
 1014YOPC   PO414656   4.989  12.119   5.449  0.0259  0.0646  0.1559
 1014YOPC   GL114657   4.898  12.056   5.970 -0.1242 -0.2442 -0.0873
 1014YOPC   GL214658   4.988  11.834   6.179 -0.0825  0.3583 -0.4231
 1014YOPC   C1A14659   4.699  12.272   6.332 -0.0123 -0.1613  0.0785
 1014YOPC   D2A14660   4.777  12.373   6.753  0.0295 -0.1681  0.1078
 1014YOPC   C3A14661   4.398  12.487   7.074 -0.0171 -0.2371  0.0906
 1014YOPC   C4A14662   4.196  12.834   7.259  0.0110 -0.1520 -0.3450
 1014YOPC   C1B14663   4.864  11.807   6.523  0.1362  0.0516 -0.0739
 1014YOPC   C2B14664   4.701  11.934   6.973 -0.0032  0.0586  0.2445
 1014YOPC   D3B14665   4.310  12.049   7.228 -0.0948  0.1427  0.1077
 1014YOPC   C4B14666   4.068  12.112   7.546  0.1359  0.0924 -0.3251
 1015YOPC   NC314667   6.630  17.289   5.688  0.0969 -0.0080 -0.1416
 1015YOPC   PO414668   6.963  17.011   5.569 -0.1889  0.0159  0.0867
 1015YOPC   GL114669   6.701  16.780   5.885 -0.0436  0.3767  0.0177
 1015YOPC   GL214670   6.368  16.913   6.020  0.0991 -0.1830 -0.0058
 1015YOPC   C1A14671   6.576  16.536   6.297 -0.1010  0.0901 -0.2777
 1015YOPC   D2A14672   6.671  16.031   6.413  0.2569 -0.0103  0.2563
 1015YOPC   C3A14673   6.298  15.781   6.644  0.2795  0.1821 -0.0369
 1015YOPC   C4A14674   6.002  15.825   7.003  0.0101 -0.0246 -0.2240
 1015YOPC   C1B14675   6.327  16.954   6.517  0.1489  0.0233  0.2406
 1015YOPC   C2B14676   6.303  16.830   7.005 -0.0637 -0.1349  0.1119
 1015YOPC   D3B14677   6.358  17.169   7.351  0.0365 -0.0330  0.2820
 1015YOPC   C4B14678   6.581  17.464   7.573  0.0561 -0.0419 -0.0021
 1016YOPC   NC314679  12.490   4.205   5.684  0.0540 -0.0061  0.3076
 1016YOPC   PO414680  12.551   4.652   5.759 -0.2338 -0.0964 -0.5363
 1016YOPC   GL114681  12.608   4.481   6.091 -0.1751  0.2806 -0.2376
 1016YOPC   GL214682  12.663   4.729   6.262 -0.2543 -0.2371 -0.1483
 1016YOPC   C1A14683  12.492   4.284   6.469 -0.3675  0.0538  0.1594
 1016YOPC   D2A14684  12.396   4.230   6.884  0.3172  0.1390 -0.5616
 1016YOPC   C3A14685  12.349   4.494   7.163 -0.2103  0.0360 -0.1801
 1016YOPC   C4A14686  12.683   4.684   7.428  0.0419  0.0135 -0.2064
 1016YOPC   C1B14687  12.996   4.747   6.500 -0.0776 -0.1034  0.1968
 1016YOPC   C2B14688  13.365   4.759   6.641 -0.0054 -0.1451 -0.2239
 1016YOPC   D3B14689  13.520   4.639   7.010 -0.0639 -0.1215 -0.3413
 1016YOPC   C4B14690  13.746   4.892   7.354 -0.2819  0.1534  0.1660
 1017YOPC   NC314691   9.897   4.097   5.458  0.2545  0.0535  0.0540
 1017YOPC   PO414692   9.911   4.148   5.961 -0.1058  0.1191  0.3120
 1017YOPC   GL114693   9.883   4.428   6.351 -0.0475  0.0615 -0.0874
 1017YOPC   GL214694   9.757   4.728   6.371  0.1916 -0.2724  0.0939
 1017YOPC   C1A14695  10.025   4.281   6.786 -0.1100  0.1065  0.1056
 1017YOPC   D2A14696  10.369   4.166   7.120 -0.1560 -0.2442 -0.0865
 1017YOPC   C3A14697  10.520   4.343   7.466  0.0360 -0.2075 -0.0289
 1017YOPC   C4A14698  10.863   4.579   7.357 -0.1074 -0.2428 -0.0083
 1017YOPC   C1B14699   9.873   4.782   6.828 -0.1566 -0.0952 -0.0372
 1017YOPC   C2B14700  10.070   4.580   7.237 -0.1397 -0.0499 -0.1041
 1017YOPC   D3B14701   9.859   4.418   7.671  0.1106 -0.1307  0.2004
 1017YOPC   C4B14702   9.654   4.185   8.073 -0.0112 -0.2826  0.0667
 1018YOPC   NC314703   3.177  18.698   5.407 -0.1114 -0.2066 -0.3550
 1018YOPC   PO414704   3.235  19.059   5.734 -0.2984  0.1786  0.1262
 1018YOPC   GL114705   2.928  19.094   6.016 -0.3427 -0.2064 -0.0510
 1018YOPC   GL214706   2.870  19.444   6.062  0.1543  0.1795 -0.0608
 1018YOPC   C1A14707   2.737  18.883   6.403  0.1503 -0.5402 -0.0559
 1018YOPC   D2A14708   2.545  18.620   6.700 -0.2097  0.3454  0.1332
 1018YOPC   C3A14709   2.808  18.535   7.041 -0.1528  0.1375 -0.3731
 1018YOPC   C4A14710   2.998  18.372   7.305  0.0610 -0.1877 -0.0119
 1018YOPC   C1B14711   2.835  19.415   6.552  0.1643 -0.0893  0.0548
 1018YOPC   C2B14712   2.853  19.626   6.977  0.1011  0.1070  0.0400
 1018YOPC   D3B14713   2.789  20.040   7.044 -0.1406 -0.2182  0.0650
 1018YOPC   C4B14714   2.964  20.410   6.926 -0.1463 -0.0752  0.2199
 1019YOPC   NC314715   8.085   2.043   5.549  0.1823  0.0738 -0.1008
 1019YOPC   PO414716   8.173   2.392   5.694 -0.0206  0.2441  0.2061
 1019YOPC   GL114717   7.980   2.212   6.094 -0.1435  0.1355 -0.1047
 1019YOPC   GL214718   7.817   2.454   6.262 -0.5235  0.3510 -0.3294
 1019YOPC   C1A14719   7.768   2.024   6.496 -0.1954  0.2267 -0.1208
 1019YOPC   D2A14720   7.685   1.758   6.900  0.2202 -0.2529  0.3455
 1019YOPC   C3A14721   7.299   1.725   7.204  0.1099  0.0487 -0.0621
 1019YOPC   C4A14722   6.999   2.087   7.328  0.0986  0.1437 -0.1317
 1019YOPC   C1B14723   8.190   2.383   6.479 -0.0026 -0.0838  0.0036
 1019YOPC   C2B14724   8.430   2.384   6.795 -0.3166  0.0760 -0.0867
 1019YOPC   D3B14725   8.784   2.700   7.021 -0.1060  0.3579  0.0744
 1019YOPC   C4B14726   8.655   3.043   7.230 -0.3785 -0.0524 -0.0351
 1020YOPC   NC314727  14.355   8.203   5.240 -0.0019  0.1182  0.0330
 1020YOPC   PO414728  14.585   8.150   5.580 -0.0385  0.1065  0.0277
 1020YOPC   GL114729  14.607   8.533   5.814 -0.2789  0.0503 -0.4347
 1020YOPC   GL214730  14.795   8.283   6.090 -0.0864  0.0651  0.0447
 1020YOPC   C1A14731  14.896   8.825   5.974  0.0007 -0.0482 -0.2263
 1020YOPC   D2A14732  15.132   9.069   6.228 -0.0646 -0.0371 -0.0757
 1020YOPC   C3A14733  15.263   9.396   6.213 -0.1559  0.0090 -0.0009
 1020YOPC   C4A14734  15.557   9.712   6.441 -0.1613  0.2758  0.2650
 1020YOPC   C1B14735  14.748   8.659   6.421 -0.0835  0.1003 -0.2512
 1020YOPC   C2B14736  14.652   8.871   6.625  0.2014  0.2875  0.1520
 1020YOPC   D3B14737  14.843   8.970   7.035  0.2101 -0.0764 -0.0735
 1020YOPC   C4B14738  15.174   8.988   7.302  0.3578  0.0508 -0.1316
 1021YOPC   NC314739  10.897   5.025   5.864  0.5352  0.4559  0.0080
 1021YOPC   PO414740  10.496   5.148   6.083 -0.0874  0.2739 -0.0437
 1021YOPC   GL114741  10.661   5.160   6.441  0.0764 -0.0315 -0.2111
 1021YOPC   GL214742  10.430   5.100   6.612 -0.1232 -0.1285  0.0239
 1021YOPC   C1A14743  11.012   5.325   6.705 -0.2408  0.2241  0.2145
 1021YOPC   D2A14744  11.253   5.656   6.954  0.0197  0.0360 -0.0338
 1021YOPC   C3A14745  11.102   5.632   7.341 -0.0509 -0.1880  0.0554
 1021YOPC   C4A14746  11.382   5.804   7.677  0.0363  0.1081 -0.0561
 1021YOPC   C1B14747  10.224   5.171   6.916 -0.3808  0.0012 -0.0214
 1021YOPC   C2B14748  10.031   5.135   7.318  0.1601 -0.0446  0.0982
 1021YOPC   D3B14749  10.142   5.354   7.707  0.0944  0.3419  0.3952
 1021YOPC   C4B14750  10.171   5.445   8.055 -0.1279 -0.3827  0.2419
 1022YOPC   NC314751  18.781  18.004   5.198 -0.1128 -0.1305  0.0485
 1022YOPC   PO414752  18.618  18.378   5.351 -0.4060 -0.2496 -0.1122
 1022YOPC   GL114753  18.395  18.240   5.602 -0.1667 -0.1870 -0.0413
 1022YOPC   GL214754  18.254  18.551   5.755  0.1337 -0.3838  0.2984
 1022YOPC   C1A14755  18.512  18.270   6.029 -0.0592 -0.1024 -0.0148
 1022YOPC   D2A14756  18.419  18.175   6.468  0.0667 -0.2818  0.0374
 1022YOPC   C3A14757  17.999  18.294   6.588 -0.1458  0.0787 -0.0455
 1022YOPC   C4A14758  17.632  18.559   6.686  0.3536  0.3060 -0.2950
 1022YOPC   C1B14759  18.046  18.312   6.077 -0.0822 -0.0709  0.0025
 1022YOPC   C2B14760  18.060  17.894   6.302  0.2412 -0.2231 -0.2600
 1022YOPC   D3B14761  17.935  17.762   6.739  0.0914 -0.0627 -0.4940
 1022YOPC   C4B14762  17.863  17.513   7.132 -0.2940  0.3402  0.0621
 1023YOPC   NC314763   7.669  13.295   5.476 -0.1052  0.2282  0.1622
 1023YOPC   PO414764   8.001  13.445   5.814 -0.0558  0.1387  0.1707
 1023YOPC   GL114765   8.192  13.452   6.220 -0.0907 -0.0102  0.0761
 1023YOPC   GL214766   8.283  13.233   6.290 -0.0622  0.2569 -0.2015
 1023YOPC   C1A14767   8.109  13.852   6.455 -0.1162 -0.3864 -0.1694
 1023YOPC   D2A14768   7.945  13.963   6.876  0.0689 -0.2901 -0.2278
 1023YOPC   C3A14769   8.058  13.984   7.338  0.0399 -0.2237  0.0810
 1023YOPC   C4A14770   8.025  13.771   7.712 -0.1686  0.1101 -0.0269
 1023YOPC   C1B14771   8.449  13.509   6.599  0.1315 -0.1038  0.0102
 1023YOPC   C2B14772   8.327  13.634   6.941  0.2785  0.0341  0.0575
 1023YOPC   D3B14773   8.418  13.593   7.313  0.0310  0.1085  0.1026
 1023YOPC   C4B14774   8.850  13.839   7.551  0.2068  0.0063  0.0619
 1024YOPC   NC314775   6.411  12.978   5.530 -0.2476 -0.0317 -0.1878
 1024YOPC   PO414776   6.662  12.918   5.873 -0.1502  0.1321  0.2275
 1024YOPC   GL114777   6.295  12.838   6.101 -0.1273  0.0627  0.2084
 1024YOPC   GL214778   6.341  12.569   6.069  0.0651  0.0887 -0.2768
 1024YOPC   C1A14779   6.010  12.901   6.363 -0.1083 -0.2009 -0.2366
 1024YOPC   D2A14780   6.023  13.290   6.738  0.0440  0.0575 -0.1833
 1024YOPC   C3A14781   6.234  13.497   7.077  0.2292  0.0926 -0.4105
 1024YOPC   C4A14782   6.439  13.543   7.509 -0.1677  0.1295  0.0424
 1024YOPC   C1B14783   6.159  12.404   6.435  0.1956  0.0042  0.1565
 1024YOPC   C2B14784   5.806  12.202   6.889 -0.0459  0.2394  0.1498
 1024YOPC   D3B14785   6.095  11.921   6.981 -0.1616  0.0704 -0.2904
 1024YOPC   C4B14786   6.534  11.693   6.953  0.0170 -0.1837 -0.0522
 1025YOPC   NC314787  15.859  16.909   4.961 -0.0736  0.1666  0.1740
 1025YOPC   PO414788  15.886  17.249   5.321 -0.1193 -0.1157 -0.1940
 1025YOPC   GL114789  15.582  17.324   5.546  0.2897 -0.0938  0.0817
 1025YOPC   GL214790  15.256  17.279   5.661 -0.1117  0.2136  0.0842
 1025YOPC   C1A14791  15.446  17.528   6.007 -0.2003 -0.1315  0.2042
 1025YOPC   D2A14792  15.504  17.687   6.467 -0.0509 -0.1522 -0.2094
 1025YOPC   C3A14793  15.740  17.759   6.746 -0.1926 -0.0412  0.1902
 1025YOPC   C4A14794  15.934  18.130   6.960 -0.0912 -0.2306 -0.1502
 1025YOPC   C1B14795  15.194  17.074   6.097 -0.2506 -0.0581  0.0653
 1025YOPC   C2B14796  14.979  16.779   6.332 -0.3068 -0.1236 -0.0324
 1025YOPC   D3B14797  14.951  16.780   6.802  0.2345 -0.1477  0.2974
 1025YOPC   C4B14798  14.887  17.089   7.152  0.1153 -0.2254  0.1485
 1026YOPC   NC314799   8.055   7.570   5.559  0.1226  0.1000  0.3667
 1026YOPC   PO414800   7.872   7.344   5.913 -0.1709  0.5155  0.4035
 1026YOPC   GL114801   7.802   7.449   6.331 -0.3625 -0.0052  0.3113
 1026YOPC   GL214802   8.038   7.517   6.522 -0.2596 -0.1758 -0.1598
 1026YOPC   C1A14803   7.392   7.246   6.507  0.0538  0.1346  0.1006
 1026YOPC   D2A14804   7.004   7.484   6.644  0.0000 -0.0592 -0.3820
 1026YOPC   C3A14805   7.148   7.755   6.897 -0.1659  0.2121 -0.1220
 1026YOPC   C4A14806   7.536   7.823   7.211 -0.1447 -0.1112 -0.0208
 1026YOPC   C1B14807   8.041   7.673   6.978 -0.3894 -0.3963  0.3603
 1026YOPC   C2B14808   8.309   7.824   7.298 -0.4137 -0.2268 -0.1489
 1026YOPC   D3B14809   8.398   7.509   7.584  0.0053 -0.1021 -0.1241
 1026YOPC   C4B14810   8.314   7.111   7.911 -0.1141 -0.0719  0.0411
 1027YOPC   NC314811   2.265   1.040   5.417 -0.0702  0.0572 -0.1241
 1027YOPC   PO414812   1.879   0.964   5.521 -0.0469  0.0992  0.2014
 1027YOPC   GL114813   1.968   1.096   5.873  0.1511  0.2252  0.0405
 1027YOPC   GL214814   1.684   1.022   6.047 -0.0364 -0.0924 -0.0207
 1027YOPC   C1A14815   2.134   1.180   6.244 -0.1613 -0.6085  0.0377
 1027YOPC   D2A14816   2.108   1.247   6.704 -0.0778 -0.5426 -0.1357
 1027YOPC   C3A14817   2.048   1.614   7.041 -0.0477  0.1123  0.1196
 1027YOPC   C4A14818   2.075   1.683   7.578  0.0249  0.0436  0.1132
 1027YOPC   C1B14819   1.473   0.850   6.361  0.2641 -0.1216  0.0438
 1027YOPC   C2B14820   1.321   0.857   6.796 -0.2873 -0.2479  0.0669
 1027YOPC   D3B14821   1.175   1.225   7.067 -0.0394  0.3454 -0.0847
 1027YOPC   C4B14822   1.280   1.698   7.174 -0.0332 -0.0520  0.0282
 1028YOPC   NC314823   9.574   9.615   5.426  0.1830 -0.0125  0.2540
 1028YOPC   PO414824   9.678   9.533   5.768  0.2267  0.1732 -0.1193
 1028YOPC   GL114825   9.764   9.528   6.220  0.2730  0.1492 -0.1120
 1028YOPC   GL214826   9.550   9.335   6.470 -0.0426 -0.0753 -0.2813
 1028YOPC   C1A14827   9.880   9.597   6.688 -0.0536 -0.0686  0.1059
 1028YOPC   D2A14828   9.964   9.360   7.171  0.1363  0.0163 -0.1721
 1028YOPC   C3A14829  10.219   9.392   7.557  0.0249  0.1687  0.3695
 1028YOPC   C4A14830  10.299   9.673   7.810 -0.2075 -0.0913 -0.1851
 1028YOPC   C1B14831   9.453   9.539   6.859  0.1328 -0.3041  0.1748
 1028YOPC   C2B14832   9.324   9.710   7.299  0.0829  0.1927 -0.0985
 1028YOPC   D3B14833   9.442  10.010   7.586  0.0551  0.1423  0.1418
 1028YOPC   C4B14834   9.529  10.494   7.891 -0.0800 -0.0668  0.4046
 1029YOPC   NC314835  13.618  10.959   5.530  0.1992  0.1475 -0.2262
 1029YOPC   PO414836  13.358  11.121   5.728  0.1739  0.1897  0.0095
 1029YOPC   GL114837  13.305  10.951   6.080  0.3184  0.1097  0.1249
 1029YOPC   GL214838  13.096  11.255   6.165  0.0033  0.0303  0.0258
 1029YOPC   C1A14839  13.323  10.883   6.487  0.2776  0.1910  0.3472
 1029YOPC   D2A14840  13.143  10.767   6.849  0.1006  0.0102 -0.0798
 1029YOPC   C3A14841  13.118  10.516   7.286  0.0112  0.0199 -0.1751
 1029YOPC   C4A14842  13.016  10.080   7.313 -0.0630  0.0815 -0.2247
 1029YOPC   C1B14843  12.960  11.245   6.526  0.3455 -0.2137  0.2912
 1029YOPC   C2B14844  12.919  11.172   6.972 -0.0658 -0.1196  0.3793
 1029YOPC   D3B14845  12.718  10.768   7.141  0.0236 -0.0825 -0.4294
 1029YOPC   C4B14846  12.709  10.531   6.924  0.1308  0.0211  0.0482
 1030YOPC   NC314847   3.366   4.184   5.144  0.1168 -0.1892  0.1608
 1030YOPC   PO414848   3.363   3.768   5.237 -0.0109 -0.3154 -0.1971
 1030YOPC   GL114849   3.179   3.627   5.647  0.1355  0.0553 -0.2131
 1030YOPC   GL214850   3.455   3.469   5.848 -0.0893  0.5350 -0.2499
 1030YOPC   C1A14851   3.106   3.753   6.081  0.1989  0.0893  0.0335
 1030YOPC   D2A14852   3.338   3.525   6.316 -0.0756  0.2294 -0.0565
 1030YOPC   C3A14853   3.441   3.766   6.660  0.1491 -0.3797 -0.0158
 1030YOPC   C4A14854   3.493   4.200   6.833  0.1000  0.1479  0.1340
 1030YOPC   C1B14855   3.610   3.841   5.999 -0.2304  0.0207 -0.1274
 1030YOPC   C2B14856   4.040   3.854   6.005  0.0430 -0.0746  0.0731
 1030YOPC   D3B14857   4.349   3.595   6.177  0.1825 -0.3819  0.0005
 1030YOPC   C4B14858   4.776   3.344   6.326 -0.0373  0.2279 -0.0305
 1031YOPC   NC314859   0.279   1.417   4.795  0.0022 -0.2351  0.0820
 1031YOPC   PO414860   0.651   1.375   5.109  0.2321 -0.1218 -0.2196
 1031YOPC   GL114861   0.587   1.291   5.484 -0.0964  0.1665 -0.1906
 1031YOPC   GL214862   0.554   0.905   5.498 -0.3254 -0.1432 -0.1605
 1031YOPC   C1A14863   0.261   1.294   5.671  0.0982  0.0513  0.0630
 1031YOPC   D2A14864  -0.092   1.242   6.054  0.0950  0.2236 -0.2572
 1031YOPC   C3A14865  -0.033   1.127   6.511 -0.3010 -0.3629  0.0620
 1031YOPC   C4A14866   0.214   0.976   6.848 -0.0105 -0.0928 -0.2640
 1031YOPC   C1B14867   0.954   0.873   5.739 -0.0576  0.0676 -0.2877
 1031YOPC   C2B14868   1.115   1.131   6.122  0.0577  0.1778 -0.1179
 1031YOPC   D3B14869   0.972   1.210   6.541  0.0578 -0.0520  0.2496
 1031YOPC   C4B14870   0.704   1.062   6.869  0.0995 -0.0191  0.0783
 1032YOPC   NC314871   3.732   2.502   5.815  0.3769  0.2998 -0.2175
 1032YOPC   PO414872   3.398   2.160   5.796 -0.0900 -0.0228 -0.3485
 1032YOPC   GL114873   3.289   2.190   6.151  0.1976  0.2380 -0.2517
 1032YOPC   GL214874   3.553   2.406   6.310 -0.0898  0.2209  0.2248
 1032YOPC   C1A14875   3.245   2.132   6.522 -0.1141 -0.2021 -0.1582
 1032YOPC   D2A14876   3.387   2.458   6.821  0.1888 -0.3389  0.1340
 1032YOPC   C3A14877   3.327   2.471   7.305 -0.1672  0.0317 -0.0312
 1032YOPC   C4A14878   3.466   2.476   7.670 -0.1146  0.0467  0.1778
 1032YOPC   C1B14879   3.762   2.790   6.501 -0.0444  0.2776 -0.2425
 1032YOPC   C2B14880   3.504   2.941   6.960 -0.2941 -0.1761  0.1280
 1032YOPC   D3B14881   3.097   2.837   6.984  0.4171  0.1805  0.1278
 1032YOPC   C4B14882   2.839   2.542   7.218 -0.0363 -0.3781 -0.2782
 1033YOPC   NC314883   9.292   4.852   6.192 -0.3337  0.1283 -0.0282
 1033YOPC   PO414884   9.518   5.132   6.171  0.0627  0.1309 -0.1785
 1033YOPC   GL114885   9.503   5.148   6.586  0.0381  0.0728  0.0617
 1033YOPC   GL214886   9.395   4.904   6.712 -0.1629  0.1315 -0.2939
 1033YOPC   C1A14887   9.751   5.293   6.901 -0.0998 -0.1886 -0.0053
 1033YOPC   D2A14888   9.781   5.672   6.988 -0.0727  0.0659  0.0769
 1033YOPC   C3A14889  10.171   5.693   7.150 -0.0570 -0.0180  0.0449
 1033YOPC   C4A14890  10.493   5.813   7.438 -0.0971  0.1028 -0.2853
 1033YOPC   C1B14891   9.409   4.542   6.938 -0.1724 -0.0405  0.4291
 1033YOPC   C2B14892   9.269   4.425   7.355 -0.1175 -0.0613 -0.0037
 1033YOPC   D3B14893   9.392   4.087   7.637  0.0635 -0.0428  0.4305
 1033YOPC   C4B14894   9.047   3.871   7.963 -0.0672 -0.2501 -0.0963
 1034YOPC   NC314895  11.333  12.503   5.564 -0.2339  0.2087 -0.2059
 1034YOPC   PO414896  11.727  12.501   5.368 -0.3199 -0.1067  0.0373
 1034YOPC   GL114897  11.755  12.787   5.615  0.0912 -0.0312 -0.1923
 1034YOPC   GL214898  11.950  13.070   5.608 -0.3923 -0.1101 -0.0790
 1034YOPC   C1A14899  11.792  12.909   6.138  0.1742 -0.1084 -0.0208
 1034YOPC   D2A14900  11.536  12.847   6.530  0.1626 -0.0729 -0.3129
 1034YOPC   C3A14901  11.754  12.830   6.836 -0.1155  0.2195 -0.0901
 1034YOPC   C4A14902  11.776  12.639   7.276 -0.0622 -0.2500 -0.0201
 1034YOPC   C1B14903  12.207  13.156   6.110  0.1597  0.0283  0.0352
 1034YOPC   C2B14904  12.467  13.510   6.312  0.0595  0.0248  0.0099
 1034YOPC   D3B14905  12.369  13.259   6.704 -0.0668  0.0742 -0.1704
 1034YOPC   C4B14906  12.630  13.373   7.001  0.1255  0.1529  0.0085
 1035YOPC   NC314907  14.508   5.649   5.293 -0.2305 -0.0759 -0.1674
 1035YOPC   PO414908  14.191   5.394   5.565 -0.0744 -0.0934 -0.2542
 1035YOPC   GL114909  14.071   5.463   5.982 -0.0055 -0.4156  0.1087
 1035YOPC   GL214910  13.649   5.434   6.033 -0.0029  0.0600  0.2601
 1035YOPC   C1A14911  14.116   5.349   6.363 -0.0294 -0.2988  0.3325
 1035YOPC   D2A14912  14.250   5.103   6.704 -0.2396  0.1193 -0.0628
 1035YOPC   C3A14913  14.115   5.024   7.077  0.1808 -0.0003  0.2522
 1035YOPC   C4A14914  14.248   5.000   7.485  0.1985  0.1387 -0.1108
 1035YOPC   C1B14915  13.774   5.704   6.485  0.3660  0.2806  0.4731
 1035YOPC   C2B14916  13.667   5.876   6.866  0.0407  0.2030  0.4391
 1035YOPC   D3B14917  13.899   6.060   7.091 -0.1522 -0.1719  0.2222
 1035YOPC   C4B14918  13.952   6.237   7.430  0.2312 -0.2746 -0.0734
 1036YOPC   NC314919  11.359   2.882   5.377 -0.1569  0.0631 -0.2494
 1036YOPC   PO414920  11.290   3.081   5.709  0.1451 -0.0465  0.0280
 1036YOPC   GL114921  11.585   3.094   6.033  0.0724 -0.4382 -0.0659
 1036YOPC   GL214922  11.800   3.011   5.975 -0.0533  0.0696  0.3740
 1036YOPC   C1A14923  11.620   3.047   6.431  0.0639  0.0230 -0.1267
 1036YOPC   D2A14924  11.536   3.077   6.914  0.1055  0.0394 -0.4145
 1036YOPC   C3A14925  11.366   2.731   7.023  0.0219  0.0009  0.0485
 1036YOPC   C4A14926  11.235   2.342   7.119 -0.1780  0.1800  0.0755
 1036YOPC   C1B14927  12.043   2.857   6.249  0.1471 -0.1525 -0.0439
 1036YOPC   C2B14928  12.023   2.866   6.639  0.1702  0.2437  0.1449
 1036YOPC   D3B14929  12.323   2.886   7.042  0.1367 -0.0151 -0.1047
 1036YOPC   C4B14930  12.551   2.931   7.415 -0.2188  0.0509 -0.1436
 1037YOPC   NC314931  16.421   6.277   5.436 -0.1250 -0.0548  0.2224
 1037YOPC   PO414932  16.666   6.551   5.158 -0.1301  0.3578 -0.0890
 1037YOPC   GL114933  16.676   6.671   5.585 -0.0115 -0.2169  0.1619
 1037YOPC   GL214934  16.641   6.910   5.595 -0.0276  0.2974  0.0776
 1037YOPC   C1A14935  16.490   6.620   5.972  0.0923  0.0242 -0.0644
 1037YOPC   D2A14936  16.372   6.194   6.233  0.0162  0.2964  0.1531
 1037YOPC   C3A14937  16.310   6.155   6.707 -0.2700 -0.1314 -0.2723
 1037YOPC   C4A14938  16.365   6.132   7.127 -0.1540 -0.2985  0.1808
 1037YOPC   C1B14939  17.019   7.057   5.893 -0.2875  0.1446  0.0486
 1037YOPC   C2B14940  17.316   7.083   6.248  0.0905 -0.1188  0.0833
 1037YOPC   D3B14941  17.202   7.106   6.589 -0.3237 -0.0795  0.2715
 1037YOPC   C4B14942  17.185   7.422   6.946  0.1296 -0.0251  0.1843
 1038YOPC   NC314943   3.364  15.506   5.998  0.1801  0.0546  0.2838
 1038YOPC   PO414944   3.024  15.252   5.930 -0.1062  0.1434  0.2096
 1038YOPC   GL114945   2.816  15.098   6.328 -0.1170  0.3721 -0.0372
 1038YOPC   GL214946   2.773  14.782   6.303  0.1622 -0.2904  0.1346
 1038YOPC   C1A14947   2.898  14.995   6.846 -0.0757 -0.4312 -0.3435
 1038YOPC   D2A14948   3.175  15.082   7.156  0.0667 -0.0037 -0.0172
 1038YOPC   C3A14949   3.542  15.197   7.221  0.4813 -0.0266 -0.1559
 1038YOPC   C4A14950   4.146  15.243   7.369 -0.1965 -0.0636  0.0157
 1038YOPC   C1B14951   2.631  14.579   6.631  0.0461  0.1902  0.0165
 1038YOPC   C2B14952   2.621  14.648   7.088  0.0399 -0.0984  0.0608
 1038YOPC   D3B14953   2.319  14.278   7.120  0.0817  0.1139 -0.0826
 1038YOPC   C4B14954   1.856  14.396   7.170  0.2599 -0.1888 -0.3165
 1039YOPC   NC314955  13.517  12.499   5.420 -0.0599 -0.1213 -0.0145
 1039YOPC   PO414956  13.501  12.169   5.791 -0.2297  0.1624 -0.2147
 1039YOPC   GL114957  13.383  12.275   6.181 -0.0176 -0.1883  0.2410
 1039YOPC   GL214958  13.123  12.200   6.325 -0.3678 -0.2794  0.0826
 1039YOPC   C1A14959  13.341  12.418   6.769  0.2693  0.0962 -0.1547
 1039YOPC   D2A14960  13.310  12.257   7.227  0.1802 -0.3234 -0.0121
 1039YOPC   C3A14961  13.518  12.324   7.608  0.1431  0.0446  0.1823
 1039YOPC   C4A14962  13.816  12.641   7.698 -0.3256 -0.0916 -0.1394
 1039YOPC   C1B14963  13.411  11.842   6.465 -0.0565  0.0007  0.1092
 1039YOPC   C2B14964  13.437  11.886   6.903 -0.0223 -0.2492 -0.1955
 1039YOPC   D3B14965  13.262  11.513   7.170 -0.0982 -0.0468 -0.1643
 1039YOPC   C4B14966  13.201  11.100   7.372  0.0047  0.4055  0.1344
 1040YOPC   NC314967   1.422  16.361   5.394 -0.0742 -0.0441 -0.2057
 1040YOPC   PO414968   1.041  16.210   5.305  0.3358  0.0095 -0.0839
 1040YOPC   GL114969   1.051  16.233   5.785  0.0818  0.3629  0.2083
 1040YOPC   GL214970   0.751  16.276   5.753 -0.0502  0.2228 -0.1925
 1040YOPC   C1A14971   1.078  16.240   6.281  0.0333 -0.0720 -0.0058
 1040YOPC   D2A14972   1.223  16.510   6.517 -0.3609 -0.1325 -0.2170
 1040YOPC   C3A14973   1.077  16.402   6.881  0.4056  0.1776  0.0959
 1040YOPC   C4A14974   0.954  16.616   7.213 -0.1888  0.1033 -0.1206
 1040YOPC   C1B14975   0.595  16.265   6.176  0.1800  0.2309  0.0284
 1040YOPC   C2B14976   0.609  15.998   6.429 -0.0833 -0.3673  0.1979
 1040YOPC   D3B14977   1.005  15.891   6.632  0.3296  0.0456 -0.3732
 1040YOPC   C4B14978   1.328  15.961   6.907  0.0245 -0.0433 -0.1555
 1041YOPC   NC314979  14.408   7.695   5.285  0.2835  0.0160 -0.1264
 1041YOPC   PO414980  14.141   7.451   5.607 -0.0844  0.3065  0.2597
 1041YOPC   GL114981  14.363   7.784   5.947  0.0776 -0.1637  0.0481
 1041YOPC   GL214982  14.602   7.532   6.061 -0.1765  0.0396 -0.2558
 1041YOPC   C1A14983  14.462   7.949   6.310  0.1786 -0.1706 -0.1358
 1041YOPC   D2A14984  14.760   8.148   6.565  0.2514 -0.1379  0.1519
 1041YOPC   C3A14985  14.812   7.999   6.983  0.0742  0.1929 -0.4679
 1041YOPC   C4A14986  14.808   7.846   7.400  0.1072 -0.2093  0.1332
 1041YOPC   C1B14987  14.950   7.714   6.353 -0.2718 -0.3132 -0.2544
 1041YOPC   C2B14988  15.197   7.788   6.719  0.1593  0.1496 -0.0920
 1041YOPC   D3B14989  15.662   7.835   6.709  0.2919 -0.0042 -0.2303
 1041YOPC   C4B14990  15.774   8.192   6.866  0.2287 -0.3784 -0.2575
 1042YOPC   NC314991   8.438  14.028   5.544  0.1971  0.0898 -0.2197
 1042YOPC   PO414992   8.775  14.258   5.602 -0.0440 -0.0074 -0.2134
 1042YOPC   GL114993   8.742  14.288   5.980 -0.1503  0.0031  0.1656
 1042YOPC   GL214994   8.755  14.526   6.228 -0.0478  0.1203 -0.2214
 1042YOPC   C1A14995   8.321  14.234   6.112  0.3089 -0.0217 -0.0512
 1042YOPC   D2A14996   8.077  14.376   6.497 -0.0139 -0.1593 -0.6160
 1042YOPC   C3A14997   7.659  14.324   6.615 -0.3132 -0.2284 -0.0186
 1042YOPC   C4A14998   7.429  14.022   6.807 -0.1132  0.2661 -0.0875
 1042YOPC   C1B14999   8.457  14.631   6.668  0.0295  0.0300  0.1823
 1042YOPC   C2B15000   8.263  14.437   6.979 -0.2065 -0.2665  0.0183
 1042YOPC   D3B15001   8.332  14.488   7.435  0.0793  0.1625 -0.2666
 1042YOPC   C4B15002   8.616  14.846   7.580 -0.0600 -0.2396  0.1839
 1043YOPC   NC315003   7.605   9.960   5.514  0.0269 -0.1549 -0.2026
 1043YOPC   PO415004   7.695   9.506   5.649 -0.0704 -0.2899  0.0231
 1043YOPC   GL115005   7.561   9.692   6.113  0.2632 -0.2398 -0.0817
 1043YOPC   GL215006   7.328   9.383   6.103 -0.0428 -0.0068  0.3100
 1043YOPC   C1A15007   7.248   9.923   6.288 -0.2699  0.0058 -0.4141
 1043YOPC   D2A15008   7.132   9.903   6.672  0.1055 -0.0983 -0.2116
 1043YOPC   C3A15009   6.983  10.207   6.826 -0.0656  0.0888 -0.0000
 1043YOPC   C4A15010   6.790  10.092   7.187 -0.1806 -0.2628 -0.2175
 1043YOPC   C1B15011   7.111   9.427   6.451 -0.0317  0.1398 -0.0708
 1043YOPC   C2B15012   7.102   9.330   6.812  0.0592  0.2974  0.0915
 1043YOPC   D3B15013   7.094   9.555   7.030 -0.0943 -0.3153  0.0099
 1043YOPC   C4B15014   7.390   9.964   7.091 -0.0244  0.0811 -0.0204
 1044YOPC   NC315015  17.042   2.283   5.131  0.4122  0.0031  0.1124
 1044YOPC   PO415016  16.641   2.247   5.199  0.1231  0.0379  0.6183
 1044YOPC   GL115017  16.304   2.385   5.415 -0.0888 -0.0777 -0.1256
 1044YOPC   GL215018  16.444   2.767   5.465  0.3706 -0.1253 -0.0883
 1044YOPC   C1A15019  16.129   2.367   5.839  0.0287  0.1767 -0.0967
 1044YOPC   D2A15020  15.884   2.365   6.200  0.1471  0.1830 -0.2297
 1044YOPC   C3A15021  15.989   2.288   6.567  0.1082 -0.0117  0.1874
 1044YOPC   C4A15022  16.179   2.436   7.013 -0.0964  0.0089  0.1391
 1044YOPC   C1B15023  16.817   2.991   5.596  0.1710  0.3524  0.1893
 1044YOPC   C2B15024  17.044   3.312   5.865 -0.2125 -0.1075  0.2361
 1044YOPC   D3B15025  17.131   3.285   6.249 -0.0709 -0.0065 -0.2936
 1044YOPC   C4B15026  16.796   3.430   6.439 -0.0709  0.0754  0.0769
 1045YOPC   NC315027  12.072   4.700   5.876  0.0567  0.2242 -0.1406
 1045YOPC   PO415028  12.054   4.362   5.869 -0.1047  0.0119  0.1787
 1045YOPC   GL115029  12.026   4.350   6.298 -0.0242  0.2439  0.0090
 1045YOPC   GL215030  12.111   4.617   6.402 -0.2143 -0.1562 -0.2205
 1045YOPC   C1A15031  11.952   4.250   6.725  0.0314  0.0373 -0.2209
 1045YOPC   D2A15032  11.750   4.480   7.049  0.0240 -0.0531 -0.2109
 1045YOPC   C3A15033  11.971   4.881   7.042  0.0998  0.0189 -0.0716
 1045YOPC   C4A15034  12.043   5.310   7.183 -0.2166  0.1022  0.1511
 1045YOPC   C1B15035  12.344   4.987   6.620 -0.1053  0.0101  0.1234
 1045YOPC   C2B15036  12.752   5.151   6.489 -0.2556 -0.0176 -0.0934
 1045YOPC   D3B15037  12.934   5.023   6.886  0.2153  0.0108  0.0481
 1045YOPC   C4B15038  12.792   4.586   6.917 -0.0566 -0.1226  0.2531
 1046YOPC   NC315039  13.709  16.629   4.975 -0.0228 -0.0163 -0.1993
 1046YOPC   PO415040  13.956  16.358   5.280 -0.2875 -0.3263 -0.0062
 1046YOPC   GL115041  13.977  16.411   5.789  0.2928 -0.1418  0.0108
 1046YOPC   GL215042  13.870  16.770   5.825 -0.2334 -0.4922 -0.1203
 1046YOPC   C1A15043  13.900  16.206   6.155  0.1451  0.0774  0.0276
 1046YOPC   D2A15044  13.883  16.334   6.595  0.0061  0.3022  0.0709
 1046YOPC   C3A15045  14.276  16.434   6.598 -0.2958  0.2490  0.3379
 1046YOPC   C4A15046  14.540  16.352   6.925  0.1431 -0.0091 -0.0487
 1046YOPC   C1B15047  13.952  16.764   6.184  0.2263 -0.0213  0.1682
 1046YOPC   C2B15048  13.987  16.857   6.680 -0.0467  0.0694  0.0288
 1046YOPC   D3B15049  13.996  16.676   6.990 -0.2876 -0.0815  0.1086
 1046YOPC   C4B15050  14.013  16.382   7.280 -0.1154 -0.3355  0.2886
 1047YOPC   NC315051  14.546   1.125   5.274  0.1626  0.0113  0.0211
 1047YOPC   PO415052  14.114   1.321   5.102  0.0663 -0.2226  0.0357
 1047YOPC   GL115053  13.856   1.291   5.465  0.0209  0.1189  0.0568
 1047YOPC   GL215054  14.133   1.349   5.662  0.0090 -0.0378 -0.0679
 1047YOPC   C1A15055  13.525   1.031   5.674  0.3254  0.0486 -0.0163
 1047YOPC   D2A15056  13.193   0.807   5.799  0.1339 -0.3620 -0.4258
 1047YOPC   C3A15057  12.920   0.882   6.113  0.1303 -0.0266  0.1486
 1047YOPC   C4A15058  12.539   0.890   6.281 -0.1056  0.2632 -0.2262
 1047YOPC   C1B15059  14.303   1.088   5.916 -0.1888  0.0633 -0.0296
 1047YOPC   C2B15060  14.485   1.097   6.294  0.3137  0.0143 -0.4991
 1047YOPC   D3B15061  14.417   1.282   6.710 -0.0651 -0.0145  0.1443
 1047YOPC   C4B15062  14.569   1.294   7.163  0.1093 -0.1300  0.1644
 1048YOPC   NC315063  17.767   2.697   5.422 -0.0402 -0.3052 -0.0166
 1048YOPC   PO415064  17.581   2.320   5.114  0.0549  0.0148 -0.2676
 1048YOPC   GL115065  17.429   2.348   5.575 -0.1929 -0.0567  0.1643
 1048YOPC   GL215066  17.696   2.312   5.760 -0.1790 -0.3093  0.2444
 1048YOPC   C1A15067  17.207   2.265   5.943 -0.0303 -0.2156 -0.2894
 1048YOPC   D2A15068  16.946   2.342   6.380 -0.0498  0.1941 -0.0023
 1048YOPC   C3A15069  17.046   2.602   6.597 -0.1049 -0.2579  0.4393
 1048YOPC   C4A15070  16.896   3.041   6.755  0.0868 -0.1334  0.0394
 1048YOPC   C1B15071  17.621   2.388   6.114  0.0659  0.0467 -0.0138
 1048YOPC   C2B15072  17.515   2.410   6.610  0.1200 -0.1582 -0.1026
 1048YOPC   D3B15073  17.630   2.611   7.020  0.0231 -0.2174 -0.2201
 1048YOPC   C4B15074  17.815   2.718   7.386  0.0882  0.0100 -0.0084
 1049YOPC   NC315075   4.744   0.329   5.468 -0.1467  0.0289  0.2304
 1049YOPC   PO415076   4.477   0.674   5.673  0.1780 -0.0946  0.0599
 1049YOPC   GL115077   4.457   0.814   6.085 -0.0343  0.0639  0.2113
 1049YOPC   GL215078   4.548   0.577   6.294  0.1778 -0.2612  0.0221
 1049YOPC   C1A15079   4.244   1.084   6.318 -0.0398  0.0025 -0.0274
 1049YOPC   D2A15080   4.378   1.235   6.714 -0.1271 -0.0210  0.1062
 1049YOPC   C3A15081   4.132   1.124   7.022 -0.0571 -0.1067 -0.0713
 1049YOPC   C4A15082   4.008   1.217   7.366  0.0331  0.0888 -0.0814
 1049YOPC   C1B15083   4.401   0.704   6.601 -0.2774 -0.0027 -0.1675
 1049YOPC   C2B15084   4.573   0.828   7.039  0.4689  0.3282  0.1439
 1049YOPC   D3B15085   4.491   0.972   7.304  0.0293 -0.1013  0.2106
 1049YOPC   C4B15086   4.656   0.937   7.667 -0.0665  0.2391  0.0363
 1050YOPC   NC315087  16.543   9.671   4.294  0.0953 -0.0844  0.0081
 1050YOPC   PO415088  16.575   9.429   4.773  0.0671  0.0138 -0.1483
 1050YOPC   GL115089  16.569   9.332   5.261  0.2914  0.2134  0.1406
 1050YOPC   GL215090  16.718   9.600   5.539  0.1060  0.2556 -0.3830
 1050YOPC   C1A15091  16.506   9.203   5.630 -0.0838  0.1897 -0.0271
 1050YOPC   D2A15092  16.535   9.057   5.990 -0.1547  0.1173  0.3044
 1050YOPC   C3A15093  16.538   9.230   6.405 -0.2230  0.0208 -0.2272
 1050YOPC   C4A15094  16.421   9.508   6.680 -0.1098  0.0197  0.1061
 1050YOPC   C1B15095  16.869   9.598   5.923  0.0895 -0.0540 -0.1786
 1050YOPC   C2B15096  16.758   9.765   6.379 -0.2466  0.2893 -0.2623
 1050YOPC   D3B15097  16.914   9.585   6.709  0.1434  0.2172 -0.0413
 1050YOPC   C4B15098  16.774   9.701   7.178 -0.0958 -0.0682  0.0430
 1051YOPC   NC315099   6.754   4.009   5.651 -0.0976  0.1583 -0.1875
 1051YOPC   PO415100   6.687   3.709   6.009 -0.1507  0.1688 -0.3629
 1051YOPC   GL115101   6.537   3.467   6.316  0.2136  0.2198  0.2571
 1051YOPC   GL215102   6.362   3.774   6.430  0.0058 -0.2719  0.0090
 1051YOPC   C1A15103   6.180   3.356   6.608  0.1286 -0.1363  0.1292
 1051YOPC   D2A15104   6.058   3.684   6.937  0.0839 -0.0535 -0.2020
 1051YOPC   C3A15105   6.244   4.093   7.101 -0.0708 -0.0428 -0.0303
 1051YOPC   C4A15106   6.261   4.269   7.536 -0.0487 -0.1601  0.1170
 1051YOPC   C1B15107   6.534   4.048   6.661  0.0028 -0.2150 -0.2888
 1051YOPC   C2B15108   6.898   4.183   6.888 -0.0063  0.0601  0.0089
 1051YOPC   D3B15109   6.785   4.251   7.387  0.0145 -0.1831 -0.2835
 1051YOPC   C4B15110   6.601   4.145   7.850 -0.1525  0.0786 -0.0994
 1052YOPC   NC315111   1.909  11.372   5.358  0.2171  0.0212  0.2664
 1052YOPC   PO415112   1.545  11.458   5.416  0.0192  0.0365 -0.0262
 1052YOPC   GL115113   1.437  11.516   5.818  0.2029 -0.0028 -0.1928
 1052YOPC   GL215114   1.450  11.860   5.782 -0.0167  0.0048  0.1145
 1052YOPC   C1A15115   1.008  11.257   5.896  0.0839 -0.0225 -0.2544
 1052YOPC   D2A15116   0.819  11.068   6.340 -0.0556 -0.2652  0.1772
 1052YOPC   C3A15117   1.105  10.769   6.509 -0.0400 -0.1552  0.0546
 1052YOPC   C4A15118   1.314  10.818   6.839 -0.2136  0.0079  0.1035
 1052YOPC   C1B15119   1.527  11.650   6.280 -0.1660  0.0645  0.3389
 1052YOPC   C2B15120   1.705  11.644   6.657  0.1387  0.0982 -0.2774
 1052YOPC   D3B15121   1.463  11.710   7.057 -0.4057 -0.0613 -0.0228
 1052YOPC   C4B15122   1.335  11.861   7.495 -0.0219 -0.0338 -0.0120
 1053YOPC   NC315123   3.791   9.710   5.415  0.3118 -0.2961 -0.4912
 1053YOPC   PO415124   4.087  10.111   5.434  0.1528  0.4747 -0.4957
 1053YOPC   GL115125   4.107  10.060   5.877  0.3000 -0.2181 -0.2375
 1053YOPC   GL215126   4.120   9.852   6.020 -0.1270 -0.2911 -0.4146
 1053YOPC   C1A15127   3.789  10.164   6.232 -0.0026 -0.4998  0.3730
 1053YOPC   D2A15128   3.513   9.929   6.513  0.0499 -0.0534 -0.0750
 1053YOPC   C3A15129   3.622   9.763   6.882 -0.1053  0.2419 -0.3403
 1053YOPC   C4A15130   3.873   9.861   7.217 -0.0419  0.0263  0.1836
 1053YOPC   C1B15131   4.344  10.260   6.241 -0.3966  0.1537 -0.2014
 1053YOPC   C2B15132   4.540  10.569   6.088 -0.2269 -0.0420 -0.0609
 1053YOPC   D3B15133   4.491  11.016   6.218  0.0739 -0.0354  0.1720
 1053YOPC   C4B15134   4.686  11.417   6.041 -0.0492 -0.0510  0.0979
 1054YOPC   NC315135   5.658  16.878   5.561  0.2876  0.0763  0.1843
 1054YOPC   PO415136   6.119  17.118   5.637 -0.0996 -0.0018 -0.2644
 1054YOPC   GL115137   5.912  17.091   6.006 -0.0696  0.0102  0.0552
 1054YOPC   GL215138   5.575  16.933   6.125 -0.1370  0.2018  0.0585
 1054YOPC   C1A15139   5.843  17.331   6.371 -0.2242 -0.0993  0.0457
 1054YOPC   D2A15140   5.530  17.451   6.653  0.0494  0.1468 -0.2364
 1054YOPC   C3A15141   5.112  17.315   6.891 -0.0629 -0.0973 -0.1046
 1054YOPC   C4A15142   4.819  17.377   7.220 -0.3116  0.4056  0.1410
 1054YOPC   C1B15143   5.610  16.935   6.540 -0.0888 -0.1379 -0.0980
 1054YOPC   C2B15144   5.527  16.933   6.906 -0.3168  0.0266 -0.0913
 1054YOPC   D3B15145   5.594  16.692   7.078 -0.0159  0.2005 -0.0157
 1054YOPC   C4B15146   5.410  16.583   7.525 -0.2573 -0.1240 -0.4180
 1055YOPC   NC315147  15.649   8.902   5.159 -0.0042 -0.0525 -0.2060
 1055YOPC   PO415148  16.135   8.949   5.246  0.0236 -0.0305  0.0298
 1055YOPC   GL115149  16.150   8.918   5.667  0.0274 -0.0574  0.1466
 1055YOPC   GL215150  16.289   8.682   5.842  0.0929  0.2940  0.0286
 1055YOPC   C1A15151  16.117   8.997   6.214 -0.0677  0.1440 -0.1711
 1055YOPC   D2A15152  16.134   8.989   6.653 -0.0694 -0.0593 -0.0876
 1055YOPC   C3A15153  15.933   8.738   6.870  0.1791 -0.3049 -0.2700
 1055YOPC   C4A15154  15.846   8.449   7.259  0.0729 -0.1106 -0.0623
 1055YOPC   C1B15155  16.431   8.231   6.080  0.3188 -0.1387 -0.3244
 1055YOPC   C2B15156  16.721   8.006   6.080  0.1883 -0.3610 -0.2060
 1055YOPC   D3B15157  17.221   8.172   6.072  0.2184 -0.3302 -0.0538
 1055YOPC   C4B15158  17.452   8.300   6.409 -0.0124 -0.3256  0.1736
 1056YOPC   NC315159  18.156  15.584   4.976  0.0782 -0.0280  0.3841
 1056YOPC   PO415160  18.097  15.173   5.054  0.3906  0.1154  0.1035
 1056YOPC   GL115161  18.072  15.289   5.448 -0.0020 -0.1554  0.3159
 1056YOPC   GL215162  17.939  15.005   5.628  0.1095 -0.2411  0.0393
 1056YOPC   C1A15163  17.916  15.451   5.878 -0.0879  0.1858 -0.2922
 1056YOPC   D2A15164  17.887  15.400   6.320 -0.2526 -0.2403 -0.0373
 1056YOPC   C3A15165  18.044  15.608   6.731  0.1145  0.0400  0.0513
 1056YOPC   C4A15166  18.241  15.787   7.120  0.2083 -0.1821  0.2859
 1056YOPC   C1B15167  18.136  14.947   5.969 -0.1548 -0.0304  0.2165
 1056YOPC   C2B15168  18.185  14.829   6.432  0.3147  0.2354 -0.0414
 1056YOPC   D3B15169  18.098  15.057   6.742  0.0702  0.1094  0.2483
 1056YOPC   C4B15170  18.183  15.083   7.038 -0.0819 -0.2495  0.2003
 1057YOPC   NC315171   0.544   2.841   5.072 -0.0625  0.1036 -0.1011
 1057YOPC   PO415172   0.947   2.833   5.323 -0.2006  0.0138  0.1487
 1057YOPC   GL115173   0.980   2.659   5.701  0.1121  0.0164 -0.0756
 1057YOPC   GL215174   0.706   2.800   5.976 -0.0651 -0.1321 -0.0352
 1057YOPC   C1A15175   0.918   2.334   6.135  0.0133  0.1679  0.0576
 1057YOPC   D2A15176   1.083   2.105   6.378 -0.0183  0.0390 -0.0485
 1057YOPC   C3A15177   1.333   1.818   6.553 -0.0764 -0.0894  0.2193
 1057YOPC   C4A15178   1.769   1.788   6.610  0.1140 -0.1278 -0.2562
 1057YOPC   C1B15179   0.753   3.183   6.257 -0.0027 -0.0502  0.0725
 1057YOPC   C2B15180   0.440   3.471   6.197  0.2029 -0.0168  0.0079
 1057YOPC   D3B15181   0.044   3.502   6.278  0.2050  0.0065 -0.1688
 1057YOPC   C4B15182  -0.318   3.528   6.543 -0.2742 -0.0398  0.0453
 1058YOPC   NC315183   0.297  11.102   5.174 -0.1154 -0.0413 -0.1458
 1058YOPC   PO415184   0.631  10.819   5.223  0.0922  0.2758  0.1007
 1058YOPC   GL115185   0.342  10.847   5.622  0.1619  0.2074  0.0241
 1058YOPC   GL215186   0.565  10.950   5.849  0.0792 -0.1823 -0.0576
 1058YOPC   C1A15187   0.051  10.591   5.831 -0.1047 -0.1579  0.0927
 1058YOPC   D2A15188  -0.152  10.610   6.246  0.2478  0.1134  0.0913
 1058YOPC   C3A15189   0.073  10.473   6.533  0.4374 -0.1192 -0.1880
 1058YOPC   C4A15190   0.171  10.331   7.050  0.1107 -0.0682 -0.3639
 1058YOPC   C1B15191   0.484  10.719   6.239  0.0357 -0.0615 -0.1820
 1058YOPC   C2B15192   0.655  10.458   6.601 -0.0578  0.0329 -0.0800
 1058YOPC   D3B15193   0.826  10.666   6.983  0.0786  0.2000  0.2495
 1058YOPC   C4B15194   1.172  10.769   7.324 -0.3732  0.1976  0.2420
 1059YOPC   NC315195  13.369  13.296   5.138 -0.0016  0.0891  0.1157
 1059YOPC   PO415196  13.250  12.992   5.385  0.3533 -0.1257 -0.0385
 1059YOPC   GL115197  13.360  13.035   5.816 -0.3088  0.1030 -0.1579
 1059YOPC   GL215198  13.202  12.690   5.953 -0.1016  0.0420  0.0650
 1059YOPC   C1A15199  13.190  13.240   6.089  0.1509 -0.3780 -0.0310
 1059YOPC   D2A15200  12.805  13.038   6.284 -0.3161 -0.0629  0.0435
 1059YOPC   C3A15201  12.878  13.029   6.718 -0.1324  0.1219  0.0512
 1059YOPC   C4A15202  12.808  12.789   6.992 -0.0101 -0.0921 -0.0366
 1059YOPC   C1B15203  13.251  12.793   6.446 -0.2632 -0.0654 -0.0939
 1059YOPC   C2B15204  13.363  12.911   6.935 -0.3605 -0.0157 -0.1054
 1059YOPC   D3B15205  13.097  13.200   7.116  0.0424  0.0595  0.1353
 1059YOPC   C4B15206  13.147  13.511   7.205  0.1918  0.0867 -0.0773
 1060YOPC   NC315207  15.667  17.541   5.027  0.1200  0.0516 -0.0345
 1060YOPC   PO415208  15.299  17.613   5.248 -0.5664 -0.1067 -0.1361
 1060YOPC   GL115209  15.396  17.838   5.664 -0.2429  0.3001  0.1257
 1060YOPC   GL215210  15.228  18.131   5.746  0.1159  0.0565  0.4639
 1060YOPC   C1A15211  15.757  17.932   5.986  0.1576 -0.0133  0.1109
 1060YOPC   D2A15212  15.690  18.123   6.443  0.2058  0.0328 -0.2299
 1060YOPC   C3A15213  15.469  18.241   6.712  0.1630  0.6572 -0.0761
 1060YOPC   C4A15214  15.411  18.209   7.099  0.2792  0.1533  0.1769
 1060YOPC   C1B15215  15.278  18.085   6.204 -0.0499  0.0439  0.0450
 1060YOPC   C2B15216  14.966  18.185   6.513  0.1478  0.0865 -0.1795
 1060YOPC   D3B15217  14.939  18.075   6.927 -0.3944  0.2379 -0.4535
 1060YOPC   C4B15218  14.962  17.960   7.396  0.2255 -0.0981  0.3441
 1061YOPC   NC315219  12.706  14.782   5.384 -0.1428 -0.1827  0.1509
 1061YOPC   PO415220  12.322  14.632   5.338 -0.0097 -0.1509 -0.0864
 1061YOPC   GL115221  12.241  14.632   5.790 -0.0595  0.3401 -0.3863
 1061YOPC   GL215222  12.436  14.873   5.893  0.0145  0.2371  0.2579
 1061YOPC   C1A15223  12.311  14.344   6.204 -0.0444  0.3321 -0.1775
 1061YOPC   D2A15224  12.600  14.498   6.604  0.0782  0.0960  0.0774
 1061YOPC   C3A15225  12.373  14.738   6.914 -0.0583  0.1538  0.1777
 1061YOPC   C4A15226  12.468  15.020   7.016 -0.0809  0.2419  0.1314
 1061YOPC   C1B15227  12.204  15.159   6.147 -0.0538 -0.1122 -0.6280
 1061YOPC   C2B15228  12.101  15.229   6.516 -0.3091  0.3440 -0.1595
 1061YOPC   D3B15229  12.024  15.175   6.934 -0.1546  0.1370  0.2637
 1061YOPC   C4B15230  11.655  15.278   7.140 -0.0717 -0.3003 -0.2962
 1062YOPC   NC315231   7.481   2.708   6.044  0.2985 -0.2222 -0.2294
 1062YOPC   PO415232   7.352   3.060   6.272 -0.1337  0.2966 -0.0964
 1062YOPC   GL115233   7.415   3.367   6.578 -0.0770  0.2221  0.2007
 1062YOPC   GL215234   7.381   3.572   6.363  0.0347 -0.3026 -0.1973
 1062YOPC   C1A15235   7.369   3.460   6.958 -0.3133  0.0847  0.1442
 1062YOPC   D2A15236   7.104   3.406   7.370  0.1271 -0.0010 -0.4262
 1062YOPC   C3A15237   6.685   3.286   7.446  0.1195  0.4323 -0.0485
 1062YOPC   C4A15238   6.270   3.318   7.331 -0.3315  0.3257 -0.0039
 1062YOPC   C1B15239   7.286   3.882   6.756  0.2083 -0.2842 -0.1769
 1062YOPC   C2B15240   7.198   4.046   7.213 -0.0366  0.1374 -0.5175
 1062YOPC   D3B15241   7.051   3.824   7.667 -0.1336  0.0045  0.0638
 1062YOPC   C4B15242   7.287   3.976   8.027  0.0310  0.0546 -0.0708
 1063YOPC   NC315243   7.168  10.836   5.463  0.2889 -0.1216 -0.1918
 1063YOPC   PO415244   7.137  10.365   5.596  0.1229 -0.2410 -0.0965
 1063YOPC   GL115245   6.985  10.275   5.977 -0.0273 -0.0909 -0.2124
 1063YOPC   GL215246   7.109  10.436   6.218  0.0235 -0.1541  0.0315
 1063YOPC   C1A15247   6.751  10.024   6.404 -0.1631 -0.0333 -0.0367
 1063YOPC   D2A15248   6.684   9.811   6.748  0.1734  0.3225  0.0095
 1063YOPC   C3A15249   6.299   9.937   6.930 -0.0126  0.0716  0.0785
 1063YOPC   C4A15250   6.164  10.132   7.267  0.2419 -0.0107  0.2847
 1063YOPC   C1B15251   7.321  10.386   6.599 -0.1572 -0.0725  0.4720
 1063YOPC   C2B15252   7.424  10.444   6.924  0.0135 -0.1924 -0.0441
 1063YOPC   D3B15253   7.229  10.415   7.291 -0.1836  0.0608 -0.5102
 1063YOPC   C4B15254   7.133  10.192   7.724 -0.1988 -0.2444 -0.0599
 1064YOPC   NC315255  14.132  11.735   5.037 -0.2261 -0.1453  0.0201
 1064YOPC   PO415256  14.202  11.707   5.534  0.2051 -0.4165 -0.0396
 1064YOPC   GL115257  14.001  11.725   5.982  0.1881  0.0700 -0.4190
 1064YOPC   GL215258  13.785  11.907   6.144  0.1076  0.0547 -0.1824
 1064YOPC   C1A15259  14.169  11.896   6.452 -0.0618 -0.0897 -0.3493
 1064YOPC   D2A15260  14.567  11.795   6.741 -0.2578  0.0914 -0.0186
 1064YOPC   C3A15261  14.881  12.015   6.986 -0.2911  0.1830  0.0735
 1064YOPC   C4A15262  15.200  12.098   7.384  0.1471  0.0791  0.0867
 1064YOPC   C1B15263  13.757  12.162   6.566 -0.2410  0.0426 -0.0970
 1064YOPC   C2B15264  13.820  12.203   6.924  0.0330  0.1321 -0.0389
 1064YOPC   D3B15265  13.703  12.577   7.143  0.0278  0.0723  0.0382
 1064YOPC   C4B15266  13.754  12.971   7.287  0.1627  0.3270 -0.1211
 1065YOPC   NC315267   6.301   5.440   5.675  0.1403  0.0412 -0.0577
 1065YOPC   PO415268   6.037   5.875   5.676  0.3935 -0.1593 -0.1220
 1065YOPC   GL115269   5.758   5.953   5.944  0.1263 -0.2130  0.3483
 1065YOPC   GL215270   5.639   5.675   5.983  0.2762  0.0639 -0.1013
 1065YOPC   C1A15271   5.820   6.076   6.387  0.0846 -0.0857  0.1612
 1065YOPC   D2A15272   5.782   5.861   6.790 -0.2009 -0.1096 -0.3312
 1065YOPC   C3A15273   6.041   5.792   7.055  0.0439  0.0565  0.2807
 1065YOPC   C4A15274   6.213   5.666   7.443 -0.1097 -0.0178 -0.2093
 1065YOPC   C1B15275   5.650   5.526   6.415  0.0257  0.0391  0.1460
 1065YOPC   C2B15276   5.426   5.485   6.827  0.1317  0.1017  0.1438
 1065YOPC   D3B15277   5.199   5.385   7.123  0.0279 -0.1809  0.2704
 1065YOPC   C4B15278   5.055   4.980   7.278 -0.1834 -0.0335  0.1421
 1066YOPC   NC315279  11.443  17.625   5.475 -0.1262  0.0452 -0.2915
 1066YOPC   PO415280  11.243  17.251   5.322  0.0850  0.1393  0.0702
 1066YOPC   GL115281  11.205  17.110   5.712  0.3299  0.2869 -0.1275
 1066YOPC   GL215282  10.848  17.127   5.712  0.1769  0.0065 -0.0168
 1066YOPC   C1A15283  11.338  16.999   6.076  0.0850 -0.0999 -0.1668
 1066YOPC   D2A15284  11.309  17.250   6.418 -0.3073 -0.0702  0.0368
 1066YOPC   C3A15285  11.602  17.015   6.845  0.1656  0.1233  0.1881
 1066YOPC   C4A15286  11.632  17.262   7.281 -0.0264 -0.2597 -0.1003
 1066YOPC   C1B15287  10.846  17.197   6.100  0.2325 -0.2982  0.2317
 1066YOPC   C2B15288  10.828  16.946   6.456 -0.0765  0.0016 -0.1362
 1066YOPC   D3B15289  10.602  16.610   6.754  0.1536 -0.1100 -0.0664
 1066YOPC   C4B15290  10.833  16.549   7.186 -0.0841 -0.1204 -0.1419
 1067YOPC   NC315291   9.885   2.487   5.641  0.3004 -0.1448  0.2457
 1067YOPC   PO415292  10.188   2.136   5.867  0.1639  0.0323  0.0421
 1067YOPC   GL115293  10.125   1.918   6.160  0.2471  0.1419 -0.2945
 1067YOPC   GL215294  10.372   1.862   6.340 -0.2531  0.2331 -0.0732
 1067YOPC   C1A15295   9.882   1.946   6.549 -0.3558  0.0230  0.0839
 1067YOPC   D2A15296   9.693   1.812   7.019  0.1820  0.0373  0.0538
 1067YOPC   C3A15297   9.677   1.821   7.464 -0.0571 -0.1639  0.5025
 1067YOPC   C4A15298   9.682   1.741   7.886 -0.1159  0.0964  0.2553
 1067YOPC   C1B15299  10.274   1.869   6.836  0.0561 -0.2067 -0.0371
 1067YOPC   C2B15300  10.182   1.915   7.349 -0.1502 -0.2906 -0.0550
 1067YOPC   D3B15301  10.527   1.674   7.666 -0.1944 -0.0495  0.0769
 1067YOPC   C4B15302  10.474   1.297   7.966  0.4056 -0.1688 -0.3233
 1068YOPC   NC315303  10.728  12.412   5.830 -0.0886 -0.0737  0.0647
 1068YOPC   PO415304  11.107  12.508   5.964  0.3459 -0.3160  0.1374
 1068YOPC   GL115305  10.881  12.686   6.278  0.2425  0.1497  0.2021
 1068YOPC   GL215306  10.530  12.577   6.311  0.1718 -0.0055  0.1596
 1068YOPC   C1A15307  11.031  12.972   6.626  0.2964  0.0933 -0.1990
 1068YOPC   D2A15308  11.274  13.005   6.910  0.2454  0.3710  0.2130
 1068YOPC   C3A15309  11.606  13.303   6.862 -0.2375  0.4243  0.1760
 1068YOPC   C4A15310  11.848  13.246   6.495  0.1249 -0.1291  0.1208
 1068YOPC   C1B15311  10.139  12.505   6.448 -0.3418 -0.1657 -0.0029
 1068YOPC   C2B15312  10.080  12.393   6.913  0.0588  0.1261  0.0119
 1068YOPC   D3B15313  10.284  12.591   7.226  0.1370 -0.2718 -0.0216
 1068YOPC   C4B15314  10.370  13.046   7.397  0.1202  0.2999 -0.0378
 1069YOPC   NC315315   0.236  11.722   5.234 -0.0538 -0.1717  0.2878
 1069YOPC   PO415316   0.567  11.894   5.503  0.1373  0.2339  0.0322
 1069YOPC   GL115317   0.679  11.605   5.800 -0.3421 -0.0165 -0.0191
 1069YOPC   GL215318   0.908  11.823   5.903  0.2620  0.0649 -0.2245
 1069YOPC   C1A15319   0.619  11.794   6.293  0.0021 -0.1464  0.0423
 1069YOPC   D2A15320   0.650  12.088   6.704  0.0768  0.1681 -0.2675
 1069YOPC   C3A15321   0.389  12.048   7.100  0.4788  0.0940 -0.1562
 1069YOPC   C4A15322   0.098  11.927   7.169  0.1639  0.0541 -0.3524
 1069YOPC   C1B15323   1.058  11.642   6.272 -0.2062 -0.0267 -0.1758
 1069YOPC   C2B15324   1.008  11.656   6.859  0.0581 -0.2282  0.1631
 1069YOPC   D3B15325   0.983  11.921   7.124  0.0516  0.0240 -0.3045
 1069YOPC   C4B15326   0.755  12.218   7.369 -0.3034  0.0374  0.0636
 1070YOPC   NC315327  14.363   1.921   4.619  0.0262  0.1447 -0.2236
 1070YOPC   PO415328  14.184   1.782   5.026  0.0499 -0.1607 -0.1644
 1070YOPC   GL115329  14.307   1.763   5.403 -0.0098  0.2553 -0.0130
 1070YOPC   GL215330  14.571   1.563   5.525  0.0245 -0.0985 -0.0503
 1070YOPC   C1A15331  14.194   1.836   5.781 -0.0218  0.1838 -0.0015
 1070YOPC   D2A15332  13.968   1.931   6.025  0.0314  0.1016  0.1594
 1070YOPC   C3A15333  13.678   1.894   6.270  0.0504  0.1145  0.3197
 1070YOPC   C4A15334  13.850   1.686   6.518 -0.1237  0.1247 -0.1433
 1070YOPC   C1B15335  14.522   1.512   5.964 -0.1911 -0.2175  0.1026
 1070YOPC   C2B15336  14.247   1.559   6.294  0.3599  0.1338 -0.0852
 1070YOPC   D3B15337  14.288   1.866   6.658 -0.0505  0.0095 -0.0465
 1070YOPC   C4B15338  14.386   2.192   7.001 -0.0625 -0.0986 -0.1657
 1071YOPC   NC315339   1.444  12.323   5.457  0.0866 -0.0689 -0.1612
 1071YOPC   PO415340   1.801  11.875   5.408  0.3484 -0.2228  0.1662
 1071YOPC   GL115341   1.947  11.761   5.837 -0.1117  0.0132  0.0728
 1071YOPC   GL215342   2.232  11.695   5.818 -0.0295  0.0780 -0.0545
 1071YOPC   C1A15343   2.027  11.630   6.256 -0.2538  0.1432 -0.0410
 1071YOPC   D2A15344   2.206  11.592   6.650 -0.0049  0.1574  0.1036
 1071YOPC   C3A15345   2.660  11.425   6.622 -0.2099  0.2372  0.1804
 1071YOPC   C4A15346   2.990  11.077   6.671  0.2781  0.1420  0.2780
 1071YOPC   C1B15347   2.486  11.383   6.082  0.0921 -0.2178 -0.0375
 1071YOPC   C2B15348   2.637  11.043   6.348 -0.0995  0.1409  0.1732
 1071YOPC   D3B15349   2.433  10.965   6.732 -0.1471  0.0167  0.2412
 1071YOPC   C4B15350   2.346  11.315   7.059 -0.1399  0.0611 -0.0216
 1072YOPC   NC315351  13.364   3.187   5.314  0.0697 -0.1841  0.1107
 1072YOPC   PO415352  13.497   3.625   5.427  0.0744  0.0199  0.4483
 1072YOPC   GL115353  13.236   3.464   5.808 -0.1144  0.2424 -0.1160
 1072YOPC   GL215354  13.042   3.389   5.717 -0.0235  0.1407 -0.1286
 1072YOPC   C1A15355  12.970   3.467   6.229  0.0566 -0.2764  0.0451
 1072YOPC   D2A15356  13.086   3.581   6.647 -0.0885  0.3966  0.0706
 1072YOPC   C3A15357  13.251   3.304   6.951  0.0795 -0.2121 -0.1085
 1072YOPC   C4A15358  13.041   3.150   7.358  0.2449 -0.0253  0.2098
 1072YOPC   C1B15359  13.046   3.041   5.997 -0.0365 -0.0824  0.0502
 1072YOPC   C2B15360  13.146   2.763   6.195  0.0319  0.2014  0.0896
 1072YOPC   D3B15361  13.072   2.609   6.512 -0.0349  0.1891 -0.1637
 1072YOPC   C4B15362  12.947   2.318   6.683 -0.1484  0.2350 -0.2904
 1073YOPC   NC315363  11.162  10.761   5.436  0.0129  0.0546  0.3619
 1073YOPC   PO415364  11.178  11.079   5.706 -0.1791  0.1365  0.0467
 1073YOPC   GL115365  10.970  11.414   5.952 -0.0223  0.1740  0.0533
 1073YOPC   GL215366  10.730  11.202   6.110  0.2397 -0.1375  0.1597
 1073YOPC   C1A15367  11.190  11.616   6.224  0.4556  0.2543 -0.1101
 1073YOPC   D2A15368  11.508  11.491   6.631  0.2346  0.1936 -0.1353
 1073YOPC   C3A15369  11.314  11.292   6.821 -0.1324 -0.0780 -0.0750
 1073YOPC   C4A15370  11.131  11.395   7.120 -0.0889  0.1132 -0.2238
 1073YOPC   C1B15371  10.434  11.023   6.443 -0.2248 -0.3779 -0.0140
 1073YOPC   C2B15372  10.120  10.824   6.639 -0.2690  0.0804 -0.0373
 1073YOPC   D3B15373  10.134  10.644   6.980 -0.2868  0.0839  0.3941
 1073YOPC   C4B15374  10.414  10.614   7.302  0.2073  0.2684 -0.1047
 1074YOPC   NC315375  18.024   3.648   5.227  0.1262  0.1809 -0.3115
 1074YOPC   PO415376  18.370   3.549   5.425  0.0822  0.0746 -0.1512
 1074YOPC   GL115377  18.583   3.768   5.675  0.1045  0.0913  0.0209
 1074YOPC   GL215378  18.321   3.767   5.935  0.0411  0.0846  0.1144
 1074YOPC   C1A15379  18.787   3.897   5.998  0.0353 -0.0939  0.1616
 1074YOPC   D2A15380  18.759   4.169   6.341 -0.0288  0.1386  0.0496
 1074YOPC   C3A15381  18.952   3.934   6.591 -0.1294 -0.1492 -0.1699
 1074YOPC   C4A15382  18.847   3.667   6.962  0.1529  0.0337 -0.1561
 1074YOPC   C1B15383  18.050   3.483   6.320  0.2176  0.1591 -0.3569
 1074YOPC   C2B15384  17.897   3.267   6.547 -0.1755 -0.2345 -0.1792
 1074YOPC   D3B15385  17.481   3.422   6.547  0.1054 -0.1253 -0.2019
 1074YOPC   C4B15386  17.170   3.458   6.823  0.1099 -0.3555 -0.0239
 1075YOPC   NC315387   8.015   4.235   6.201  0.2801 -0.1553 -0.0226
 1075YOPC   PO415388   7.780   4.460   5.991 -0.0404 -0.1060 -0.0399
 1075YOPC   GL115389   7.697   4.484   6.504 -0.0667  0.2707 -0.1617
 1075YOPC   GL215390   7.264   4.533   6.765 -0.2556 -0.2484 -0.1119
 1075YOPC   C1A15391   7.674   4.260   6.975 -0.1993  0.2069  0.0329
 1075YOPC   D2A15392   7.871   4.245   7.347  0.1269  0.1786  0.0223
 1075YOPC   C3A15393   8.277   4.344   7.542  0.0057 -0.0019  0.3648
 1075YOPC   C4A15394   8.795   4.434   7.600  0.0815 -0.1433 -0.0513
 1075YOPC   C1B15395   7.333   4.555   7.189  0.2964  0.1479  0.0198
 1075YOPC   C2B15396   7.641   4.700   7.557  0.0543  0.1872  0.1354
 1075YOPC   D3B15397   7.683   4.877   7.948  0.0415 -0.2269  0.0899
 1075YOPC   C4B15398   7.982   4.893   8.237 -0.0403  0.2694 -0.0626
 1076YOPC   NC315399  12.239   5.528   5.950 -0.1127  0.1111 -0.0619
 1076YOPC   PO415400  11.912   5.249   5.906 -0.0813  0.2461 -0.0838
 1076YOPC   GL115401  11.752   5.177   6.300  0.0548  0.2386 -0.2955
 1076YOPC   GL215402  11.667   4.859   6.223 -0.2100 -0.0997  0.0897
 1076YOPC   C1A15403  11.880   5.314   6.672  0.0368 -0.4466  0.2027
 1076YOPC   D2A15404  11.752   5.679   6.890 -0.2382  0.0876 -0.3470
 1076YOPC   C3A15405  11.729   5.703   7.273 -0.0042  0.1756 -0.0487
 1076YOPC   C4A15406  11.903   5.509   7.671  0.2108  0.1827 -0.0735
 1076YOPC   C1B15407  11.641   4.811   6.621 -0.1425  0.3268  0.0365
 1076YOPC   C2B15408  11.478   5.047   6.891 -0.1055 -0.1980  0.1537
 1076YOPC   D3B15409  11.463   4.791   7.307  0.2476  0.1051  0.0504
 1076YOPC   C4B15410  11.632   4.575   7.549  0.0753 -0.0875 -0.0175
 1077YOPC   NC315411   1.628  10.035   5.066 -0.1930  0.0054 -0.0860
 1077YOPC   PO415412   2.093  10.122   5.083 -0.0149  0.0193  0.2200
 1077YOPC   GL115413   2.037  10.017   5.571  0.0470 -0.1850 -0.0127
 1077YOPC   GL215414   1.699  10.148   5.731 -0.1194  0.0049 -0.0519
 1077YOPC   C1A15415   2.270  10.262   5.879  0.0773 -0.1013 -0.0166
 1077YOPC   D2A15416   2.278  10.332   6.220 -0.0736 -0.2621  0.2209
 1077YOPC   C3A15417   2.492  10.516   6.445  0.1964 -0.0359  0.0007
 1077YOPC   C4A15418   2.853  10.618   6.566  0.0063  0.1461  0.2239
 1077YOPC   C1B15419   1.909  10.021   6.069  0.1667  0.0655 -0.5312
 1077YOPC   C2B15420   2.074   9.999   6.548  0.2931 -0.1282  0.2856
 1077YOPC   D3B15421   1.892  10.092   6.964  0.0063  0.3163  0.0122
 1077YOPC   C4B15422   2.018  10.355   7.174  0.0157  0.1081 -0.2349
 1078YOPC   NC315423   5.771   6.223   5.487  0.0177  0.0424 -0.0577
 1078YOPC   PO415424   5.475   5.770   5.464 -0.1543 -0.3885 -0.1229
 1078YOPC   GL115425   5.132   5.814   5.728 -0.1775 -0.0440 -0.0411
 1078YOPC   GL215426   5.255   5.974   6.002  0.0070  0.0475  0.1046
 1078YOPC   C1A15427   4.759   6.018   5.938 -0.0636 -0.2117  0.1273
 1078YOPC   D2A15428   4.527   5.820   6.273  0.2290  0.1840  0.1690
 1078YOPC   C3A15429   4.139   5.826   6.313  0.2691 -0.3008 -0.1950
 1078YOPC   C4A15430   3.890   5.637   6.542  0.2197 -0.1254 -0.0176
 1078YOPC   C1B15431   5.316   5.948   6.445 -0.2278  0.0025 -0.2230
 1078YOPC   C2B15432   5.195   5.956   6.842  0.3404 -0.1702 -0.1409
 1078YOPC   D3B15433   5.412   5.892   7.213 -0.3877  0.3865  0.2739
 1078YOPC   C4B15434   5.637   5.872   7.682  0.1140  0.2648 -0.1169
 1079YOPC   NC315435   9.245   5.926   6.063 -0.0552 -0.1779 -0.2283
 1079YOPC   PO415436   9.581   6.080   6.057 -0.0212 -0.3188 -0.2860
 1079YOPC   GL115437   9.586   6.087   6.520  0.2016  0.1258 -0.2936
 1079YOPC   GL215438   9.484   6.427   6.597  0.1352 -0.0208 -0.1574
 1079YOPC   C1A15439   9.401   6.031   6.883 -0.1316 -0.0152 -0.0615
 1079YOPC   D2A15440   9.418   5.712   7.268  0.1071  0.0887  0.0067
 1079YOPC   C3A15441   9.622   5.353   7.422  0.1562 -0.0902 -0.0063
 1079YOPC   C4A15442   9.559   4.897   7.244  0.2872  0.3649 -0.1147
 1079YOPC   C1B15443   9.808   6.448   6.900  0.0787  0.1707  0.1883
 1079YOPC   C2B15444   9.782   6.109   7.233 -0.2642  0.2379  0.0065
 1079YOPC   D3B15445   9.556   6.125   7.568  0.2858  0.3250  0.1521
 1079YOPC   C4B15446   9.336   6.123   7.967  0.0496 -0.1835 -0.0945
 1080YOPC   NC315447  13.950   9.455   5.502  0.3870 -0.0261  0.0226
 1080YOPC   PO415448  13.544   9.251   5.715  0.0440 -0.1217 -0.0711
 1080YOPC   GL115449  13.612   9.510   6.017  0.4165 -0.0062  0.0419
 1080YOPC   GL215450  13.947   9.645   6.014 -0.0660 -0.0184  0.3672
 1080YOPC   C1A15451  13.686   9.359   6.463  0.1633  0.1491 -0.4311
 1080YOPC   D2A15452  13.667   9.018   6.665  0.2384 -0.2067 -0.2926
 1080YOPC   C3A15453  13.771   8.750   6.401 -0.0952  0.0562  0.1783
 1080YOPC   C4A15454  14.216   8.659   6.287 -0.2722  0.2563 -0.2983
 1080YOPC   C1B15455  14.211   9.398   6.433 -0.4138 -0.2056  0.2790
 1080YOPC   C2B15456  14.254   9.103   6.843 -0.2479  0.0553  0.0234
 1080YOPC   D3B15457  14.143   8.729   6.831  0.0174 -0.3910 -0.3624
 1080YOPC   C4B15458  14.430   8.425   6.839 -0.1478 -0.1644 -0.2347
 1081YOPC   NC315459   1.786  15.056   5.287  0.1248 -0.0903 -0.0793
 1081YOPC   PO415460   2.201  15.113   5.572 -0.2174 -0.0077  0.1291
 1081YOPC   GL115461   1.963  14.793   5.808 -0.0953  0.4860 -0.2713
 1081YOPC   GL215462   1.714  14.933   5.868 -0.0524  0.1595 -0.0876
 1081YOPC   C1A15463   1.807  14.624   6.267  0.1578  0.2602  0.2219
 1081YOPC   D2A15464   1.874  14.537   6.687 -0.2018 -0.1073 -0.1537
 1081YOPC   C3A15465   2.070  14.877   6.936  0.3003 -0.1464 -0.0172
 1081YOPC   C4A15466   1.892  15.088   7.190  0.0202 -0.0263 -0.3258
 1081YOPC   C1B15467   1.757  15.248   6.094  0.0817  0.0597 -0.3371
 1081YOPC   C2B15468   1.917  15.569   6.342  0.0959  0.1756  0.0648
 1081YOPC   D3B15469   1.726  15.734   6.589 -0.1193 -0.1438  0.2665
 1081YOPC   C4B15470   1.528  16.077   6.446  0.1773 -0.1110  0.1040
 1082YOPC   NC315471  11.494   0.557   5.402 -0.2531  0.0242  0.0030
 1082YOPC   PO415472  11.865   0.427   5.328  0.3927 -0.1255 -0.2947
 1082YOPC   GL115473  11.989   0.723   5.704 -0.0703 -0.1167  0.1003
 1082YOPC   GL215474  11.656   0.731   5.837 -0.0035 -0.2943 -0.0361
 1082YOPC   C1A15475  12.087   0.822   6.132 -0.0560  0.1917  0.1111
 1082YOPC   D2A15476  11.981   0.718   6.554  0.1190  0.1802  0.1421
 1082YOPC   C3A15477  12.003   0.902   6.902  0.0173  0.0420  0.0587
 1082YOPC   C4A15478  11.778   0.995   7.248 -0.0019 -0.4129 -0.0295
 1082YOPC   C1B15479  11.728   0.433   6.175 -0.0310  0.0450  0.1770
 1082YOPC   C2B15480  11.936   0.005   6.200  0.1345  0.0820  0.4762
 1082YOPC   D3B15481  12.057  -0.279   6.543 -0.1990 -0.1224  0.1748
 1082YOPC   C4B15482  12.343  -0.113   6.923  0.1575  0.1079 -0.5259
 1083YOPC   NC315483   2.377  10.539   5.036  0.1210 -0.2398 -0.1270
 1083YOPC   PO415484   2.554  10.790   5.346  0.0519  0.2263  0.0419
 1083YOPC   GL115485   2.683  10.928   5.725  0.1223 -0.1137 -0.3567
 1083YOPC   GL215486   2.433  10.916   5.873  0.0966 -0.2958  0.0783
 1083YOPC   C1A15487   2.759  10.513   5.902 -0.2685  0.0074  0.0712
 1083YOPC   D2A15488   2.755  10.105   6.002 -0.1133  0.4659  0.1288
 1083YOPC   C3A15489   2.542   9.945   6.325  0.1475  0.0134  0.1089
 1083YOPC   C4A15490   2.674   9.730   6.779  0.0759 -0.3888 -0.2704
 1083YOPC   C1B15491   2.189  10.895   6.283  0.1145  0.3308 -0.2543
 1083YOPC   C2B15492   2.008  11.127   6.530  0.0903 -0.0090 -0.1363
 1083YOPC   D3B15493   1.886  11.160   6.888 -0.0279  0.4137 -0.0498
 1083YOPC   C4B15494   1.943  11.521   7.071  0.0399  0.1198 -0.0371
 1084YOPC   NC315495  10.913   1.250   5.754 -0.5246 -0.0276  0.0566
 1084YOPC   PO415496  11.219   0.946   5.727 -0.2377 -0.2185 -0.1994
 1084YOPC   GL115497  11.356   1.111   6.056 -0.0417 -0.4114 -0.0815
 1084YOPC   GL215498  11.638   1.031   6.216  0.2961  0.0856  0.0600
 1084YOPC   C1A15499  11.188   1.149   6.493 -0.1112  0.0986 -0.0612
 1084YOPC   D2A15500  11.438   1.139   6.897  0.2766 -0.1436 -0.0619
 1084YOPC   C3A15501  11.047   1.335   7.195 -0.3035  0.2636 -0.0910
 1084YOPC   C4A15502  10.848   1.266   7.563 -0.1435  0.2090  0.0641
 1084YOPC   C1B15503  11.712   1.393   6.493  0.1915  0.0190  0.0059
 1084YOPC   C2B15504  11.649   1.548   6.867  0.0332 -0.0457  0.0511
 1084YOPC   D3B15505  12.023   1.409   7.084 -0.1295 -0.1833  0.0108
 1084YOPC   C4B15506  12.239   1.299   7.512  0.0285  0.1398 -0.2561
 1085YOPC   NC315507   9.530   8.318   5.860  0.0360  0.1854 -0.0973
 1085YOPC   PO415508   9.819   8.669   5.877 -0.1141  0.1843  0.2490
 1085YOPC   GL115509   9.617   8.677   6.288  0.0935  0.1474 -0.0167
 1085YOPC   GL215510   9.837   8.944   6.454  0.1648  0.2992  0.0148
 1085YOPC   C1A15511   9.632   8.631   6.789  0.2848  0.1432 -0.1823
 1085YOPC   D2A15512   9.435   8.703   7.248 -0.3287 -0.0456  0.0175
 1085YOPC   C3A15513   9.736   8.488   7.483 -0.1744  0.2102 -0.0250
 1085YOPC   C4A15514   9.603   8.286   7.893  0.0917  0.2686  0.0166
 1085YOPC   C1B15515   9.713   9.122   6.853 -0.0764 -0.1170 -0.2016
 1085YOPC   C2B15516   9.540   9.227   7.285 -0.0670  0.1819 -0.0363
 1085YOPC   D3B15517   9.446   8.863   7.662 -0.2659 -0.0606 -0.2802
 1085YOPC   C4B15518   9.145   8.577   7.812 -0.2215  0.0537  0.2715
 1086YOPC   NC315519  11.974  12.034   5.716  0.1584 -0.0199 -0.0665
 1086YOPC   PO415520  11.567  12.040   5.607 -0.0932  0.3829  0.0719
 1086YOPC   GL115521  11.578  12.193   6.069 -0.0382  0.1370  0.2254
 1086YOPC   GL215522  11.608  12.458   6.137  0.0293  0.3220  0.0946
 1086YOPC   C1A15523  11.513  11.929   6.401 -0.2183  0.1807 -0.0498
 1086YOPC   D2A15524  11.527  11.980   6.851 -0.3648  0.0771 -0.0137
 1086YOPC   C3A15525  11.535  11.682   7.133  0.2184 -0.3598  0.0733
 1086YOPC   C4A15526  11.642  11.760   7.569 -0.3104 -0.2118 -0.5045
 1086YOPC   C1B15527  11.747  12.424   6.553 -0.1841  0.2804 -0.0081
 1086YOPC   C2B15528  11.969  12.238   6.960 -0.1618  0.1970 -0.1322
 1086YOPC   D3B15529  11.973  12.134   7.413  0.2591  0.0409  0.1653
 1086YOPC   C4B15530  12.017  12.218   7.860  0.5007  0.1548  0.0919
 1087YOPC   NC315531   5.055   8.979   5.521  0.0074 -0.0186  0.0330
 1087YOPC   PO415532   5.222   8.564   5.490 -0.1833  0.2489  0.1853
 1087YOPC   GL115533   5.413   8.540   5.830  0.0351  0.0175 -0.0043
 1087YOPC   GL215534   5.779   8.680   5.739  0.0309 -0.1394 -0.2290
 1087YOPC   C1A15535   5.374   8.697   6.298  0.1088  0.1153  0.2125
 1087YOPC   D2A15536   5.215   8.784   6.727  0.0749 -0.2729  0.3645
 1087YOPC   C3A15537   5.426   8.922   7.139 -0.3208 -0.0197 -0.2514
 1087YOPC   C4A15538   5.482   8.906   7.568  0.0402  0.0011  0.0009
 1087YOPC   C1B15539   5.802   8.945   6.052 -0.1276  0.1545 -0.1644
 1087YOPC   C2B15540   5.528   9.309   6.123  0.0363  0.1128 -0.1064
 1087YOPC   D3B15541   5.580   9.398   6.539 -0.3362 -0.0020 -0.2509
 1087YOPC   C4B15542   5.601   9.427   6.962 -0.0246  0.0771 -0.0812
 1088YOPC   NC315543  16.167  11.185   5.278 -0.0260  0.0474  0.1509
 1088YOPC   PO415544  15.797  11.098   5.490  0.1683  0.3199  0.1337
 1088YOPC   GL115545  15.689  11.474   5.725 -0.0125  0.2223 -0.2452
 1088YOPC   GL215546  15.482  11.689   5.647  0.1191  0.0917  0.1509
 1088YOPC   C1A15547  15.922  11.759   6.082 -0.1317  0.5062 -0.1929
 1088YOPC   D2A15548  15.873  12.042   6.475  0.0182  0.2212  0.1972
 1088YOPC   C3A15549  15.568  12.182   6.619 -0.0438  0.1224  0.0403
 1088YOPC   C4A15550  15.283  12.225   6.963 -0.3767 -0.1064  0.1770
 1088YOPC   C1B15551  15.392  11.654   6.041 -0.0561  0.1919 -0.4327
 1088YOPC   C2B15552  15.624  11.585   6.416  0.4492  0.0542  0.0542
 1088YOPC   D3B15553  16.030  11.493   6.476 -0.1654  0.0847  0.1636
 1088YOPC   C4B15554  16.357  11.631   6.282 -0.2990 -0.0271  0.1046
 1089YOPC   NC315555   6.972   3.295   6.070  0.0242  0.0308  0.4265
 1089YOPC   PO415556   7.031   2.861   5.865 -0.0150  0.0014  0.1589
 1089YOPC   GL115557   6.902   2.708   6.177  0.3101 -0.0590 -0.1930
 1089YOPC   GL215558   6.587   2.832   6.176  0.1452 -0.0455 -0.0877
 1089YOPC   C1A15559   6.838   2.688   6.630 -0.0704  0.1753 -0.2208
 1089YOPC   D2A15560   7.067   2.512   6.984 -0.2006  0.2497 -0.0064
 1089YOPC   C3A15561   7.252   2.658   7.320  0.0710  0.4228 -0.1887
 1089YOPC   C4A15562   7.308   2.526   7.725  0.2616 -0.0916  0.1299
 1089YOPC   C1B15563   6.450   2.968   6.538 -0.0047 -0.0642 -0.0149
 1089YOPC   C2B15564   6.541   3.070   6.871  0.0503 -0.2929 -0.0189
 1089YOPC   D3B15565   6.966   3.020   7.095 -0.1287 -0.0421 -0.3086
 1089YOPC   C4B15566   7.299   2.938   6.882  0.0193 -0.0224 -0.0444
 1090YOPC   NC315567   9.479  15.294   5.215  0.1597  0.1805  0.0053
 1090YOPC   PO415568   9.286  15.699   5.217  0.1085 -0.0906  0.2313
 1090YOPC   GL115569   9.350  15.495   5.713 -0.3150  0.1126  0.3140
 1090YOPC   GL215570   9.088  15.597   6.048  0.2011  0.3728 -0.2452
 1090YOPC   C1A15571   9.496  15.335   6.138  0.0085  0.1172  0.2232
 1090YOPC   D2A15572   9.753  15.185   6.481 -0.3369 -0.2353  0.0516
 1090YOPC   C3A15573   9.792  15.273   6.866  0.2208  0.2178  0.2311
 1090YOPC   C4A15574   9.898  15.436   7.236 -0.0713  0.1008 -0.1200
 1090YOPC   C1B15575   9.087  15.569   6.434  0.3477 -0.1804 -0.0583
 1090YOPC   C2B15576   9.191  15.333   6.768 -0.0081 -0.1399 -0.0769
 1090YOPC   D3B15577   9.452  14.855   6.868 -0.1791 -0.1968  0.1401
 1090YOPC   C4B15578   9.841  14.769   7.110 -0.3609  0.0420 -0.0373
 1091YOPC   NC315579  17.830  12.745   5.449 -0.3169 -0.2248 -0.0333
 1091YOPC   PO415580  17.670  13.150   5.217 -0.0312 -0.3043  0.1228
 1091YOPC   GL115581  17.764  13.274   5.732 -0.1813  0.1571  0.1131
 1091YOPC   GL215582  17.556  13.063   5.765  0.0530  0.1963  0.1992
 1091YOPC   C1A15583  17.565  13.258   6.186  0.2201 -0.0353 -0.1578
 1091YOPC   D2A15584  17.575  13.409   6.668 -0.4210  0.0359  0.1710
 1091YOPC   C3A15585  17.948  13.564   6.944 -0.0111  0.0717  0.4136
 1091YOPC   C4A15586  18.343  13.776   6.767 -0.0731 -0.2445  0.2456
 1091YOPC   C1B15587  17.142  12.950   6.086  0.1168 -0.0632 -0.0860
 1091YOPC   C2B15588  17.056  12.805   6.483  0.1170  0.0090 -0.0013
 1091YOPC   D3B15589  17.359  12.921   6.825 -0.0056 -0.1405  0.0058
 1091YOPC   C4B15590  17.325  12.954   7.316 -0.1945 -0.0804  0.0439
 1092YOPC   NC315591  13.508  18.495   5.412 -0.1946 -0.1250 -0.1143
 1092YOPC   PO415592  13.361  18.868   5.340 -0.2782 -0.0683  0.2904
 1092YOPC   GL115593  13.283  18.720   5.778  0.0163  0.0851 -0.4560
 1092YOPC   GL215594  13.001  18.759   5.932 -0.0760 -0.1372  0.0252
 1092YOPC   C1A15595  13.612  18.687   6.195 -0.0413 -0.3424 -0.1287
 1092YOPC   D2A15596  13.854  18.411   6.459 -0.2236  0.0449  0.1510
 1092YOPC   C3A15597  14.169  18.620   6.713 -0.0281 -0.1934 -0.1344
 1092YOPC   C4A15598  13.957  19.014   6.938 -0.2821 -0.2917 -0.0770
 1092YOPC   C1B15599  13.069  18.897   6.277  0.2310 -0.3193  0.0577
 1092YOPC   C2B15600  13.228  19.146   6.635  0.2208 -0.4549  0.0920
 1092YOPC   D3B15601  13.573  18.933   6.651  0.3241  0.5023  0.4686
 1092YOPC   C4B15602  13.667  18.606   6.895 -0.0741  0.0028  0.1416
 1093YOPC   NC315603  13.238   8.566   5.633  0.0608 -0.0158 -0.0690
 1093YOPC   PO415604  13.140   8.922   5.767 -0.0255  0.1251  0.0177
 1093YOPC   GL115605  13.183   9.175   6.159 -0.2515  0.0378 -0.2333
 1093YOPC   GL215606  13.322   8.872   6.314 -0.2093 -0.1678  0.0613
 1093YOPC   C1A15607  13.102   9.444   6.442  0.3392  0.0537  0.1543
 1093YOPC   D2A15608  12.820   9.344   6.728 -0.1100 -0.1256 -0.2801
 1093YOPC   C3A15609  12.468   9.458   6.640 -0.1273 -0.0377  0.1008
 1093YOPC   C4A15610  12.264   9.797   6.746 -0.0357 -0.1936  0.1254
 1093YOPC   C1B15611  13.375   8.650   6.710 -0.2183 -0.1957 -0.0557
 1093YOPC   C2B15612  13.722   8.384   6.893 -0.0770 -0.2971  0.1315
 1093YOPC   D3B15613  13.618   8.524   7.240  0.0413  0.1485  0.3151
 1093YOPC   C4B15614  13.515   8.787   7.575 -0.0135 -0.0224 -0.0012
 1094YOPC   NC315615   6.346  10.262   5.198  0.2660 -0.1924 -0.2780
 1094YOPC   PO415616   6.279  10.662   5.552  0.1006 -0.0236  0.4057
 1094YOPC   GL115617   6.259  10.414   6.034 -0.2034  0.1143  0.3846
 1094YOPC   GL215618   6.548  10.538   6.240  0.1132 -0.0298  0.1828
 1094YOPC   C1A15619   5.999  10.487   6.368 -0.0800 -0.3054  0.1746
 1094YOPC   D2A15620   5.971  10.316   6.799 -0.0011 -0.0031  0.1863
 1094YOPC   C3A15621   5.934  10.572   7.127 -0.2910 -0.0176  0.0697
 1094YOPC   C4A15622   6.268  10.719   7.294  0.0822  0.2462  0.3792
 1094YOPC   C1B15623   6.792  10.754   6.510 -0.0332  0.2415 -0.3116
 1094YOPC   C2B15624   7.040  11.022   6.597 -0.1927 -0.1051  0.1878
 1094YOPC   D3B15625   7.066  11.451   6.788  0.0988 -0.5338 -0.1745
 1094YOPC   C4B15626   7.298  11.854   6.805 -0.1697  0.2102  0.2652
 1095YOPC   NC315627   8.986  12.109   5.543 -0.0811  0.1701 -0.1252
 1095YOPC   PO415628   9.068  12.503   5.508  0.2755 -0.0276 -0.3713
 1095YOPC   GL115629   9.046  12.432   6.021  0.0913  0.3827  0.1171
 1095YOPC   GL215630   9.287  12.295   6.242 -0.1761  0.3171 -0.1510
 1095YOPC   C1A15631   8.804  12.538   6.345 -0.0528  0.0234  0.2290
 1095YOPC   D2A15632   8.753  12.814   6.621 -0.1523 -0.2889 -0.0809
 1095YOPC   C3A15633   8.988  12.734   6.985 -0.0067  0.2622  0.1040
 1095YOPC   C4A15634   9.104  12.520   7.329 -0.0352 -0.1890  0.2067
 1095YOPC   C1B15635   9.279  12.417   6.699  0.2350  0.0697  0.5049
 1095YOPC   C2B15636   9.594  12.573   7.108 -0.2002 -0.2408  0.3693
 1095YOPC   D3B15637   9.572  12.534   7.597 -0.0918  0.2442 -0.3773
 1095YOPC   C4B15638   9.682  12.722   7.916 -0.4091 -0.1707  0.3516
 1096YOPC   NC315639   8.645   6.672   5.721 -0.2054  0.4441  0.2404
 1096YOPC   PO415640   8.328   6.397   5.822 -0.0315 -0.0070  0.1273
 1096YOPC   GL115641   8.445   6.783   6.163 -0.3206 -0.0710  0.0780
 1096YOPC   GL215642   8.199   6.725   6.427  0.1611  0.0779  0.2192
 1096YOPC   C1A15643   8.528   7.073   6.572 -0.1179  0.2239 -0.1814
 1096YOPC   D2A15644   8.628   7.011   6.926  0.2510  0.0257  0.3227
 1096YOPC   C3A15645   8.417   6.755   7.169  0.2136  0.1971 -0.2230
 1096YOPC   C4A15646   8.154   6.533   7.492  0.1631  0.3158  0.2815
 1096YOPC   C1B15647   8.067   7.066   6.779  0.1558 -0.0326 -0.1771
 1096YOPC   C2B15648   8.269   7.239   7.147 -0.0178  0.1322 -0.3810
 1096YOPC   D3B15649   7.955   7.397   7.399 -0.1140 -0.1360  0.4433
 1096YOPC   C4B15650   7.604   7.259   7.378  0.2164 -0.2084 -0.0552
 1097YOPC   NC315651   0.054   9.820   5.066 -0.0389 -0.0057 -0.2515
 1097YOPC   PO415652   0.414   9.835   5.345 -0.1081  0.0817  0.3658
 1097YOPC   GL115653   0.705   9.773   5.642 -0.2266 -0.0874 -0.1606
 1097YOPC   GL215654   0.890  10.023   5.689  0.2061 -0.2051 -0.0702
 1097YOPC   C1A15655   0.705   9.653   6.077  0.1471  0.0570  0.3674
 1097YOPC   D2A15656   0.391   9.356   6.305 -0.2049 -0.0613  0.1088
 1097YOPC   C3A15657   0.047   9.529   6.625  0.1848 -0.2705 -0.1310
 1097YOPC   C4A15658   0.308   9.684   6.921 -0.0902 -0.2598  0.2882
 1097YOPC   C1B15659   1.159   9.857   5.891 -0.1588 -0.2165  0.1406
 1097YOPC   C2B15660   1.388  10.079   6.148  0.0100  0.2188 -0.1648
 1097YOPC   D3B15661   1.052   9.925   6.492 -0.0669 -0.2441 -0.0284
 1097YOPC   C4B15662   0.688  10.003   6.805 -0.0763 -0.2800 -0.2742
 1098YOPC   NC315663   9.433   0.549   5.435  0.0858  0.0067 -0.2611
 1098YOPC   PO415664   9.431   0.981   5.480  0.2076  0.1344  0.3962
 1098YOPC   GL115665   9.533   0.982   5.903  0.0582 -0.3279  0.2082
 1098YOPC   GL215666   9.608   1.334   5.922  0.0035  0.0434 -0.1864
 1098YOPC   C1A15667   9.387   0.993   6.311 -0.1923  0.1956  0.0230
 1098YOPC   D2A15668   9.509   0.739   6.689  0.0746  0.1201  0.0357
 1098YOPC   C3A15669   9.390   0.680   7.145 -0.4079 -0.1507  0.3011
 1098YOPC   C4A15670   9.230   0.669   7.514  0.0710  0.0383 -0.4387
 1098YOPC   C1B15671   9.666   1.408   6.384  0.1161 -0.0012 -0.1226
 1098YOPC   C2B15672   9.702   1.211   6.773 -0.3613  0.0568  0.3830
 1098YOPC   D3B15673   9.716   1.121   7.214 -0.3315  0.0251 -0.2300
 1098YOPC   C4B15674   9.741   0.756   7.469 -0.2009  0.2102  0.1030
 1099YOPC   NC315675  14.972  14.336   5.269 -0.0870  0.0955 -0.2010
 1099YOPC   PO415676  14.545  14.547   5.304 -0.2819 -0.1178  0.0335
 1099YOPC   GL115677  14.554  14.695   5.671  0.1093  0.1623 -0.0467
 1099YOPC   GL215678  14.301  14.822   5.770 -0.1833  0.0694  0.0973
 1099YOPC   C1A15679  14.703  14.665   6.099 -0.4714  0.0673 -0.2610
 1099YOPC   D2A15680  14.717  14.918   6.464 -0.1183  0.0765  0.1165
 1099YOPC   C3A15681  14.752  14.845   6.872  0.1591  0.0122  0.3100
 1099YOPC   C4A15682  14.445  15.126   7.117 -0.0188 -0.3073  0.1354
 1099YOPC   C1B15683  14.696  15.140   5.777  0.2949 -0.1053 -0.0004
 1099YOPC   C2B15684  14.734  15.354   6.215 -0.5094 -0.1470  0.1214
 1099YOPC   D3B15685  14.726  15.764   6.272  0.0736 -0.1122  0.1101
 1099YOPC   C4B15686  14.438  15.994   6.451  0.2267 -0.0033  0.0700
 1100YOPC   NC315687  12.894  16.427   4.971  0.0235 -0.0956  0.1208
 1100YOPC   PO415688  12.556  16.311   5.192  0.2897  0.2596 -0.0887
 1100YOPC   GL115689  12.575  16.358   5.608 -0.2487  0.0208 -0.2615
 1100YOPC   GL215690  12.754  16.117   5.777  0.3215  0.2333 -0.0808
 1100YOPC   C1A15691  12.711  16.546   5.945 -0.0178  0.0229  0.2406
 1100YOPC   D2A15692  12.901  16.532   6.254  0.0325 -0.2435  0.0704
 1100YOPC   C3A15693  13.030  16.315   6.636  0.0519 -0.4357 -0.0869
 1100YOPC   C4A15694  12.986  16.061   7.068  0.5661 -0.1211 -0.0501
 1100YOPC   C1B15695  13.105  16.278   5.824 -0.0572 -0.0418 -0.1275
 1100YOPC   C2B15696  13.258  16.622   5.911 -0.2026 -0.4703 -0.2451
 1100YOPC   D3B15697  13.460  16.775   6.331  0.1805  0.1756 -0.1839
 1100YOPC   C4B15698  13.518  16.760   6.714 -0.2701 -0.1314 -0.0049
 1101YOPC   NC315699   0.656   1.817   5.377  0.0218  0.1936 -0.1001
 1101YOPC   PO415700   0.228   2.005   5.557 -0.0375 -0.0687 -0.2520
 1101YOPC   GL115701  -0.132   1.719   5.686 -0.3702  0.0186 -0.2661
 1101YOPC   GL215702  -0.344   1.456   5.537  0.0298  0.6054 -0.1482
 1101YOPC   C1A15703  -0.291   1.696   6.106  0.3388  0.0153  0.0507
 1101YOPC   D2A15704  -0.511   1.857   6.398  0.1613  0.0673  0.0155
 1101YOPC   C3A15705  -0.716   1.763   6.665 -0.1085  0.0919 -0.0708
 1101YOPC   C4A15706  -0.794   1.763   7.189  0.1003  0.0677  0.4228
 1101YOPC   C1B15707  -0.192   1.025   5.641  0.0196 -0.1535 -0.1192
 1101YOPC   C2B15708   0.058   0.749   5.786  0.0385 -0.0336 -0.0015
 1101YOPC   D3B15709   0.015   0.686   6.165 -0.1962 -0.1366 -0.3819
 1101YOPC   C4B15710   0.270   0.476   6.454 -0.0440  0.3172 -0.2565
 1102YOPC   NC315711   7.865  12.355   5.613 -0.1354 -0.1115  0.4234
 1102YOPC   PO415712   7.496  12.309   5.635  0.0586 -0.0840 -0.0100
 1102YOPC   GL115713   7.544  12.406   6.065 -0.0955 -0.2619 -0.0625
 1102YOPC   GL215714   7.830  12.479   6.237  0.1743  0.2417  0.2229
 1102YOPC   C1A15715   7.447  12.172   6.401  0.0927 -0.2589 -0.0898
 1102YOPC   D2A15716   7.496  12.371   6.792  0.3432 -0.0062  0.0325
 1102YOPC   C3A15717   7.321  12.528   7.272 -0.0958 -0.1621  0.0009
 1102YOPC   C4A15718   7.086  12.722   7.524  0.1205 -0.0340  0.1565
 1102YOPC   C1B15719   7.866  12.618   6.619 -0.0749 -0.2214 -0.2431
 1102YOPC   C2B15720   7.877  12.675   6.978 -0.0259 -0.2170  0.0277
 1102YOPC   D3B15721   8.079  13.027   7.322  0.2320 -0.4108 -0.1178
 1102YOPC   C4B15722   8.125  13.244   7.671  0.1513  0.0924 -0.0351
 1103YOPC   NC315723  15.887   1.667   4.948 -0.3596  0.0134 -0.0730
 1103YOPC   PO415724  15.717   2.053   5.057  0.1253  0.2214 -0.1986
 1103YOPC   GL115725  15.740   1.937   5.508  0.0161 -0.2931  0.3654
 1103YOPC   GL215726  16.053   1.924   5.432 -0.3558 -0.0128  0.2546
 1103YOPC   C1A15727  15.697   1.912   5.864 -0.1118 -0.1046  0.0842
 1103YOPC   D2A15728  15.844   1.880   6.428 -0.0801 -0.0496  0.1650
 1103YOPC   C3A15729  15.953   1.923   6.854 -0.0924 -0.1162 -0.3632
 1103YOPC   C4A15730  16.005   2.048   7.276  0.0698  0.0120 -0.4398
 1103YOPC   C1B15731  16.213   1.855   5.906 -0.0879  0.2013  0.2474
 1103YOPC   C2B15732  16.290   2.073   6.262  0.0779 -0.0717 -0.1994
 1103YOPC   D3B15733  16.467   2.058   6.677  0.1491 -0.0123 -0.0921
 1103YOPC   C4B15734  16.497   1.977   7.031  0.1999 -0.2996  0.0238
 1104YOPC   NC315735   6.744   8.103   5.791 -0.0605  0.1565 -0.0515
 1104YOPC   PO415736   7.172   7.951   5.896 -0.2279 -0.2443 -0.1661
 1104YOPC   GL115737   7.172   7.867   6.401  0.0044 -0.0478 -0.2406
 1104YOPC   GL215738   6.879   7.711   6.201  0.0403  0.1137 -0.1891
 1104YOPC   C1A15739   7.528   7.755   6.607 -0.2423 -0.1731 -0.1055
 1104YOPC   D2A15740   7.645   7.412   6.913  0.1458  0.2914 -0.1571
 1104YOPC   C3A15741   7.147   7.323   7.138 -0.2287  0.0985 -0.0145
 1104YOPC   C4A15742   6.814   7.335   7.596 -0.1873 -0.2270  0.0052
 1104YOPC   C1B15743   6.662   7.871   6.523  0.3441 -0.2348  0.0734
 1104YOPC   C2B15744   6.657   7.871   6.949 -0.0549 -0.2431 -0.0545
 1104YOPC   D3B15745   6.870   7.779   7.299 -0.1291 -0.0661 -0.1202
 1104YOPC   C4B15746   6.977   8.090   7.589  0.0271  0.1238  0.3142
 1105YOPC   NC315747   1.114   8.448   5.212 -0.1503  0.0530  0.1928
 1105YOPC   PO415748   1.326   8.338   5.542 -0.0093 -0.1213 -0.0150
 1105YOPC   GL115749   1.181   8.388   5.895 -0.0177  0.1929 -0.1632
 1105YOPC   GL215750   1.280   8.112   6.035 -0.2989  0.0246 -0.3005
 1105YOPC   C1A15751   0.824   8.684   5.909  0.2557 -0.3634  0.1399
 1105YOPC   D2A15752   0.793   9.163   5.939  0.2966  0.0693 -0.0441
 1105YOPC   C3A15753   1.174   9.385   6.115 -0.2506 -0.1373  0.1808
 1105YOPC   C4A15754   1.234   9.379   6.527  0.0300 -0.2481 -0.1228
 1105YOPC   C1B15755   1.026   8.312   6.316 -0.0749 -0.0877 -0.1353
 1105YOPC   C2B15756   0.647   8.149   6.597  0.0439 -0.2449  0.0683
 1105YOPC   D3B15757   0.628   8.319   7.058 -0.2856 -0.0046 -0.0676
 1105YOPC   C4B15758   0.816   8.684   7.254  0.0853  0.0738 -0.2125
 1106YOPC   NC315759   0.272   5.422   5.401 -0.2210  0.1946 -0.0935
 1106YOPC   PO415760   0.079   5.769   5.208  0.1331  0.4482 -0.0438
 1106YOPC   GL115761  -0.211   5.894   5.598 -0.0418  0.1737 -0.1916
 1106YOPC   GL215762  -0.110   5.606   5.639 -0.0333  0.1995 -0.0802
 1106YOPC   C1A15763  -0.256   5.942   6.055  0.1633 -0.0539 -0.3069
 1106YOPC   D2A15764  -0.580   5.841   6.376  0.0915  0.3575  0.1323
 1106YOPC   C3A15765  -0.304   5.825   6.706  0.0135  0.2729  0.0630
 1106YOPC   C4A15766  -0.305   5.628   7.095 -0.1629  0.1107  0.0054
 1106YOPC   C1B15767  -0.164   5.407   6.027 -0.1696  0.1130  0.2018
 1106YOPC   C2B15768   0.014   5.177   6.337 -0.2907 -0.0459 -0.1880
 1106YOPC   D3B15769   0.050   5.222   6.709  0.0991  0.0601  0.1484
 1106YOPC   C4B15770  -0.016   5.287   7.134  0.2555  0.2563 -0.1605
 1107YOPC   NC315771   9.195   2.982   5.861 -0.0878 -0.1301  0.1426
 1107YOPC   PO415772   9.234   3.499   5.959  0.0155 -0.0648  0.1498
 1107YOPC   GL115773   9.344   3.212   6.343  0.0750  0.1095 -0.1868
 1107YOPC   GL215774   9.192   2.859   6.403 -0.1392 -0.2240  0.0826
 1107YOPC   C1A15775   9.602   2.954   6.621 -0.0558 -0.2482  0.2469
 1107YOPC   D2A15776   9.806   2.733   6.981 -0.0759 -0.1548 -0.1732
 1107YOPC   C3A15777   9.679   2.412   7.385  0.0541  0.0349  0.0261
 1107YOPC   C4A15778   9.792   2.253   7.827  0.1639  0.1827  0.2527
 1107YOPC   C1B15779   8.819   2.597   6.499 -0.0277  0.1654  0.4233
 1107YOPC   C2B15780   8.615   2.125   6.382 -0.0580  0.0165  0.3114
 1107YOPC   D3B15781   8.766   1.767   6.703 -0.0725  0.0521 -0.0139
 1107YOPC   C4B15782   8.836   1.735   7.116 -0.1289  0.0870  0.0181
 1108YOPC   NC315783  17.200   3.546   4.932 -0.0596  0.1351 -0.2704
 1108YOPC   PO415784  16.916   3.910   5.034  0.0366 -0.0004  0.0559
 1108YOPC   GL115785  17.088   3.945   5.422  0.0336  0.0358  0.0936
 1108YOPC   GL215786  17.228   4.226   5.675  0.2348  0.1938  0.2507
 1108YOPC   C1A15787  17.173   3.786   5.873  0.2550  0.0154  0.2494
 1108YOPC   D2A15788  17.158   3.771   6.279  0.1180 -0.0410  0.0470
 1108YOPC   C3A15789  16.848   3.871   6.676  0.0021 -0.0248 -0.1085
 1108YOPC   C4A15790  16.822   3.885   7.102  0.1068  0.1639 -0.6623
 1108YOPC   C1B15791  16.980   4.199   6.008  0.1790 -0.0411  0.0830
 1108YOPC   C2B15792  17.001   4.316   6.462 -0.0193  0.2757  0.1561
 1108YOPC   D3B15793  16.717   4.295   6.859 -0.2303 -0.2125 -0.0660
 1108YOPC   C4B15794  16.409   4.225   7.165  0.1039 -0.0296 -0.3968
 1109YOPC   NC315795  17.041  14.456   5.345 -0.0909  0.0316  0.2569
 1109YOPC   PO415796  16.658  14.607   5.182  0.0635 -0.0584 -0.1203
 1109YOPC   GL115797  16.581  14.458   5.597 -0.1508 -0.1219  0.0102
 1109YOPC   GL215798  16.588  14.712   5.721 -0.0906  0.1463  0.2489
 1109YOPC   C1A15799  16.621  14.287   6.062  0.0442  0.1805  0.1375
 1109YOPC   D2A15800  16.555  14.318   6.597  0.1739 -0.0200 -0.0447
 1109YOPC   C3A15801  16.514  14.134   7.014 -0.1805  0.1529  0.0266
 1109YOPC   C4A15802  16.262  13.811   7.262  0.0974 -0.0497 -0.2287
 1109YOPC   C1B15803  16.785  14.737   6.057  0.0006  0.0037 -0.1818
 1109YOPC   C2B15804  16.719  14.757   6.458  0.2027  0.2078 -0.0689
 1109YOPC   D3B15805  16.904  14.696   6.849 -0.0477 -0.0625 -0.0060
 1109YOPC   C4B15806  17.022  14.623   7.238 -0.4285 -0.0612  0.2452
 1110YOPC   NC315807   7.528   5.971   5.729  0.1212 -0.1496 -0.1132
 1110YOPC   PO415808   7.452   5.847   6.207  0.0316  0.2733 -0.1135
 1110YOPC   GL115809   7.542   6.162   6.592 -0.1538  0.1700  0.0151
 1110YOPC   GL215810   7.923   6.275   6.591  0.0069 -0.2206 -0.1057
 1110YOPC   C1A15811   7.523   6.310   7.031  0.1111 -0.0514 -0.1936
 1110YOPC   D2A15812   7.567   6.534   7.437  0.2568 -0.2829  0.2136
 1110YOPC   C3A15813   7.290   6.835   7.391 -0.2654 -0.0462  0.1927
 1110YOPC   C4A15814   6.932   6.880   7.269 -0.0047 -0.0235 -0.1272
 1110YOPC   C1B15815   8.007   6.506   6.961  0.5074  0.0932 -0.1182
 1110YOPC   C2B15816   7.866   6.888   7.283 -0.2762  0.0803  0.2586
 1110YOPC   D3B15817   7.922   6.845   7.720  0.0408  0.0132  0.0968
 1110YOPC   C4B15818   8.045   6.699   8.124 -0.1457 -0.3578  0.0753
 1111YOPC   NC315819  17.803   5.507   5.024 -0.0545  0.0420 -0.2027
 1111YOPC   PO415820  18.054   5.317   5.049  0.0392 -0.1162 -0.1159
 1111YOPC   GL115821  17.888   5.371   5.496  0.3551 -0.1114  0.1735
 1111YOPC   GL215822  18.058   5.147   5.728 -0.1719  0.2133 -0.0966
 1111YOPC   C1A15823  17.630   5.426   5.895 -0.0456  0.0896 -0.1829
 1111YOPC   D2A15824  17.666   5.547   6.189 -0.0488 -0.0666 -0.2190
 1111YOPC   C3A15825  18.031   5.327   6.322 -0.0845 -0.0580  0.0292
 1111YOPC   C4A15826  18.425   5.346   6.527  0.0176 -0.1117  0.0820
 1111YOPC   C1B15827  18.234   5.581   5.887 -0.0180  0.2233  0.1104
 1111YOPC   C2B15828  18.160   5.995   5.889  0.0834 -0.0195  0.0762
 1111YOPC   D3B15829  17.974   6.159   6.105  0.2443 -0.0329  0.1527
 1111YOPC   C4B15830  17.780   6.550   6.170 -0.0956  0.1247 -0.0066
 1112YOPC   NC315831   7.969  10.825   5.913 -0.1887 -0.3122  0.2140
 1112YOPC   PO415832   7.570  10.830   5.760  0.1258 -0.0901  0.1620
 1112YOPC   GL115833   7.600  10.729   6.197 -0.0315 -0.1752 -0.0922
 1112YOPC   GL215834   7.556  10.975   6.395  0.0765  0.0035 -0.1627
 1112YOPC   C1A15835   7.872  10.582   6.581  0.2051  0.1538 -0.2037
 1112YOPC   D2A15836   7.928  10.689   7.041 -0.3992  0.2564  0.3247
 1112YOPC   C3A15837   7.656  10.865   7.413  0.0778  0.3387  0.2303
 1112YOPC   C4A15838   7.291  10.759   7.654  0.0177 -0.1057 -0.2852
 1112YOPC   C1B15839   7.533  10.961   6.861 -0.0834 -0.1538  0.1565
 1112YOPC   C2B15840   7.191  10.955   7.073  0.0660  0.2066 -0.4392
 1112YOPC   D3B15841   7.002  10.676   6.952  0.1696  0.0138 -0.1768
 1112YOPC   C4B15842   6.699  10.603   7.105  0.2432 -0.0012 -0.1605
 1113YOPC   NC315843  11.627  13.706   5.136  0.0484 -0.1400 -0.2264
 1113YOPC   PO415844  11.624  13.425   5.486  0.4301 -0.1151  0.0971
 1113YOPC   GL115845  11.612  13.485   6.024 -0.1004 -0.2655 -0.0053
 1113YOPC   GL215846  11.583  13.794   6.126  0.0256 -0.4219  0.1610
 1113YOPC   C1A15847  11.430  13.323   6.257  0.0307  0.1767 -0.0829
 1113YOPC   D2A15848  11.144  13.493   6.567 -0.4631 -0.1607 -0.0324
 1113YOPC   C3A15849  10.642  13.542   6.493 -0.2279 -0.1100  0.0048
 1113YOPC   C4A15850  10.358  13.819   6.239  0.1370  0.0256 -0.0953
 1113YOPC   C1B15851  11.524  13.855   6.502  0.0011 -0.0075 -0.1879
 1113YOPC   C2B15852  11.274  13.826   6.910  0.0021 -0.1022 -0.1679
 1113YOPC   D3B15853  11.418  13.939   7.383 -0.0997  0.0125 -0.0118
 1113YOPC   C4B15854  11.610  14.302   7.682 -0.1302  0.2442  0.3465
 1114YOPC   NC315855   4.345   1.245   5.610  0.0005  0.1960  0.0046
 1114YOPC   PO415856   4.136   1.665   5.600 -0.2022  0.1890 -0.1746
 1114YOPC   GL115857   4.051   1.456   5.993  0.1985 -0.2456 -0.1662
 1114YOPC   GL215858   3.704   1.255   6.143 -0.0747  0.0120  0.1344
 1114YOPC   C1A15859   4.218   1.621   6.305 -0.0028 -0.3571 -0.0016
 1114YOPC   D2A15860   4.594   1.735   6.388 -0.1363 -0.0214  0.1021
 1114YOPC   C3A15861   4.729   1.762   6.803  0.1802 -0.1723 -0.0366
 1114YOPC   C4A15862   4.421   1.560   7.109 -0.0120 -0.2563  0.0142
 1114YOPC   C1B15863   3.679   1.346   6.626  0.1355  0.2624  0.3036
 1114YOPC   C2B15864   3.913   1.575   6.882 -0.3026  0.0657  0.0670
 1114YOPC   D3B15865   4.227   1.820   6.722 -0.0759  0.1027  0.0941
 1114YOPC   C4B15866   4.392   2.186   6.489 -0.4882  0.3272  0.0474
 1115YOPC   NC315867   8.808   7.838   6.117  0.0931  0.1032 -0.0000
 1115YOPC   PO415868   8.843   8.138   5.889 -0.1707  0.0243  0.1430
 1115YOPC   GL115869   9.186   8.105   6.230  0.1875 -0.0063 -0.1898
 1115YOPC   GL215870   9.334   7.861   6.333 -0.3244 -0.0386  0.0409
 1115YOPC   C1A15871   9.025   8.341   6.531  0.2454 -0.0461  0.0684
 1115YOPC   D2A15872   8.962   8.550   6.890  0.3941  0.1914 -0.3001
 1115YOPC   C3A15873   9.030   8.398   7.228 -0.1570  0.0515  0.1029
 1115YOPC   C4A15874   8.764   8.005   7.389 -0.3542  0.3642  0.0542
 1115YOPC   C1B15875   9.175   7.803   6.703  0.1367  0.2695  0.1195
 1115YOPC   C2B15876   8.762   8.039   6.917  0.1503 -0.0021  0.0943
 1115YOPC   D3B15877   8.362   8.059   6.881  0.1240 -0.0697  0.2569
 1115YOPC   C4B15878   8.033   8.110   6.570 -0.3359  0.0915  0.0430
 1116YOPC   NC315879  16.822  15.728   4.924 -0.4226 -0.0798 -0.0014
 1116YOPC   PO415880  17.236  15.467   4.983  0.1151 -0.2264  0.2567
 1116YOPC   GL115881  17.252  15.472   5.449  0.2446  0.0154 -0.0842
 1116YOPC   GL215882  17.501  15.289   5.623  0.6244  0.1280 -0.2612
 1116YOPC   C1A15883  17.208  15.661   5.856 -0.4007  0.2609  0.3374
 1116YOPC   D2A15884  17.237  16.142   6.087 -0.1488  0.2268  0.1005
 1116YOPC   C3A15885  17.218  16.459   6.209  0.2174 -0.1594 -0.0307
 1116YOPC   C4A15886  17.356  16.766   6.445 -0.0459 -0.1960  0.3072
 1116YOPC   C1B15887  17.660  15.063   6.042 -0.2530  0.0873 -0.1158
 1116YOPC   C2B15888  17.603  15.116   6.556  0.1532 -0.0058  0.1256
 1116YOPC   D3B15889  17.452  14.855   6.796 -0.2191  0.1643  0.2192
 1116YOPC   C4B15890  17.344  14.386   6.774 -0.1802  0.0151 -0.2010
 1117YOPC   NC315891   9.467  17.931   5.523  0.0775 -0.3751 -0.1301
 1117YOPC   PO415892   9.237  17.609   5.698  0.0210  0.2110 -0.0401
 1117YOPC   GL115893   8.948  17.682   6.096  0.0147 -0.0694 -0.0560
 1117YOPC   GL215894   8.713  17.462   6.226 -0.2309 -0.0359 -0.4688
 1117YOPC   C1A15895   8.914  18.041   6.470  0.1204 -0.3335  0.2520
 1117YOPC   D2A15896   8.900  18.193   6.923 -0.0512 -0.1350  0.0266
 1117YOPC   C3A15897   8.597  18.010   7.080 -0.1585  0.1662 -0.4063
 1117YOPC   C4A15898   8.167  18.072   7.080  0.1325 -0.3311  0.0868
 1117YOPC   C1B15899   8.840  17.639   6.769 -0.0773  0.1985  0.0316
 1117YOPC   C2B15900   9.208  17.706   6.997 -0.1918  0.3072 -0.4836
 1117YOPC   D3B15901   9.444  18.053   7.036 -0.1026 -0.2353 -0.2594
 1117YOPC   C4B15902   9.595  18.188   7.478 -0.0672  0.0421  0.1381
 1118YOPC   NC315903   4.922  18.400   5.375  0.2694 -0.0772 -0.0795
 1118YOPC   PO415904   5.037  18.806   5.614 -0.5439  0.1439 -0.0312
 1118YOPC   GL115905   4.813  18.982   5.987 -0.1300  0.1885  0.2437
 1118YOPC   GL215906   4.472  19.065   5.849 -0.3862 -0.1048  0.1853
 1118YOPC   C1A15907   4.919  19.143   6.399  0.1883 -0.3181  0.0717
 1118YOPC   D2A15908   4.765  19.126   6.809 -0.2101  0.4837 -0.0660
 1118YOPC   C3A15909   4.810  18.981   7.182 -0.2533 -0.0459  0.1049
 1118YOPC   C4A15910   4.997  18.844   7.570 -0.2350  0.0183  0.1322
 1118YOPC   C1B15911   4.412  18.974   6.258 -0.0189 -0.0212 -0.0081
 1118YOPC   C2B15912   4.123  19.111   6.664  0.2625 -0.0773  0.0655
 1118YOPC   D3B15913   4.282  19.047   7.075  0.0863  0.2525 -0.1013
 1118YOPC   C4B15914   4.091  18.899   7.423 -0.0837  0.0340 -0.0714
 1119YOPC   NC315915  10.839  16.904   5.252  0.1916  0.2563 -0.1979
 1119YOPC   PO415916  10.811  16.598   5.513 -0.0892 -0.2840  0.2430
 1119YOPC   GL115917  10.773  16.646   5.990 -0.5747  0.0326 -0.0336
 1119YOPC   GL215918  11.040  16.580   6.201 -0.2485 -0.0046  0.0461
 1119YOPC   C1A15919  10.426  16.647   6.242  0.4478 -0.0491  0.2098
 1119YOPC   D2A15920  10.185  16.404   6.600  0.0945 -0.0110  0.0463
 1119YOPC   C3A15921  10.224  16.695   7.090  0.2227  0.0218 -0.0300
 1119YOPC   C4A15922  10.200  17.131   7.237 -0.1525 -0.2830  0.2359
 1119YOPC   C1B15923  11.398  16.297   6.109  0.1179  0.0096 -0.1313
 1119YOPC   C2B15924  11.735  16.109   6.146 -0.1373  0.0070  0.1296
 1119YOPC   D3B15925  11.977  16.191   6.487  0.5089  0.1472 -0.0354
 1119YOPC   C4B15926  12.132  16.298   6.953 -0.0967  0.1389 -0.1069
 1120YOPC   NC315927  12.227   2.406   5.369  0.0616  0.2152  0.5931
 1120YOPC   PO415928  12.496   2.768   5.204 -0.0173  0.0571 -0.3814
 1120YOPC   GL115929  12.731   2.657   5.644 -0.1990  0.1160  0.0622
 1120YOPC   GL215930  12.828   2.382   5.700 -0.0773 -0.3747  0.0924
 1120YOPC   C1A15931  12.527   2.557   6.030  0.1691 -0.2137 -0.1771
 1120YOPC   D2A15932  12.195   2.402   6.374 -0.1689 -0.3268  0.0959
 1120YOPC   C3A15933  12.359   2.366   6.858 -0.1509 -0.2268  0.1613
 1120YOPC   C4A15934  12.567   2.336   7.187  0.0248  0.1581 -0.1004
 1120YOPC   C1B15935  13.019   2.346   6.060 -0.4583 -0.1792 -0.1908
 1120YOPC   C2B15936  13.417   2.341   6.366  0.0451  0.1461  0.1349
 1120YOPC   D3B15937  13.443   2.297   6.755 -0.1699 -0.0966  0.0887
 1120YOPC   C4B15938  13.490   2.230   7.237 -0.0476 -0.0117  0.0402
 1121YOPC   NC315939   4.398   6.472   5.244  0.1483  0.3522 -0.1640
 1121YOPC   PO415940   4.124   6.625   5.393  0.1506  0.3352 -0.2632
 1121YOPC   GL115941   4.190   6.565   5.725 -0.1077 -0.0769  0.0598
 1121YOPC   GL215942   4.524   6.393   5.764  0.2412 -0.0329  0.0893
 1121YOPC   C1A15943   3.961   6.793   6.100  0.0092 -0.1078  0.0074
 1121YOPC   D2A15944   4.079   6.838   6.524 -0.2026  0.2296  0.1777
 1121YOPC   C3A15945   4.417   6.795   6.703 -0.2856  0.3061  0.2064
 1121YOPC   C4A15946   4.739   6.670   6.504  0.3242  0.0377 -0.0311
 1121YOPC   C1B15947   4.463   6.341   6.154 -0.1244 -0.3343 -0.1078
 1121YOPC   C2B15948   4.312   6.309   6.635 -0.2707  0.0388 -0.2289
 1121YOPC   D3B15949   4.177   5.937   6.813 -0.2515 -0.1736 -0.1871
 1121YOPC   C4B15950   3.888   5.731   7.089 -0.0331 -0.0207  0.2330
 1122YOPC   NC315951   1.300  18.660   5.233 -0.1569  0.0437  0.0691
 1122YOPC   PO415952   1.386  19.066   5.297  0.3397  0.1860 -0.1959
 1122YOPC   GL115953   1.400  19.193   5.771 -0.1677  0.2040  0.4527
 1122YOPC   GL215954   1.589  19.389   5.883 -0.0600 -0.3320 -0.0662
 1122YOPC   C1A15955   1.215  19.228   6.153  0.1766  0.2242  0.4217
 1122YOPC   D2A15956   0.976  19.519   6.467 -0.2270 -0.0073  0.0157
 1122YOPC   C3A15957   0.902  19.480   6.914 -0.0146  0.0399  0.0680
 1122YOPC   C4A15958   0.930  19.704   7.320  0.1207 -0.0968 -0.0908
 1122YOPC   C1B15959   1.808  19.296   6.297  0.0021  0.1457  0.2083
 1122YOPC   C2B15960   1.982  19.594   6.507  0.2067 -0.2286 -0.0572
 1122YOPC   D3B15961   1.868  19.639   6.867 -0.1872 -0.1460  0.8056
 1122YOPC   C4B15962   1.793  19.356   7.150  0.0003 -0.0761 -0.0128
 1123YOPC   NC315963   4.858  16.490   5.362  0.0239  0.1839 -0.1693
 1123YOPC   PO415964   4.936  16.079   5.590  0.1063  0.0374  0.1747
 1123YOPC   GL115965   4.701  16.168   6.026  0.1221 -0.0597  0.1643
 1123YOPC   GL215966   4.648  15.880   6.150 -0.1810 -0.0064 -0.2834
 1123YOPC   C1A15967   4.596  16.453   6.321 -0.0069 -0.0675  0.0901
 1123YOPC   D2A15968   4.697  16.547   6.723  0.0703 -0.1234  0.2620
 1123YOPC   C3A15969   4.303  16.477   6.787 -0.1064  0.0739  0.0293
 1123YOPC   C4A15970   4.033  16.328   6.450  0.1563 -0.2880 -0.1705
 1123YOPC   C1B15971   4.684  16.039   6.596  0.0534  0.2477 -0.0412
 1123YOPC   C2B15972   4.804  16.119   6.915 -0.2271 -0.0461  0.1724
 1123YOPC   D3B15973   4.759  15.937   7.362  0.1604 -0.2508  0.0240
 1123YOPC   C4B15974   4.492  15.744   7.798 -0.1531  0.2238 -0.0962
 1124YOPC   NC315975  17.237   4.364   5.177 -0.2254  0.0724 -0.1517
 1124YOPC   PO415976  17.615   4.012   5.264  0.0417  0.4348 -0.4001
 1124YOPC   GL115977  17.718   3.807   5.678 -0.2443  0.0830  0.2707
 1124YOPC   GL215978  17.883   3.599   5.714  0.0713  0.0177  0.0127
 1124YOPC   C1A15979  17.634   3.699   6.179  0.1452  0.2744 -0.2414
 1124YOPC   D2A15980  17.868   3.722   6.705 -0.1068 -0.3162 -0.0157
 1124YOPC   C3A15981  17.839   4.133   7.064 -0.1876  0.3255 -0.3289
 1124YOPC   C4A15982  18.017   4.445   6.860 -0.1416 -0.1086  0.0805
 1124YOPC   C1B15983  17.509   3.351   5.776  0.2180  0.2367  0.2314
 1124YOPC   C2B15984  17.430   2.958   5.595  0.0201  0.0172 -0.3621
 1124YOPC   D3B15985  17.248   2.756   5.804  0.1884 -0.0521  0.3341
 1124YOPC   C4B15986  17.158   2.739   6.157 -0.0617 -0.1212 -0.0174
 1125YOPC   NC315987   9.782  10.260   5.744  0.0772  0.0289  0.0894
 1125YOPC   PO415988   9.454  10.516   5.609 -0.0621 -0.2341 -0.3013
 1125YOPC   GL115989   9.656  10.592   6.102 -0.1854 -0.3816 -0.0815
 1125YOPC   GL215990   9.556  10.898   6.231  0.0016  0.3839 -0.0470
 1125YOPC   C1A15991   9.732  10.559   6.628  0.2569 -0.1430  0.1426
 1125YOPC   D2A15992   9.654  10.873   7.053  0.4165 -0.2077 -0.0962
 1125YOPC   C3A15993   9.528  10.752   7.445 -0.1395  0.1753  0.2076
 1125YOPC   C4A15994   9.290  10.886   7.787  0.2692 -0.1988  0.0899
 1125YOPC   C1B15995   9.649  11.117   6.587 -0.0804  0.0038 -0.0584
 1125YOPC   C2B15996   9.909  11.270   6.767  0.0524  0.2175 -0.2346
 1125YOPC   D3B15997   9.774  11.560   7.199 -0.1150  0.0712 -0.0625
 1125YOPC   C4B15998   9.702  11.871   7.604  0.1697  0.1054  0.2083
 1126YOPC   NC315999  18.097  18.513   5.262  0.2705  0.0220 -0.2609
 1126YOPC   PO416000  18.152  18.068   5.234  0.0203  0.0227 -0.2322
 1126YOPC   GL116001  17.884  18.188   5.612  0.0066  0.0423 -0.1473
 1126YOPC   GL216002  17.621  18.486   5.516 -0.1843 -0.0267  0.1775
 1126YOPC   C1A16003  17.494  18.167   5.927  0.1595  0.4105  0.1199
 1126YOPC   D2A16004  17.587  18.301   6.316 -0.1860  0.2699  0.0814
 1126YOPC   C3A16005  17.534  18.078   6.699  0.2884 -0.2829  0.0810
 1126YOPC   C4A16006  17.232  18.173   7.038 -0.1544 -0.1423 -0.2773
 1126YOPC   C1B16007  17.820  18.730   5.968  0.1286  0.0499 -0.0082
 1126YOPC   C2B16008  17.860  18.772   6.309  0.1834 -0.0126  0.0146
 1126YOPC   D3B16009  17.745  19.064   6.635  0.4013  0.3288 -0.2483
 1126YOPC   C4B16010  17.587  19.325   7.067  0.1282 -0.0617  0.0622
 1127YOPC   NC316011  12.929   7.542   5.423  0.1171  0.1239  0.3507
 1127YOPC   PO416012  13.229   7.422   5.632  0.1633  0.0161  0.1449
 1127YOPC   GL116013  13.178   7.360   6.009  0.3179 -0.4641  0.1596
 1127YOPC   GL216014  13.422   7.169   6.079  0.0321  0.0299  0.4686
 1127YOPC   C1A16015  12.825   7.444   6.235 -0.0584  0.0957  0.1715
 1127YOPC   D2A16016  12.566   7.234   6.515  0.0639  0.1020  0.0145
 1127YOPC   C3A16017  12.738   7.239   6.941 -0.2490 -0.0473  0.1790
 1127YOPC   C4A16018  13.081   7.126   7.236 -0.0224  0.1489 -0.0526
 1127YOPC   C1B16019  13.507   7.605   6.421 -0.0563  0.4807 -0.0844
 1127YOPC   C2B16020  13.137   7.858   6.579 -0.0101  0.0630  0.3254
 1127YOPC   D3B16021  13.201   8.109   6.852  0.1218 -0.1233  0.1380
 1127YOPC   C4B16022  13.163   8.440   7.156 -0.1861  0.1725  0.0761
 1128YOPC   NC316023   4.639   5.511   5.195  0.4663  0.0649  0.1031
 1128YOPC   PO416024   4.257   5.651   5.360  0.2921 -0.1279 -0.1283
 1128YOPC   GL116025   3.908   5.681   5.624  0.1299  0.0476 -0.2014
 1128YOPC   GL216026   4.087   5.384   5.840 -0.0617 -0.5241  0.0210
 1128YOPC   C1A16027   3.623   5.862   6.034 -0.0754 -0.1040  0.1105
 1128YOPC   D2A16028   3.420   5.881   6.441  0.0719  0.0316  0.2154
 1128YOPC   C3A16029   3.428   5.575   6.797  0.1243 -0.0621  0.3326
 1128YOPC   C4A16030   3.282   5.598   7.169  0.0357 -0.0796 -0.0610
 1128YOPC   C1B16031   3.719   5.393   6.119 -0.0555  0.0696  0.0619
 1128YOPC   C2B16032   3.301   5.454   6.240 -0.0521  0.0766  0.0544
 1128YOPC   D3B16033   3.370   5.076   6.482  0.1012 -0.0957  0.0056
 1128YOPC   C4B16034   3.502   4.751   6.856 -0.2518  0.0791 -0.1984
 1129YOPC   NC316035  15.039   7.436   5.738 -0.1786 -0.0168 -0.0090
 1129YOPC   PO416036  15.479   7.612   5.715  0.2206  0.3550  0.2093
 1129YOPC   GL116037  15.520   7.642   6.099 -0.0507  0.0796  0.0900
 1129YOPC   GL216038  15.403   7.900   6.247  0.1383  0.2723 -0.4460
 1129YOPC   C1A16039  15.895   7.708   6.279 -0.2088 -0.1255  0.2718
 1129YOPC   D2A16040  16.173   7.967   6.546 -0.1447 -0.0869 -0.0882
 1129YOPC   C3A16041  16.149   7.884   6.946  0.1740 -0.0407 -0.0458
 1129YOPC   C4A16042  16.139   8.034   7.419 -0.1633  0.2289  0.2172
 1129YOPC   C1B16043  15.708   8.196   6.385 -0.0301 -0.1513 -0.1731
 1129YOPC   C2B16044  16.085   8.488   6.518  0.3336 -0.2380  0.2448
 1129YOPC   D3B16045  16.270   8.391   6.900 -0.0689 -0.2195 -0.2620
 1129YOPC   C4B16046  16.538   8.077   7.114 -0.2237  0.1993 -0.2772
 1130YOPC   NC316047   5.021  15.004   5.707  0.1705 -0.1383 -0.3657
 1130YOPC   PO416048   5.326  15.377   5.858 -0.1889  0.1724  0.0139
 1130YOPC   GL116049   5.181  15.618   6.258  0.5018 -0.2589  0.1270
 1130YOPC   GL216050   5.472  15.931   6.341  0.5502  0.0337 -0.0469
 1130YOPC   C1A16051   5.050  15.653   6.652 -0.1647 -0.0625 -0.3493
 1130YOPC   D2A16052   4.775  15.592   6.974  0.2750  0.3694  0.1198
 1130YOPC   C3A16053   5.026  15.525   7.346 -0.0476  0.0019 -0.0825
 1130YOPC   C4A16054   5.089  15.836   7.760 -0.0352  0.0691 -0.0203
 1130YOPC   C1B16055   5.542  15.649   6.684 -0.3501 -0.5028  0.0113
 1130YOPC   C2B16056   5.306  15.338   7.008 -0.2056  0.4098  0.2967
 1130YOPC   D3B16057   5.026  14.999   7.148  0.1496 -0.0130  0.0795
 1130YOPC   C4B16058   4.561  15.081   7.105  0.1550  0.1415  0.1481
 1131YOPC   NC316059  15.386   9.865   4.900  0.3913 -0.1767 -0.2186
 1131YOPC   PO416060  15.841   9.803   5.043  0.0556 -0.0683  0.1882
 1131YOPC   GL116061  16.107   9.602   5.481  0.0787 -0.0421 -0.1542
 1131YOPC   GL216062  16.306   9.842   5.681  0.1598 -0.1345 -0.0967
 1131YOPC   C1A16063  16.070   9.405   5.863 -0.0126 -0.2393  0.3072
 1131YOPC   D2A16064  16.274   9.530   6.126  0.3132 -0.0419 -0.0773
 1131YOPC   C3A16065  15.992   9.415   6.505  0.1259 -0.1867  0.2025
 1131YOPC   C4A16066  16.021   9.403   6.957  0.3608 -0.0368  0.1954
 1131YOPC   C1B16067  15.844   9.892   5.987 -0.1355 -0.3941 -0.0686
 1131YOPC   C2B16068  15.372   9.744   5.827  0.0854 -0.0753 -0.2374
 1131YOPC   D3B16069  14.851   9.634   6.053  0.2049 -0.0043  0.1056
 1131YOPC   C4B16070  14.725   9.324   6.265  0.3144 -0.0132 -0.3611
 1132YOPC   NC316071  13.304  10.157   5.631 -0.1080  0.0410  0.1680
 1132YOPC   PO416072  13.783  10.110   5.499  0.1298  0.2626 -0.0440
 1132YOPC   GL116073  13.870  10.097   5.943  0.2078 -0.1485  0.0532
 1132YOPC   GL216074  14.100  10.274   6.027  0.1337 -0.4607  0.5210
 1132YOPC   C1A16075  13.949   9.928   6.369  0.1349 -0.2908  0.3140
 1132YOPC   D2A16076  13.913   9.822   6.723 -0.0977 -0.1944  0.1408
 1132YOPC   C3A16077  13.859   9.435   6.974 -0.1777  0.1193 -0.1101
 1132YOPC   C4A16078  13.844   9.091   7.262 -0.0104  0.0761 -0.0200
 1132YOPC   C1B16079  14.300  10.308   6.364 -0.1513 -0.1494 -0.1689
 1132YOPC   C2B16080  14.619  10.328   6.755  0.1907 -0.0543  0.4845
 1132YOPC   D3B16081  14.745   9.931   6.984  0.0218  0.2845  0.2517
 1132YOPC   C4B16082  15.124   9.701   7.085  0.1588  0.0783 -0.0600
 1133YOPC   NC316083  18.745  17.085   5.421  0.0105  0.1491 -0.1957
 1133YOPC   PO416084  18.309  16.793   5.373 -0.3005 -0.6219 -0.1526
 1133YOPC   GL116085  18.410  16.735   5.779 -0.0468  0.3012 -0.0181
 1133YOPC   GL216086  18.681  16.668   5.709 -0.1070  0.0356  0.2882
 1133YOPC   C1A16087  18.699  16.739   6.205  0.3109 -0.1920  0.2728
 1133YOPC   D2A16088  18.871  16.934   6.632 -0.0788  0.0756  0.0796
 1133YOPC   C3A16089  18.837  16.691   6.982 -0.1333 -0.0973 -0.1490
 1133YOPC   C4A16090  18.646  16.914   7.336 -0.1798 -0.0073  0.3463
 1133YOPC   C1B16091  18.503  16.318   6.001  0.0926 -0.1725  0.1816
 1133YOPC   C2B16092  18.275  16.254   6.254  0.1098  0.0807 -0.1848
 1133YOPC   D3B16093  18.539  16.312   6.650  0.0529  0.0848 -0.2659
 1133YOPC   C4B16094  18.564  16.139   7.035 -0.1492 -0.0601 -0.1899
 1134YOPC   NC316095  12.063   7.724   5.407  0.0372 -0.1104 -0.3158
 1134YOPC   PO416096  12.345   7.454   5.520  0.3241  0.0952 -0.3123
 1134YOPC   GL116097  12.346   7.293   5.975 -0.0309 -0.0922 -0.1703
 1134YOPC   GL216098  12.212   6.960   6.132 -0.0871  0.1899 -0.1249
 1134YOPC   C1A16099  12.344   7.619   6.219 -0.0879 -0.1283  0.0745
 1134YOPC   D2A16100  12.314   7.982   6.515 -0.0712  0.1154 -0.0483
 1134YOPC   C3A16101  12.321   7.967   7.032 -0.0920 -0.1284  0.2030
 1134YOPC   C4A16102  12.470   7.660   7.342  0.0228 -0.2019  0.2156
 1134YOPC   C1B16103  12.235   6.650   6.451  0.0022 -0.1533 -0.3738
 1134YOPC   C2B16104  12.399   6.669   6.892  0.4954  0.4597  0.1393
 1134YOPC   D3B16105  12.518   6.936   7.227 -0.0087  0.0436 -0.2174
 1134YOPC   C4B16106  12.674   7.262   7.523 -0.0464 -0.3102 -0.0175
 1135YOPC   NC316107   7.597   5.169   5.864  0.0603  0.1952  0.2562
 1135YOPC   PO416108   7.840   4.912   6.216 -0.2173  0.1163  0.0142
 1135YOPC   GL116109   7.612   5.073   6.556 -0.1556 -0.0645 -0.4598
 1135YOPC   GL216110   7.465   5.360   6.519 -0.1817  0.0405 -0.3463
 1135YOPC   C1A16111   7.425   4.980   6.873 -0.1430  0.0887 -0.0126
 1135YOPC   D2A16112   7.253   5.209   7.293 -0.0730  0.1438 -0.2056
 1135YOPC   C3A16113   7.009   5.519   7.153 -0.2488  0.0546 -0.0506
 1135YOPC   C4A16114   7.155   5.923   6.978 -0.4048  0.0695 -0.1213
 1135YOPC   C1B16115   7.450   5.495   6.909 -0.1598 -0.1597  0.1096
 1135YOPC   C2B16116   7.553   5.650   7.284  0.4990  0.0293  0.1922
 1135YOPC   D3B16117   7.688   5.831   7.652 -0.1448 -0.1193 -0.0505
 1135YOPC   C4B16118   7.748   5.811   8.092  0.0410  0.0987  0.2316
 1136YOPC   NC316119   1.640   9.143   5.273  0.2961  0.2856 -0.3664
 1136YOPC   PO416120   1.467   9.585   5.210 -0.1302  0.2699 -0.3176
 1136YOPC   GL116121   1.580   9.552   5.545 -0.1685 -0.0635 -0.1915
 1136YOPC   GL216122   1.701   9.202   5.725  0.3354  0.1351 -0.0637
 1136YOPC   C1A16123   1.627   9.632   6.016 -0.0065  0.2694 -0.0928
 1136YOPC   D2A16124   1.628   9.802   6.473 -0.1112  0.3254 -0.1804
 1136YOPC   C3A16125   1.482   9.822   6.891  0.2052  0.0801 -0.1178
 1136YOPC   C4A16126   1.404   9.842   7.343  0.0089 -0.4225 -0.1211
 1136YOPC   C1B16127   1.665   9.184   6.189 -0.3919 -0.1946 -0.0069
 1136YOPC   C2B16128   1.657   9.246   6.658 -0.1054 -0.3351 -0.3487
 1136YOPC   D3B16129   1.634   9.122   7.093  0.0356 -0.1779 -0.0933
 1136YOPC   C4B16130   1.724   8.920   7.464  0.1588  0.4171  0.2923
 1137YOPC   NC316131  10.135   0.083   5.138  0.1119  0.1246  0.2471
 1137YOPC   PO416132   9.983  -0.186   5.430 -0.2825 -0.0005 -0.1133
 1137YOPC   GL116133   9.992  -0.109   5.905  0.1538  0.0561  0.0226
 1137YOPC   GL216134  10.296  -0.034   6.054  0.1775 -0.4130 -0.2744
 1137YOPC   C1A16135  10.061  -0.430   6.247  0.1282 -0.0521  0.1079
 1137YOPC   D2A16136  10.283  -0.405   6.618  0.0215  0.0688 -0.2533
 1137YOPC   C3A16137  10.466  -0.197   6.968 -0.0427 -0.2079 -0.1086
 1137YOPC   C4A16138  10.753  -0.481   7.178  0.1243  0.1141  0.0275
 1137YOPC   C1B16139  10.538   0.015   6.472  0.1037  0.2891 -0.0285
 1137YOPC   C2B16140  10.634   0.427   6.608  0.0652 -0.1719  0.1139
 1137YOPC   D3B16141  10.984   0.615   6.430 -0.2598  0.0253  0.3813
 1137YOPC   C4B16142  11.498   0.688   6.542  0.2665  0.0875 -0.0493
 1138YOPC   NC316143  10.752  10.289   5.755 -0.0729 -0.0162  0.4607
 1138YOPC   PO416144  10.735  10.724   5.787  0.0592 -0.2411  0.1286
 1138YOPC   GL116145  10.539  10.598   6.080 -0.2802  0.1044 -0.1155
 1138YOPC   GL216146  10.138  10.490   6.238 -0.1319  0.4105  0.1374
 1138YOPC   C1A16147  10.642  10.523   6.458 -0.2505 -0.4052 -0.2550
 1138YOPC   D2A16148  10.741  10.417   6.864 -0.1024  0.2572 -0.3150
 1138YOPC   C3A16149  10.493  10.158   7.132 -0.0847  0.1173  0.0028
 1138YOPC   C4A16150  10.184   9.933   7.403  0.1201  0.0395 -0.1050
 1138YOPC   C1B16151  10.274  10.321   6.645 -0.0621 -0.1470 -0.1309
 1138YOPC   C2B16152   9.994  10.138   6.893  0.0694 -0.0555 -0.0754
 1138YOPC   D3B16153   9.750   9.845   7.087 -0.6519  0.1722  0.0600
 1138YOPC   C4B16154   9.771   9.691   7.489 -0.2053  0.0603 -0.1364
 1139YOPC   NC316155   1.606   6.639   5.167 -0.2345 -0.2040 -0.1836
 1139YOPC   PO416156   1.669   6.860   5.615  0.2306 -0.1033  0.0242
 1139YOPC   GL116157   1.504   6.629   5.929 -0.3032 -0.0147 -0.0830
 1139YOPC   GL216158   1.807   6.629   6.114 -0.2615 -0.2966  0.0009
 1139YOPC   C1A16159   1.356   6.496   6.278  0.0134  0.1349 -0.0888
 1139YOPC   D2A16160   1.303   6.597   6.730  0.1562 -0.2005 -0.0590
 1139YOPC   C3A16161   1.616   6.211   6.762 -0.3428 -0.2256  0.1015
 1139YOPC   C4A16162   1.954   6.242   7.033  0.1447 -0.1578 -0.1421
 1139YOPC   C1B16163   1.746   6.688   6.522  0.0952  0.0112  0.2175
 1139YOPC   C2B16164   1.718   6.722   6.976  0.1553  0.0975 -0.2634
 1139YOPC   D3B16165   1.524   6.463   7.235  0.1369  0.1031 -0.1156
 1139YOPC   C4B16166   1.399   6.420   7.612 -0.0906 -0.0055 -0.0409
 1140YOPC   NC316167   0.106   0.200   4.964 -0.2967  0.1202 -0.2457
 1140YOPC   PO416168   0.376   0.555   5.210 -0.0338 -0.0860  0.0649
 1140YOPC   GL116169   0.073   0.269   5.453 -0.0835 -0.1628  0.0179
 1140YOPC   GL216170   0.059  -0.009   5.531  0.0484 -0.0007  0.0467
 1140YOPC   C1A16171   0.176   0.259   5.979  0.2130 -0.1165  0.3553
 1140YOPC   D2A16172   0.046   0.053   6.416 -0.1819  0.2481  0.2217
 1140YOPC   C3A16173  -0.077  -0.340   6.538  0.0479 -0.1868 -0.0535
 1140YOPC   C4A16174  -0.173  -0.505   6.897 -0.0043 -0.2851  0.1742
 1140YOPC   C1B16175  -0.164  -0.126   5.911 -0.0098  0.3311  0.3985
 1140YOPC   C2B16176  -0.531  -0.111   6.168  0.2107 -0.0272 -0.0404
 1140YOPC   D3B16177  -0.568  -0.099   6.597  0.1344 -0.0848 -0.0088
 1140YOPC   C4B16178  -0.818  -0.179   6.886 -0.1425  0.2951  0.0440
 1141YOPC   NC316179  11.902   6.103   5.560  0.1704  0.0427  0.1384
 1141YOPC   PO416180  11.866   5.995   5.930  0.3015  0.1120  0.0419
 1141YOPC   GL116181  12.019   6.153   6.356 -0.4223 -0.1061  0.0459
 1141YOPC   GL216182  11.789   6.402   6.411  0.0387  0.1899 -0.0421
 1141YOPC   C1A16183  12.187   5.857   6.636  0.1678  0.3197 -0.2843
 1141YOPC   D2A16184  12.305   5.609   6.945  0.0070 -0.0885  0.1270
 1141YOPC   C3A16185  12.398   5.648   7.314 -0.3390 -0.0509 -0.0856
 1141YOPC   C4A16186  12.634   5.575   7.708  0.1043  0.2070  0.0931
 1141YOPC   C1B16187  11.979   6.324   6.866 -0.5001 -0.1320 -0.1995
 1141YOPC   C2B16188  12.077   6.077   7.182  0.1914  0.1720  0.1708
 1141YOPC   D3B16189  12.322   6.252   7.546 -0.1768 -0.1511  0.2014
 1141YOPC   C4B16190  12.425   6.617   7.684 -0.0757  0.0442 -0.2793
 1142YOPC   NC316191  13.003   0.753   5.291 -0.0432 -0.1572 -0.2377
 1142YOPC   PO416192  12.875   0.321   5.280  0.4778 -0.1317 -0.0943
 1142YOPC   GL116193  13.100   0.303   5.680 -0.3164 -0.0657  0.0254
 1142YOPC   GL216194  13.466   0.396   5.624  0.3591  0.0258 -0.1181
 1142YOPC   C1A16195  13.267   0.464   6.139 -0.2246 -0.0930  0.3168
 1142YOPC   D2A16196  13.695   0.345   6.087 -0.1081  0.1651 -0.0573
 1142YOPC   C3A16197  13.810   0.551   6.618 -0.0913 -0.0467  0.1968
 1142YOPC   C4A16198  13.766   0.608   7.168 -0.2877 -0.0350  0.2710
 1142YOPC   C1B16199  13.854   0.486   5.619 -0.0539 -0.1690 -0.0276
 1142YOPC   C2B16200  13.882   0.794   5.820 -0.0982 -0.3885  0.2063
 1142YOPC   D3B16201  13.666   0.821   6.227  0.0688 -0.1274 -0.2701
 1142YOPC   C4B16202  13.374   0.783   6.572 -0.1711 -0.2099  0.1783
 1143ERGO   ROH16203   8.661  11.462   6.387 -0.2656 -0.3006  0.2264
 1143ERGO    R116204   8.475  11.450   6.601 -0.3961 -0.0899  0.1286
 1143ERGO    R216205   8.478  11.630   6.811 -0.2867 -0.1051  0.1436
 1143ERGO    R316206   8.218  11.667   6.741 -0.2079  0.2186  0.0050
 1143ERGO    R416207   8.226  11.719   7.030 -0.4144 -0.4535  0.1444
 1143ERGO    R516208   8.094  11.579   6.926 -0.4202 -0.1385 -0.2945
 1143ERGO    C116209   7.835  11.805   7.092 -0.4148 -0.3525  0.0148
 1143ERGO    C216210   7.621  12.100   7.195 -0.1761  0.1355  0.0369
 1144ERGO   ROH16211  11.100  10.820   6.111  0.0413 -0.0420 -0.0155
 1144ERGO    R116212  11.084  10.809   6.394  0.0985  0.0158 -0.0111
 1144ERGO    R216213  11.052  11.034   6.550  0.1050  0.0408 -0.0569
 1144ERGO    R316214  10.840  10.896   6.649  0.1399  0.0403  0.0232
 1144ERGO    R416215  10.843  11.146   6.801  0.1157  0.1170 -0.0800
 1144ERGO    R516216  10.841  10.944   6.883  0.1622  0.1436  0.0078
 1144ERGO    C116217  10.522  11.081   7.041  0.1547  0.1607 -0.0183
 1144ERGO    C216218  10.137  11.112   7.184 -0.1404 -0.0088 -0.0076
 1145ERGO   ROH16219  10.181   8.589  10.322  0.1258 -0.2152  0.1928
 1145ERGO    R116220  10.244   8.453  10.082  0.0250 -0.1760  0.1429
 1145ERGO    R216221  10.050   8.341   9.920 -0.0627  0.0626  0.0777
 1145ERGO    R316222  10.170   8.493   9.728  0.0919  0.0346  0.1512
 1145ERGO    R416223  10.064   8.260   9.584 -0.1657  0.2152  0.0366
 1145ERGO    R516224  10.269   8.333   9.580 -0.0845 -0.0006  0.0671
 1145ERGO    C116225  10.183   8.356   9.209 -0.0803  0.2776  0.0816
 1145ERGO    C216226  10.060   8.275   8.871  0.1059 -0.0066  0.0219
 1146ERGO   ROH16227   0.779   6.131   9.622  0.3998  0.0123  0.0090
 1146ERGO    R116228   0.874   5.990   9.395  0.0871 -0.2038  0.0066
 1146ERGO    R216229   0.707   5.841   9.232 -0.2706  0.2245 -0.0355
 1146ERGO    R316230   0.814   5.996   9.036  0.1526 -0.0093 -0.0025
 1146ERGO    R416231   0.704   5.765   8.895 -0.1043  0.1121 -0.0132
 1146ERGO    R516232   0.907   5.840   8.881  0.0388 -0.2194  0.1328
 1146ERGO    C116233   0.802   5.866   8.515  0.3899 -0.1728  0.0310
 1146ERGO    C216234   0.863   5.848   8.175 -0.0883  0.1997 -0.0534
 1147ERGO   ROH16235  17.507   4.984   8.865  0.1799  0.0446  0.0714
 1147ERGO    R116236  17.531   5.218   8.708  0.0715  0.0569  0.0715
 1147ERGO    R216237  17.498   5.217   8.433  0.0775  0.0417  0.0667
 1147ERGO    R316238  17.315   5.411   8.487 -0.0176 -0.0486  0.0673
 1147ERGO    R416239  17.441   5.496   8.237  0.0509  0.1001  0.1581
 1147ERGO    R516240  17.421   5.614   8.419 -0.0694  0.0188  0.1940
 1147ERGO    C116241  17.237   5.841   8.174 -0.0537  0.0494  0.2118
 1147ERGO    C216242  17.245   6.134   8.035  0.1712 -0.1571  0.2597
 1148ERGO   ROH16243   4.217   8.914   5.939  0.1819  0.2828 -0.2098
 1148ERGO    R116244   4.239   9.069   6.175  0.0629  0.0080 -0.0123
 1148ERGO    R216245   4.369   9.313   6.183  0.2258 -0.0767  0.3842
 1148ERGO    R316246   4.133   9.399   6.285  0.1809 -0.0406  0.2489
 1148ERGO    R416247   4.329   9.597   6.374  0.1224  0.0165  0.2243
 1148ERGO    R516248   4.190   9.487   6.500  0.0851  0.0738  0.2238
 1148ERGO    C116249   4.084   9.844   6.583  0.0201  0.1046  0.0043
 1148ERGO    C216250   3.918  10.109   6.690 -0.2432 -0.1973 -0.1234
 1149ERGO   ROH16251   8.381   2.916   6.337  0.0097 -0.1534 -0.0822
 1149ERGO    R116252   8.401   2.868   6.615 -0.0166 -0.2332 -0.0943
 1149ERGO    R216253   8.268   3.021   6.803  0.1736 -0.1213 -0.0509
 1149ERGO    R316254   8.173   2.780   6.885 -0.0902 -0.0340 -0.0893
 1149ERGO    R416255   8.112   2.962   7.106  0.0767  0.0083 -0.0743
 1149ERGO    R516256   8.220   2.773   7.119 -0.1212 -0.1101 -0.0838
 1149ERGO    C116257   7.933   2.701   7.359 -0.2273  0.1657 -0.1240
 1149ERGO    C216258   7.690   2.483   7.482 -0.2295  0.1046  0.1089
 1150ERGO   ROH16259   7.079  15.726   6.312 -0.1415 -0.0930  0.0874
 1150ERGO    R116260   7.205  15.649   6.554 -0.0769  0.0006  0.0838
 1150ERGO    R216261   7.188  15.800   6.785 -0.0566  0.0644  0.0427
 1150ERGO    R316262   7.099  15.567   6.893  0.0092  0.0787  0.1303
 1150ERGO    R416263   7.281  15.677   7.095 -0.0958  0.2532  0.1311
 1150ERGO    R516264   7.289  15.478   7.007  0.0134  0.2132  0.2305
 1150ERGO    C116265   7.251  15.387   7.376 -0.0567  0.3765  0.2649
 1150ERGO    C216266   7.049  15.177   7.613 -0.1843  0.0053  0.1550
 1151ERGO   ROH16267  15.623  10.593   5.646  0.0750  0.0091 -0.0722
 1151ERGO    R116268  15.564  10.737   5.883  0.1520 -0.0172 -0.0373
 1151ERGO    R216269  15.330  10.700   6.025  0.1684  0.0188 -0.0069
 1151ERGO    R316270  15.501  10.657   6.232  0.1896 -0.0601 -0.0393
 1151ERGO    R416271  15.234  10.659   6.354  0.2036  0.0085  0.0027
 1151ERGO    R516272  15.406  10.780   6.414  0.2538 -0.0501 -0.0090
 1151ERGO    C116273  15.339  10.595   6.741  0.2439 -0.0715 -0.0222
 1151ERGO    C216274  15.063  10.488   6.863  0.1105 -0.0703  0.2119
 1152ERGO   ROH16275  16.169  15.789   9.325 -0.1073  0.2949 -0.1192
 1152ERGO    R116276  16.005  15.674   9.125  0.0345  0.0473 -0.0976
 1152ERGO    R216277  15.827  15.823   8.975 -0.2721 -0.2275 -0.0188
 1152ERGO    R316278  15.960  15.712   8.766 -0.1300  0.0472 -0.0778
 1152ERGO    R416279  15.737  15.858   8.643 -0.3057 -0.1533 -0.0018
 1152ERGO    R516280  15.788  15.648   8.612 -0.0499 -0.0787 -0.1163
 1152ERGO    C116281  15.810  15.775   8.253 -0.1917  0.1479 -0.0472
 1152ERGO    C216282  15.772  15.736   7.994 -0.0037 -0.2295  0.2212
 1153ERGO   ROH16283   5.745   2.227   9.521 -0.0701 -0.2125 -0.1590
 1153ERGO    R116284   5.817   2.110   9.273  0.0831 -0.0334 -0.2010
 1153ERGO    R216285   5.631   2.047   9.079  0.1608 -0.2221 -0.2138
 1153ERGO    R316286   5.792   2.199   8.922 -0.0487  0.0515 -0.1710
 1153ERGO    R416287   5.617   2.057   8.734  0.3018 -0.3303 -0.2238
 1153ERGO    R516288   5.835   2.062   8.730  0.3032  0.0824 -0.1211
 1153ERGO    C116289   5.760   2.206   8.385  0.1872 -0.1365 -0.1895
 1153ERGO    C216290   5.670   2.172   8.026 -0.3820 -0.1430  0.1555
 1154ERGO   ROH16291  18.026   4.728   9.151 -0.0595 -0.1964 -0.1835
 1154ERGO    R116292  18.056   4.677   8.874  0.2296  0.0203 -0.1965
 1154ERGO    R216293  17.851   4.716   8.693  0.2721 -0.2645 -0.3088
 1154ERGO    R316294  18.037   4.870   8.566  0.0734  0.1699 -0.0952
 1154ERGO    R416295  17.825   4.829   8.367  0.2799 -0.1321 -0.2646
 1154ERGO    R516296  18.037   4.788   8.341  0.3875  0.2913 -0.1447
 1154ERGO    C116297  17.983   5.038   8.058  0.0976  0.3527 -0.0384
 1154ERGO    C216298  18.009   5.101   7.798  0.0495 -0.2611 -0.3431
 1155ERGO   ROH16299  12.224  16.720   5.762  0.0074 -0.0225 -0.0928
 1155ERGO    R116300  12.271  16.828   6.020 -0.0372  0.0196 -0.1026
 1155ERGO    R216301  12.180  16.707   6.250  0.0266 -0.0054 -0.0927
 1155ERGO    R316302  12.441  16.723   6.324  0.0210  0.1246 -0.0977
 1155ERGO    R416303  12.300  16.642   6.568  0.0569  0.0794 -0.0864
 1155ERGO    R516304  12.435  16.812   6.546 -0.0215  0.1437 -0.1043
 1155ERGO    C116305  12.615  16.620   6.822  0.0692  0.2511 -0.0873
 1155ERGO    C216306  12.630  16.469   7.157 -0.0271  0.0009  0.1522
 1156ERGO   ROH16307   3.827  14.130   9.919 -0.1279 -0.2096 -0.0971
 1156ERGO    R116308   3.691  14.234   9.693 -0.1611 -0.2171 -0.0812
 1156ERGO    R216309   3.797  14.433   9.534 -0.2894 -0.0469  0.0374
 1156ERGO    R316310   3.751  14.254   9.335 -0.0869  0.0041 -0.0575
 1156ERGO    R416311   3.863  14.487   9.199 -0.4820  0.2600  0.0463
 1156ERGO    R516312   3.676  14.387   9.151 -0.3493  0.0082  0.0501
 1156ERGO    C116313   3.857  14.351   8.817 -0.4040  0.4864 -0.0375
 1156ERGO    C216314   3.833  14.346   8.375  0.1872 -0.2973 -0.0486
 1157ERGO   ROH16315   7.707  16.611   6.512 -0.0065  0.3163  0.0400
 1157ERGO    R116316   7.767  16.686   6.778  0.0444  0.2365  0.0520
 1157ERGO    R216317   7.717  16.521   6.995  0.0195  0.1985  0.0209
 1157ERGO    R316318   7.981  16.563   7.046  0.0374  0.1098 -0.0012
 1157ERGO    R416319   7.851  16.584   7.307  0.0798  0.0959  0.0155
 1157ERGO    R516320   7.983  16.731   7.216  0.1110  0.0731  0.0313
 1157ERGO    C116321   8.177  16.659   7.537  0.1318 -0.0472 -0.0082
 1157ERGO    C216322   8.202  16.476   7.870  0.1563 -0.1280 -0.4466
 1158ERGO   ROH16323  14.964   2.842   9.560 -0.1127 -0.1097 -0.0260
 1158ERGO    R116324  14.826   2.862   9.314 -0.0605  0.0099 -0.0463
 1158ERGO    R216325  14.776   3.104   9.191 -0.0935  0.0756  0.0940
 1158ERGO    R316326  14.899   2.986   8.980 -0.0135  0.2398  0.0473
 1158ERGO    R416327  14.747   3.210   8.864 -0.1616  0.1847  0.1347
 1158ERGO    R516328  14.737   3.000   8.803 -0.0218  0.2015  0.0525
 1158ERGO    C116329  14.846   3.161   8.474 -0.1260  0.4023  0.1144
 1158ERGO    C216330  14.756   3.252   8.145 -0.3492  0.3747  0.0957
 1159ERGO   ROH16331   2.182  15.031   9.773 -0.1573  0.0702  0.0712
 1159ERGO    R116332   2.235  14.922   9.517  0.0106  0.0658  0.1072
 1159ERGO    R216333   2.058  14.947   9.306  0.0634 -0.1032  0.0461
 1159ERGO    R316334   2.275  15.050   9.178  0.0287  0.0373  0.0976
 1159ERGO    R416335   2.126  14.907   8.969  0.1954 -0.1141  0.0728
 1159ERGO    R516336   2.337  14.880   9.020  0.2036  0.0511  0.1451
 1159ERGO    C116337   2.369  14.980   8.653  0.2396  0.0113  0.1366
 1159ERGO    C216338   2.355  14.850   8.284  0.2277 -0.1462  0.0344
 1160ERGO   ROH16339   4.024   0.412   5.990 -0.3036  0.1536 -0.2162
 1160ERGO    R116340   4.032   0.546   6.239 -0.1579  0.1146 -0.1997
 1160ERGO    R216341   3.878   0.769   6.293 -0.2859 -0.0230 -0.0035
 1160ERGO    R316342   3.797   0.621   6.507  0.0529 -0.1252  0.0606
 1160ERGO    R416343   3.817   0.896   6.608 -0.2399 -0.0806  0.0291
 1160ERGO    R516344   3.913   0.719   6.693  0.0568  0.0424 -0.0231
 1160ERGO    C116345   3.707   0.832   6.993  0.1049 -0.2101  0.1084
 1160ERGO    C216346   3.654   0.865   7.372  0.0342 -0.0647  0.1404
 1161ERGO   ROH16347  15.252  10.370   9.013 -0.0826 -0.0888 -0.0007
 1161ERGO    R116348  15.232  10.246   8.760  0.1715 -0.2015  0.0309
 1161ERGO    R216349  15.105  10.365   8.545 -0.1653 -0.5491  0.0228
 1161ERGO    R316350  15.342  10.318   8.421 -0.0586 -0.0043 -0.0030
 1161ERGO    R416351  15.142  10.308   8.207 -0.0672 -0.5156  0.0275
 1161ERGO    R516352  15.290  10.155   8.253  0.3105 -0.1607  0.0298
 1161ERGO    C116353  15.386  10.231   7.892  0.0900  0.0154  0.0060
 1161ERGO    C216354  15.439  10.336   7.684  0.1282  0.1762  0.0029
 1162ERGO   ROH16355  15.448  18.743   7.082  0.0720  0.0993 -0.0576
 1162ERGO    R116356  15.697  18.609   7.066 -0.0101 -0.0563 -0.0703
 1162ERGO    R216357  15.939  18.744   7.073  0.0765 -0.1872 -0.2692
 1162ERGO    R316358  15.991  18.573   7.277  0.0562 -0.0717 -0.1679
 1162ERGO    R416359  16.248  18.699   7.220  0.0690 -0.1589 -0.2461
 1162ERGO    R516360  16.209  18.486   7.229  0.0351 -0.1403 -0.1154
 1162ERGO    C116361  16.477  18.513   7.498  0.0458 -0.0337 -0.1375
 1162ERGO    C216362  16.682  18.586   7.736  0.1276  0.2852 -0.2252
 1163ERGO   ROH16363   7.002   4.068   9.990 -0.1136  0.1608  0.0473
 1163ERGO    R116364   7.133   4.089   9.740 -0.1482  0.0964  0.0245
 1163ERGO    R216365   7.145   3.879   9.560 -0.0542  0.0136  0.1296
 1163ERGO    R316366   7.041   4.063   9.389 -0.1595 -0.1364  0.0456
 1163ERGO    R416367   7.163   3.860   9.215  0.1837 -0.0192  0.1432
 1163ERGO    R516368   7.200   4.075   9.211 -0.0639  0.0202  0.1420
 1163ERGO    C116369   7.076   4.022   8.854  0.2234 -0.1791  0.0722
 1163ERGO    C216370   7.218   4.024   8.567  0.2602  0.2231 -0.1970
 1164ERGO   ROH16371  11.858  14.583   9.669  0.1640  0.2397  0.0954
 1164ERGO    R116372  11.710  14.655   9.438  0.0039 -0.1193  0.0821
 1164ERGO    R216373  11.822  14.790   9.225 -0.2909  0.1096  0.0769
 1164ERGO    R316374  11.723  14.581   9.082  0.1758 -0.1353  0.0880
 1164ERGO    R416375  11.800  14.781   8.880 -0.3971  0.1270  0.0819
 1164ERGO    R516376  11.605  14.685   8.901 -0.1687 -0.3838  0.1490
 1164ERGO    C116377  11.695  14.580   8.545 -0.0208 -0.0929  0.0953
 1164ERGO    C216378  11.684  14.466   8.263 -0.0182  0.1755 -0.1604
 1165ERGO   ROH16379   9.118  17.190   5.982 -0.2404 -0.0467  0.2139
 1165ERGO    R116380   9.018  17.059   6.213 -0.1210 -0.0389  0.2704
 1165ERGO    R216381   8.956  16.790   6.216 -0.2186 -0.0135  0.2796
 1165ERGO    R316382   9.125  16.787   6.430 -0.0649 -0.1077  0.1594
 1165ERGO    R416383   8.920  16.587   6.493  0.0063 -0.1827  0.1879
 1165ERGO    R516384   8.981  16.755   6.618  0.0679 -0.2403  0.2441
 1165ERGO    C116385   9.057  16.465   6.855  0.2816 -0.3696  0.0216
 1165ERGO    C216386   9.017  16.340   7.211 -0.0733 -0.3107 -0.3189
 1166ERGO   ROH16387  10.069  13.351   9.875 -0.2078  0.0136 -0.0621
 1166ERGO    R116388  10.189  13.345   9.619 -0.1156 -0.0870 -0.0167
 1166ERGO    R216389  10.165  13.128   9.449 -0.2984 -0.0380 -0.0537
 1166ERGO    R316390  10.075  13.316   9.275 -0.0177  0.0917 -0.0657
 1166ERGO    R416391  10.205  13.115   9.106 -0.2932 -0.1059 -0.0511
 1166ERGO    R516392  10.245  13.329   9.108  0.0166 -0.1589 -0.0551
 1166ERGO    C116393  10.144  13.284   8.743 -0.0267 -0.0237 -0.0610
 1166ERGO    C216394   9.939  13.182   8.397 -0.1820 -0.0071 -0.3769
 1167ERGO   ROH16395   5.708   2.364   6.078 -0.0143 -0.0598  0.0156
 1167ERGO    R116396   5.790   2.578   6.244  0.1884 -0.0961 -0.0351
 1167ERGO    R216397   5.612   2.731   6.389  0.3251  0.1414 -0.1082
 1167ERGO    R316398   5.771   2.660   6.598  0.2171  0.0293 -0.0629
 1167ERGO    R416399   5.691   2.937   6.655  0.1941 -0.0037  0.0451
 1167ERGO    R516400   5.895   2.859   6.648  0.1949 -0.0009  0.1087
 1167ERGO    C116401   5.887   2.990   7.006  0.0164 -0.1935  0.1770
 1167ERGO    C216402   5.675   3.010   7.385  0.2681  0.0070 -0.1540
 1168ERGO   ROH16403   6.229  14.150   9.739 -0.0733  0.0330  0.0122
 1168ERGO    R116404   6.284  13.998   9.506 -0.1385 -0.0095  0.0240
 1168ERGO    R216405   6.101  13.968   9.301 -0.1611  0.0329  0.0358
 1168ERGO    R316406   6.306  14.060   9.148 -0.1367 -0.0519  0.0174
 1168ERGO    R416407   6.088  14.014   8.959 -0.1307 -0.0743  0.0198
 1168ERGO    R516408   6.290  13.935   8.945 -0.1450 -0.1133  0.0569
 1168ERGO    C116409   6.272  14.128   8.616 -0.0900 -0.2162 -0.0069
 1168ERGO    C216410   6.183  14.016   8.257  0.0913 -0.1937  0.2830
 1169ERGO   ROH16411  17.725   2.589   8.886  0.1611 -0.0939 -0.0356
 1169ERGO    R116412  17.804   2.728   8.652  0.2172 -0.1185 -0.0325
 1169ERGO    R216413  17.855   2.599   8.413  0.0402 -0.1226 -0.0755
 1169ERGO    R316414  17.672   2.775   8.316  0.1618  0.0542  0.0142
 1169ERGO    R416415  17.819   2.684   8.080 -0.1588 -0.2125 -0.0777
 1169ERGO    R516416  17.788   2.891   8.141  0.1395 -0.1521 -0.1337
 1169ERGO    C116417  17.627   2.899   7.795 -0.1605 -0.0989  0.0053
 1169ERGO    C216418  17.364   2.926   7.502  0.0582  0.2125 -0.2878
 1170ERGO   ROH16419  13.530  10.507   5.937 -0.0794  0.0606  0.0356
 1170ERGO    R116420  13.574  10.533   6.216 -0.2204 -0.1591  0.0804
 1170ERGO    R216421  13.610  10.315   6.381  0.1867 -0.2805 -0.1590
 1170ERGO    R316422  13.838  10.446   6.450 -0.1006  0.1286  0.0581
 1170ERGO    R416423  13.768  10.288   6.688  0.2730 -0.5084 -0.2208
 1170ERGO    R516424  13.807  10.503   6.681 -0.2233 -0.3831  0.1838
 1170ERGO    C116425  14.075  10.396   6.930  0.0537 -0.2569 -0.0529
 1170ERGO    C216426  14.322  10.199   7.104  0.2446  0.2584 -0.0767
 1171ERGO   ROH16427  18.365  10.040   9.110 -0.0421 -0.0648  0.0205
 1171ERGO    R116428  18.516  10.143   8.893  0.3888 -0.3266  0.1871
 1171ERGO    R216429  18.702   9.990   8.757 -0.1313 -0.8521  0.0471
 1171ERGO    R316430  18.556  10.066   8.540  0.1751 -0.0256  0.0901
 1171ERGO    R416431  18.800   9.949   8.428 -0.2058 -0.8803  0.0260
 1171ERGO    R516432  18.718  10.146   8.384  0.5546 -0.4690  0.2210
 1171ERGO    C116433  18.720   9.996   8.033  0.0383 -0.1210  0.0541
 1171ERGO    C216434  18.704   9.983   7.680  0.0975  0.2623 -0.0603
 1172ERGO   ROH16435  12.907  11.797   9.942  0.0361  0.0853  0.0849
 1172ERGO    R116436  12.772  11.798   9.693  0.0274 -0.1410  0.0855
 1172ERGO    R216437  12.824  11.985   9.496 -0.2600 -0.0688  0.0688
 1172ERGO    R316438  12.863  11.764   9.342  0.0796 -0.0282  0.0886
 1172ERGO    R416439  12.697  11.942   9.178 -0.3450 -0.3684  0.1408
 1172ERGO    R516440  12.654  11.734   9.229  0.0736 -0.4457  0.1993
 1172ERGO    C116441  12.658  11.709   8.848 -0.0758 -0.5046  0.2013
 1172ERGO    C216442  12.528  11.784   8.498 -0.3668 -0.0481 -0.0399
 1173ERGO   ROH16443   3.198  15.304   9.761  0.0461  0.2442 -0.0520
 1173ERGO    R116444   3.272  15.157   9.531 -0.0389  0.0810  0.0229
 1173ERGO    R216445   3.090  15.080   9.338 -0.0815  0.0993  0.0551
 1173ERGO    R316446   3.262  15.207   9.171  0.0049 -0.0930 -0.0035
 1173ERGO    R416447   3.098  15.039   8.995 -0.2303  0.0702  0.0545
 1173ERGO    R516448   3.316  15.043   9.005 -0.2208 -0.1616 -0.0120
 1173ERGO    C116449   3.266  15.135   8.638 -0.2359 -0.1273 -0.0009
 1173ERGO    C216450   3.264  15.049   8.322  0.0501 -0.1258 -0.2181
 1174ERGO   ROH16451   3.601   1.781   6.331 -0.0272  0.1608 -0.1523
 1174ERGO    R116452   3.774   1.879   6.532 -0.0152  0.1228 -0.1457
 1174ERGO    R216453   3.879   2.135   6.526 -0.0876  0.1473 -0.0610
 1174ERGO    R316454   3.769   2.151   6.774 -0.0362  0.0216 -0.0277
 1174ERGO    R416455   3.928   2.396   6.747 -0.1753  0.1307 -0.0200
 1174ERGO    R516456   3.941   2.250   6.909 -0.0486  0.0919 -0.0516
 1174ERGO    C116457   3.854   2.563   7.109 -0.1782  0.0031  0.0351
 1174ERGO    C216458   3.795   2.829   7.349  0.1153  0.0718  0.0973
 1175ERGO   ROH16459   4.288  12.773   5.900 -0.1336 -0.0693  0.0040
 1175ERGO    R116460   4.329  12.561   6.083 -0.1484 -0.2631 -0.2115
 1175ERGO    R216461   4.303  12.594   6.357  0.4209 -0.3889 -0.1295
 1175ERGO    R316462   4.130  12.386   6.333  0.0067 -0.0798  0.0454
 1175ERGO    R416463   4.208  12.385   6.615  0.4300 -0.3174 -0.0677
 1175ERGO    R516464   4.220  12.217   6.477 -0.0741 -0.2949 -0.1524
 1175ERGO    C116465   3.991  12.067   6.743  0.0464  0.0143  0.1326
 1175ERGO    C216466   3.694  11.789   6.707 -0.0433 -0.0902  0.1143
 1176ERGO   ROH16467   9.423   0.078   6.464  0.0318 -0.2379  0.1854
 1176ERGO    R116468   9.538   0.048   6.721  0.0150 -0.1405  0.2041
 1176ERGO    R216469   9.664   0.256   6.853 -0.1619 -0.0411  0.2134
 1176ERGO    R316470   9.488   0.193   7.051 -0.1438 -0.1634  0.1920
 1176ERGO    R416471   9.718   0.311   7.190 -0.2307 -0.0145  0.2208
 1176ERGO    R516472   9.627   0.117   7.231 -0.1096 -0.0792  0.2045
 1176ERGO    C116473   9.585   0.283   7.572 -0.2536 -0.1138  0.2050
 1176ERGO    C216474   9.690   0.462   7.832  0.0315 -0.2416 -0.0936
 1177ERGO   ROH16475  13.639  14.549   6.418 -0.3012 -0.0758 -0.1206
 1177ERGO    R116476  13.662  14.748   6.618 -0.1736 -0.1601 -0.0503
 1177ERGO    R216477  13.496  14.969   6.628 -0.0182 -0.0462  0.0145
 1177ERGO    R316478  13.450  14.883   6.882 -0.0956 -0.1007 -0.0174
 1177ERGO    R416479  13.523  15.166   6.911  0.0647 -0.1484  0.0790
 1177ERGO    R516480  13.615  14.997   7.014 -0.0428 -0.2354  0.0366
 1177ERGO    C116481  13.495  15.200   7.314  0.0404 -0.2592  0.0866
 1177ERGO    C216482  13.698  15.477   7.472  0.2154  0.1406 -0.0698
 1178ERGO   ROH16483  10.174   7.212   6.925  0.0235  0.0757  0.2064
 1178ERGO    R116484  10.038   7.078   7.134  0.0326 -0.0753  0.1181
 1178ERGO    R216485   9.975   6.809   7.122  0.1010 -0.0897 -0.0370
 1178ERGO    R316486  10.106   6.801   7.360  0.0785 -0.1836 -0.0287
 1178ERGO    R416487   9.878   6.620   7.395 -0.1085  0.0604 -0.0063
 1178ERGO    R516488   9.932   6.788   7.524  0.0572  0.0264 -0.0357
 1178ERGO    C116489   9.945   6.503   7.777 -0.2517  0.0597  0.0194
 1178ERGO    C216490   9.792   6.358   8.038  0.0921 -0.0358  0.2519
 1179ERGO   ROH16491   2.082   9.523   5.710 -0.1065  0.1668 -0.0325
 1179ERGO    R116492   2.102   9.430   5.977 -0.0764  0.1158 -0.0527
 1179ERGO    R216493   2.295   9.520   6.152 -0.0884  0.1197 -0.0424
 1179ERGO    R316494   2.081   9.575   6.310 -0.0934  0.0423 -0.0216
 1179ERGO    R416495   2.300   9.526   6.498 -0.0909 -0.0150 -0.0392
 1179ERGO    R516496   2.106   9.428   6.497 -0.0836 -0.0295 -0.0784
 1179ERGO    C116497   2.101   9.581   6.847 -0.0969 -0.1662 -0.0179
 1179ERGO    C216498   1.876   9.570   7.144  0.0747 -0.3199 -0.1840
 1180ERGO   ROH16499  10.913  12.125   6.297 -0.0883 -0.1488  0.0380
 1180ERGO    R116500  11.042  12.172   6.545 -0.0812 -0.0880  0.0234
 1180ERGO    R216501  11.250  12.353   6.572 -0.0570 -0.1027 -0.0323
 1180ERGO    R316502  11.091  12.457   6.767 -0.0466 -0.0247 -0.0663
 1180ERGO    R416503  11.363  12.471   6.877 -0.0564 -0.0559 -0.0512
 1180ERGO    R516504  11.189  12.379   6.971 -0.0794  0.0040 -0.0425
 1180ERGO    C116505  11.279  12.637   7.237 -0.0463  0.0446 -0.0941
 1180ERGO    C216506  11.238  12.761   7.530  0.3776  0.0754  0.0310
 1181ERGO   ROH16507   1.271  10.006   8.930 -0.3114 -0.0218 -0.1541
 1181ERGO    R116508   1.354  10.025   8.660 -0.1859  0.0597 -0.1100
 1181ERGO    R216509   1.263   9.853   8.464  0.0911 -0.0318 -0.1563
 1181ERGO    R316510   1.195  10.084   8.338 -0.0730 -0.1007 -0.1977
 1181ERGO    R416511   1.218   9.885   8.123  0.3145 -0.0787 -0.1925
 1181ERGO    R516512   1.319  10.078   8.133  0.0947  0.0404 -0.1062
 1181ERGO    C116513   1.127  10.121   7.806  0.2906 -0.1707 -0.2524
 1181ERGO    C216514   1.050  10.314   7.631  0.0306 -0.2333 -0.0354
 1182ERGO   ROH16515  10.830   9.198  10.309  0.0810 -0.0045 -0.0416
 1182ERGO    R116516  10.998   9.191  10.082  0.1026 -0.1777 -0.0218
 1182ERGO    R216517  11.000   8.979   9.904 -0.1697 -0.1377 -0.0786
 1182ERGO    R316518  10.954   9.175   9.721  0.1225 -0.0209 -0.0313
 1182ERGO    R416519  10.991   8.932   9.562 -0.4592 -0.0850 -0.0812
 1182ERGO    R516520  11.098   9.120   9.538 -0.0880 -0.2949 -0.1187
 1182ERGO    C116521  10.944   9.088   9.191 -0.3535  0.0554 -0.0382
 1182ERGO    C216522  10.875   8.987   8.873  0.2187  0.0937  0.2883
 1183ERGO   ROH16523   3.273   2.795   9.930  0.3913 -0.1525  0.0385
 1183ERGO    R116524   3.142   2.879   9.694  0.2116 -0.2538  0.0989
 1183ERGO    R216525   3.249   3.069   9.524 -0.0170 -0.1617  0.0454
 1183ERGO    R316526   3.212   2.875   9.337  0.0513 -0.1952  0.0675
 1183ERGO    R416527   3.250   3.121   9.183  0.1509 -0.2427  0.0332
 1183ERGO    R516528   3.083   2.982   9.166  0.1478 -0.2237 -0.0174
 1183ERGO    C116529   3.216   2.970   8.808  0.3128 -0.3212  0.0470
 1183ERGO    C216530   3.300   2.930   8.562  0.2850  0.0620 -0.1587
 1184ERGO   ROH16531   8.923   3.862   9.929 -0.0547 -0.0862  0.0668
 1184ERGO    R116532   9.069   3.902   9.690 -0.0756 -0.0474  0.0600
 1184ERGO    R216533   9.125   3.696   9.513 -0.0308 -0.0336  0.0552
 1184ERGO    R316534   9.008   3.863   9.333 -0.0834 -0.0616  0.0636
 1184ERGO    R416535   9.188   3.696   9.174 -0.2503 -0.1878  0.0125
 1184ERGO    R516536   9.182   3.913   9.177 -0.1664 -0.1863 -0.0692
 1184ERGO    C116537   9.115   3.853   8.807 -0.4276 -0.3039 -0.0046
 1184ERGO    C216538   8.972   3.756   8.542  0.0351  0.1379  0.4332
 1185ERGO   ROH16539  18.328   6.737   9.361  0.0912 -0.0729  0.0812
 1185ERGO    R116540  18.337   6.685   9.082 -0.0767  0.0188  0.0570
 1185ERGO    R216541  18.347   6.887   8.894 -0.0145  0.0812  0.1234
 1185ERGO    R316542  18.567   6.752   8.808 -0.1523 -0.0540 -0.0241
 1185ERGO    R416543  18.486   6.916   8.579 -0.0478  0.1968  0.1192
 1185ERGO    R516544  18.519   6.701   8.579 -0.2430  0.1654 -0.0553
 1185ERGO    C116545  18.773   6.807   8.315 -0.1966  0.1371 -0.0216
 1185ERGO    C216546  18.982   7.073   8.172 -0.1011 -0.2118  0.0037
 1186ERGO   ROH16547  16.960   8.483   9.199 -0.1705  0.1299 -0.1707
 1186ERGO    R116548  16.973   8.552   8.925 -0.2332  0.1279 -0.1740
 1186ERGO    R216549  17.164   8.448   8.754 -0.1093  0.3248 -0.1574
 1186ERGO    R316550  16.946   8.377   8.607 -0.0275  0.0771 -0.1655
 1186ERGO    R416551  17.168   8.386   8.414 -0.0357  0.3913 -0.1691
 1186ERGO    R516552  16.977   8.491   8.398 -0.1724  0.1570 -0.1459
 1186ERGO    C116553  16.966   8.284   8.077  0.0839  0.1975 -0.1836
 1186ERGO    C216554  17.192   8.079   7.918  0.0751 -0.3123  0.1156
 1187ERGO   ROH16555  10.239   9.295   6.561 -0.3227  0.0780 -0.0004
 1187ERGO    R116556  10.246   9.149   6.803 -0.1297  0.1205  0.0199
 1187ERGO    R216557  10.473   9.018   6.892 -0.0386  0.2104 -0.0972
 1187ERGO    R316558  10.432   9.165   7.116  0.0534  0.2276 -0.0897
 1187ERGO    R416559  10.570   8.924   7.210 -0.1974  0.0645 -0.0899
 1187ERGO    R516560  10.381   9.003   7.285 -0.1462  0.2449 -0.1222
 1187ERGO    C116561  10.587   9.007   7.606 -0.2036 -0.0043 -0.0786
 1187ERGO    C216562  10.702   8.898   7.834  0.2229  0.0634 -0.1060
 1188ERGO   ROH16563  11.689  15.662   5.865  0.4002 -0.2628  0.1695
 1188ERGO    R116564  11.599  15.644   6.133  0.2641 -0.1973  0.1286
 1188ERGO    R216565  11.743  15.514   6.330  0.2075 -0.0677  0.2511
 1188ERGO    R316566  11.718  15.752   6.459  0.0468 -0.0311  0.1576
 1188ERGO    R416567  11.745  15.552   6.673  0.2993  0.0667  0.2364
 1188ERGO    R516568  11.586  15.700   6.653  0.1564 -0.0747  0.2280
 1188ERGO    C116569  11.724  15.798   6.995  0.2019  0.1794  0.1399
 1188ERGO    C216570  11.891  16.006   7.216  0.5959  0.1217 -0.2098
 1189ERGO   ROH16571  11.852   9.776   6.201 -0.2452 -0.1838 -0.0960
 1189ERGO    R116572  11.833   9.829   6.478 -0.1033  0.0194 -0.1222
 1189ERGO    R216573  11.648  10.005   6.583 -0.1413 -0.0061 -0.1451
 1189ERGO    R316574  11.580   9.792   6.737  0.0776  0.0705  0.0641
 1189ERGO    R416575  11.587  10.019   6.923 -0.1357  0.2637 -0.1530
 1189ERGO    R516576  11.694   9.829   6.945  0.0540  0.3851  0.0255
 1189ERGO    C116577  11.488   9.826   7.266  0.0732  0.4928  0.0389
 1189ERGO    C216578  11.391   9.929   7.681  0.1287 -0.0666  0.2396
 1190ERGO   ROH16579  13.704  11.263   6.028 -0.2545  0.0145  0.1577
 1190ERGO    R116580  13.704  11.461   6.230  0.1018  0.2395 -0.0546
 1190ERGO    R216581  13.629  11.407   6.491 -0.1065  0.6732 -0.0247
 1190ERGO    R316582  13.872  11.515   6.548  0.1140  0.2195 -0.0564
 1190ERGO    R416583  13.731  11.515   6.804  0.1242  0.5331 -0.0459
 1190ERGO    R516584  13.827  11.685   6.709  0.4503  0.3417 -0.0795
 1190ERGO    C116585  14.018  11.678   7.039  0.4656  0.0255 -0.0881
 1190ERGO    C216586  14.105  11.660   7.451  0.3961 -0.0090 -0.0373
 1191ERGO   ROH16587  13.851   3.760   5.862  0.0858  0.1393  0.1352
 1191ERGO    R116588  13.740   3.554   6.020  0.0426  0.0400 -0.0213
 1191ERGO    R216589  13.725   3.569   6.295  0.0496 -0.1687 -0.0040
 1191ERGO    R316590  13.461   3.519   6.251  0.0387 -0.0744 -0.0445
 1191ERGO    R416591  13.541   3.323   6.453 -0.0795 -0.0759 -0.0084
 1191ERGO    R516592  13.443   3.281   6.263 -0.0591 -0.0628 -0.0166
 1191ERGO    C116593  13.187   3.131   6.503 -0.1648  0.0667 -0.0490
 1191ERGO    C216594  12.888   3.084   6.600 -0.0367 -0.2324  0.2296
 1192ERGO   ROH16595   4.574  17.866   6.034 -0.0028 -0.0765  0.0315
 1192ERGO    R116596   4.496  18.132   6.090  0.1538 -0.0503  0.1308
 1192ERGO    R216597   4.232  18.209   6.109  0.1831  0.1801 -0.2576
 1192ERGO    R316598   4.311  18.304   6.351 -0.1351 -0.1112 -0.0308
 1192ERGO    R416599   4.040  18.409   6.315  0.0323  0.2045 -0.4194
 1192ERGO    R516600   4.219  18.525   6.362  0.0804 -0.0215 -0.0067
 1192ERGO    C116601   4.002  18.615   6.662 -0.3543 -0.0549 -0.3007
 1192ERGO    C216602   3.858  18.621   7.014 -0.2427  0.2555 -0.1660
 1193ERGO   ROH16603   8.111   1.693   6.224  0.2360 -0.0403 -0.0390
 1193ERGO    R116604   8.252   1.699   6.469  0.1009  0.0815  0.0371
 1193ERGO    R216605   8.252   1.919   6.636 -0.1617  0.0888  0.0284
 1193ERGO    R316606   8.169   1.738   6.821 -0.1188  0.0317 -0.0075
 1193ERGO    R416607   8.363   1.907   6.963  0.1405 -0.1939 -0.0789
 1193ERGO    R516608   8.366   1.689   6.948 -0.0292 -0.1909 -0.2211
 1193ERGO    C116609   8.349   1.730   7.327  0.3570 -0.4121 -0.1750
 1193ERGO    C216610   8.511   1.975   7.552  0.3381 -0.0496 -0.2748
 1194ERGO   ROH16611   2.070  16.950   9.444 -0.0521  0.0244 -0.0471
 1194ERGO    R116612   2.185  17.037   9.201  0.0576 -0.0865 -0.0364
 1194ERGO    R216613   2.368  16.886   9.060 -0.0431 -0.2488  0.0007
 1194ERGO    R316614   2.193  16.923   8.856  0.0151 -0.1186 -0.0263
 1194ERGO    R416615   2.457  16.923   8.728  0.0490 -0.0326  0.0478
 1194ERGO    R516616   2.304  17.077   8.709  0.0539 -0.0228  0.1038
 1194ERGO    C116617   2.344  16.980   8.343  0.1572  0.2154  0.0499
 1194ERGO    C216618   2.295  16.964   8.058 -0.1996  0.2095 -0.0029
 1195ERGO   ROH16619   9.055  10.421   6.399  0.0031 -0.1622  0.1025
 1195ERGO    R116620   9.141  10.483   6.662 -0.0753 -0.1967  0.1359
 1195ERGO    R216621   9.165  10.743   6.753  0.1085 -0.2052  0.1043
 1195ERGO    R316622   9.002  10.654   6.952 -0.0710 -0.0270  0.0403
 1195ERGO    R416623   9.128  10.896   7.061  0.2841 -0.2442  0.1466
 1195ERGO    R516624   9.124  10.698   7.153 -0.0362 -0.2791  0.0812
 1195ERGO    C116625   8.952  10.902   7.426  0.2178 -0.0995  0.1112
 1195ERGO    C216626   8.821  11.197   7.657  0.0943 -0.2030 -0.1389
 1196ERGO   ROH16627   6.928   3.157   6.561  0.0494  0.0823 -0.1879
 1196ERGO    R116628   6.916   3.402   6.702  0.0075  0.0335 -0.1051
 1196ERGO    R216629   6.677   3.523   6.771 -0.0137 -0.0115 -0.0962
 1196ERGO    R316630   6.784   3.518   7.021 -0.0473 -0.0882 -0.0834
 1196ERGO    R416631   6.570   3.718   7.036 -0.0085 -0.0474 -0.0680
 1196ERGO    R516632   6.778   3.746   7.092 -0.0101 -0.1027 -0.0345
 1196ERGO    C116633   6.608   3.826   7.424 -0.0371 -0.1403 -0.0397
 1196ERGO    C216634   6.536   3.665   7.752 -0.2492  0.2984  0.0353
 1197ERGO   ROH16635  18.159   8.030   5.829 -0.1698  0.1743 -0.0566
 1197ERGO    R116636  18.184   8.077   6.107 -0.1514 -0.0368 -0.0212
 1197ERGO    R216637  18.147   8.328   6.219  0.1233 -0.0647  0.1372
 1197ERGO    R316638  17.968   8.195   6.374 -0.0533  0.0382  0.0253
 1197ERGO    R416639  18.053   8.421   6.539 -0.1492  0.0730  0.0213
 1197ERGO    R516640  18.056   8.211   6.596 -0.2536  0.0950  0.1018
 1197ERGO    C116641  17.830   8.351   6.870 -0.4735  0.2497 -0.1512
 1197ERGO    C216642  17.651   8.582   7.092 -0.3019  0.1402  0.1413
 1198ERGO   ROH16643  17.775   7.056   5.993 -0.0250 -0.2684  0.0989
 1198ERGO    R116644  17.845   7.202   6.225  0.1834 -0.3211  0.0713
 1198ERGO    R216645  17.670   7.375   6.351  0.4628  0.0614 -0.0364
 1198ERGO    R316646  17.729   7.223   6.569  0.1119  0.0093  0.0289
 1198ERGO    R416647  17.642   7.480   6.680  0.3087  0.1089 -0.0639
 1198ERGO    R516648  17.829   7.377   6.723  0.1555 -0.0959  0.1007
 1198ERGO    C116649  17.682   7.399   7.075 -0.1105  0.0877 -0.0187
 1198ERGO    C216650  17.447   7.286   7.347 -0.1847 -0.2094 -0.2301
 1199ERGO   ROH16651   1.330   7.074   5.888 -0.2065 -0.0140 -0.0575
 1199ERGO    R116652   1.370   7.013   6.162 -0.2473 -0.0171 -0.0523
 1199ERGO    R216653   1.580   7.117   6.308 -0.1364 -0.2008 -0.0799
 1199ERGO    R316654   1.382   7.199   6.474 -0.0478  0.0139 -0.0769
 1199ERGO    R416655   1.620   7.183   6.645 -0.0192 -0.0528 -0.1217
 1199ERGO    R516656   1.428   7.088   6.681 -0.0746  0.0896 -0.0293
 1199ERGO    C116657   1.457   7.300   6.997  0.1323  0.2348 -0.1433
 1199ERGO    C216658   1.335   7.565   7.241 -0.2483 -0.0966  0.0196
 1200ERGO   ROH16659  15.402   1.033   5.633 -0.0023 -0.0987 -0.1713
 1200ERGO    R116660  15.380   0.987   5.911  0.0516  0.0442 -0.1442
 1200ERGO    R216661  15.200   0.807   6.019 -0.0057  0.1903 -0.0052
 1200ERGO    R316662  15.422   0.704   6.137 -0.0326  0.1338 -0.0170
 1200ERGO    R416663  15.199   0.606   6.300 -0.0308  0.3294  0.0965
 1200ERGO    R516664  15.375   0.713   6.371  0.0401  0.2715 -0.0095
 1200ERGO    C116665  15.407   0.392   6.574 -0.0706  0.3573  0.1445
 1200ERGO    C216666  15.647   0.356   6.832 -0.2688  0.0050  0.0243
 1201ERGO   ROH16667   8.142   8.176   9.917 -0.1158  0.1776 -0.0329
 1201ERGO    R116668   8.302   8.171   9.684 -0.0825  0.0535 -0.0084
 1201ERGO    R216669   8.304   7.958   9.509 -0.1570  0.0144  0.0347
 1201ERGO    R316670   8.247   8.150   9.325 -0.0405  0.0055 -0.0113
 1201ERGO    R416671   8.327   7.918   9.166 -0.1997 -0.0819  0.0428
 1201ERGO    R516672   8.410   8.119   9.153 -0.0709 -0.1409 -0.0118
 1201ERGO    C116673   8.287   8.075   8.795 -0.1152 -0.1464  0.0043
 1201ERGO    C216674   8.341   8.059   8.473 -0.0421 -0.3675 -0.0331
 1202ERGO   ROH16675   3.392   4.593   6.132  0.2410  0.1020  0.2062
 1202ERGO    R116676   3.157   4.664   6.273  0.3036  0.2185  0.2502
 1202ERGO    R216677   2.991   4.477   6.390  0.0668  0.2772  0.0086
 1202ERGO    R316678   3.032   4.627   6.613  0.2099 -0.0213  0.1928
 1202ERGO    R416679   2.769   4.502   6.654 -0.0338  0.3692 -0.0825
 1202ERGO    R516680   2.815   4.715   6.665  0.3230  0.2918  0.1662
 1202ERGO    C116681   2.678   4.658   7.017  0.0418  0.1426  0.0375
 1202ERGO    C216682   2.508   4.708   7.234  0.1101  0.3573  0.1439
 1203ERGO   ROH16683   4.161  17.742   9.597  0.0418 -0.2251  0.0398
 1203ERGO    R116684   4.318  17.725   9.362  0.0973 -0.2522  0.0782
 1203ERGO    R216685   4.286  17.523   9.176 -0.0940 -0.0849 -0.0768
 1203ERGO    R316686   4.259  17.731   9.003  0.2171  0.0766  0.0617
 1203ERGO    R416687   4.370  17.513   8.841 -0.1039  0.0178 -0.0826
 1203ERGO    R516688   4.452  17.714   8.861  0.1969 -0.1119  0.0563
 1203ERGO    C116689   4.395  17.701   8.484  0.1824  0.2293  0.0439
 1203ERGO    C216690   4.470  17.565   8.096 -0.0271  0.0166  0.1811
 1204ERGO   ROH16691  12.776   4.007   6.172 -0.0717 -0.1086 -0.0133
 1204ERGO    R116692  12.954   4.004   6.392  0.0320 -0.1201 -0.0959
 1204ERGO    R216693  13.091   4.228   6.476  0.0658 -0.1209 -0.1418
 1204ERGO    R316694  12.978   4.168   6.716  0.1774 -0.1436 -0.0946
 1204ERGO    R416695  13.238   4.287   6.784  0.1639 -0.0596 -0.1999
 1204ERGO    R516696  13.161   4.094   6.851  0.2510 -0.0784 -0.1600
 1204ERGO    C116697  13.216   4.265   7.188  0.3256 -0.0452 -0.1895
 1204ERGO    C216698  13.135   4.649   7.292  0.0165 -0.3591 -0.1121
 1205ERGO   ROH16699   5.321  18.084   7.382  0.0600  0.1979  0.0276
 1205ERGO    R116700   5.363  17.808   7.426  0.0102  0.2075  0.1359
 1205ERGO    R216701   5.405  17.629   7.220 -0.0708  0.1117  0.2036
 1205ERGO    R316702   5.628  17.567   7.362 -0.0544  0.1223  0.1828
 1205ERGO    R416703   5.576  17.329   7.199 -0.0119  0.1507  0.1201
 1205ERGO    R516704   5.603  17.335   7.415 -0.0077  0.1016  0.1235
 1205ERGO    C116705   5.886  17.097   7.321  0.0378  0.1835  0.0520
 1205ERGO    C216706   6.055  16.760   7.430 -0.1621  0.0818 -0.2066
 1206ERGO   ROH16707  14.826  13.764   6.064 -0.1342  0.2621  0.0653
 1206ERGO    R116708  14.770  13.795   6.339 -0.1096  0.1744  0.0811
 1206ERGO    R216709  14.781  13.585   6.519 -0.2157  0.0888 -0.0071
 1206ERGO    R316710  14.949  13.751   6.653 -0.1219 -0.0559  0.0567
 1206ERGO    R416711  14.835  13.580   6.860 -0.3069  0.0107  0.0062
 1206ERGO    R516712  14.837  13.798   6.858 -0.1386  0.0082  0.0313
 1206ERGO    C116713  15.024  13.734   7.184 -0.2720 -0.1705  0.0740
 1206ERGO    C216714  15.321  13.660   7.372 -0.0010 -0.1017  0.0803
 1207ERGO   ROH16715  16.812  11.492   9.288  0.0583 -0.1202 -0.1109
 1207ERGO    R116716  16.844  11.621   9.038  0.1040 -0.0463 -0.0679
 1207ERGO    R216717  17.059  11.570   8.871  0.0438 -0.1305 -0.1262
 1207ERGO    R316718  16.863  11.520   8.689 -0.0252  0.0709 -0.1086
 1207ERGO    R416719  17.096  11.594   8.528  0.0509 -0.2351 -0.1324
 1207ERGO    R516720  16.898  11.683   8.517  0.1577 -0.0016 -0.1380
 1207ERGO    C116721  16.934  11.561   8.158 -0.0097 -0.1067 -0.1194
 1207ERGO    C216722  16.888  11.610   7.736 -0.2228 -0.2075  0.0490
 1208ERGO   ROH16723  10.890  17.327   9.735  0.0383  0.2557 -0.0561
 1208ERGO    R116724  10.739  17.408   9.509  0.0850  0.2750 -0.0812
 1208ERGO    R216725  10.852  17.541   9.296  0.1788  0.0749 -0.1602
 1208ERGO    R316726  10.740  17.340   9.152 -0.0083  0.0983 -0.0485
 1208ERGO    R416727  10.800  17.549   8.954  0.4488 -0.1700 -0.2097
 1208ERGO    R516728  10.607  17.453   8.987  0.2780  0.1419 -0.2570
 1208ERGO    C116729  10.665  17.364   8.620  0.4304 -0.2908 -0.1338
 1208ERGO    C216730  10.648  17.442   8.302  0.1389  0.1746  0.0408
 1209ERGO   ROH16731   4.699   4.900   9.439  0.1056 -0.2409 -0.0425
 1209ERGO    R116732   4.648   4.820   9.172  0.0669 -0.0749 -0.0863
 1209ERGO    R216733   4.549   4.993   8.981  0.0612  0.0528  0.0281
 1209ERGO    R316734   4.768   4.912   8.841  0.0387  0.1147 -0.0439
 1209ERGO    R416735   4.565   4.964   8.637 -0.0600 -0.0151  0.0276
 1209ERGO    R516736   4.679   4.781   8.662  0.0253  0.0402  0.0200
 1209ERGO    C116737   4.779   4.871   8.305 -0.1515  0.0035 -0.0403
 1209ERGO    C216738   4.950   4.878   8.031  0.0010  0.2998 -0.0784
 1210ERGO   ROH16739   3.747  18.652   9.756 -0.1972 -0.2451 -0.0131
 1210ERGO    R116740   3.860  18.762   9.521 -0.2494 -0.0447  0.0540
 1210ERGO    R216741   3.937  18.606   9.306  0.0985  0.0939  0.0768
 1210ERGO    R316742   3.775  18.773   9.167 -0.0950 -0.1410  0.0115
 1210ERGO    R416743   3.931  18.634   8.962  0.2809  0.1567  0.0765
 1210ERGO    R516744   3.909  18.850   8.985 -0.0940  0.1261  0.1164
 1210ERGO    C116745   3.774  18.808   8.631  0.2055 -0.0272  0.0151
 1210ERGO    C216746   3.842  18.842   8.287  0.1665 -0.0893 -0.1077
 1211ERGO   ROH16747   6.451  11.135   6.355 -0.0900  0.1610  0.1619
 1211ERGO    R116748   6.540  11.258   6.594 -0.1306  0.1016  0.2083
 1211ERGO    R216749   6.413  11.221   6.837 -0.0977 -0.0602  0.2031
 1211ERGO    R316750   6.661  11.146   6.919 -0.0576  0.0193  0.1533
 1211ERGO    R416751   6.501  11.152   7.164  0.0957  0.3947  0.2536
 1211ERGO    R516752   6.690  11.256   7.130  0.0926  0.3206 -0.0157
 1211ERGO    C116753   6.785  11.042   7.432  0.2459  0.7344  0.2362
 1211ERGO    C216754   6.837  11.118   7.728  0.0940 -0.0181 -0.1544
 1212ERGO   ROH16755  10.839   1.644  10.138  0.2666 -0.1759  0.0646
 1212ERGO    R116756  10.821   1.762   9.882  0.0854 -0.0604  0.1309
 1212ERGO    R216757  11.031   1.760   9.702 -0.0595 -0.0058 -0.0208
 1212ERGO    R316758  10.846   1.649   9.537 -0.1916  0.0980  0.0515
 1212ERGO    R416759  11.058   1.744   9.358 -0.1325 -0.0881 -0.0246
 1212ERGO    R516760  10.846   1.791   9.344 -0.1181  0.0766  0.0196
 1212ERGO    C116761  10.900   1.631   9.002 -0.2990 -0.0385  0.0412
 1212ERGO    C216762  10.884   1.743   8.679 -0.2140  0.0348  0.1534
 1213ERGO   ROH16763  11.838   7.413   6.209  0.1152 -0.2030 -0.1544
 1213ERGO    R116764  11.995   7.328   6.428  0.0055 -0.1479 -0.0530
 1213ERGO    R216765  12.106   7.504   6.609  0.1147 -0.0846 -0.1805
 1213ERGO    R316766  11.976   7.349   6.791 -0.0454  0.1716 -0.0711
 1213ERGO    R416767  12.210   7.454   6.935  0.1535 -0.0819 -0.1929
 1213ERGO    R516768  12.153   7.244   6.915 -0.1445 -0.0175 -0.0836
 1213ERGO    C116769  12.149   7.279   7.295  0.0258  0.1601 -0.0974
 1213ERGO    C216770  12.189   7.148   7.656  0.1417  0.2206 -0.0683
 1214ERGO   ROH16771   5.580   9.982   9.809  0.1424 -0.0734  0.0590
 1214ERGO    R116772   5.551   9.881   9.546  0.2062 -0.0218  0.0333
 1214ERGO    R216773   5.386   9.999   9.358  0.1742 -0.0489  0.0552
 1214ERGO    R316774   5.613  10.001   9.208  0.1809  0.0825  0.0629
 1214ERGO    R416775   5.395   9.992   9.013  0.1768 -0.2058  0.0567
 1214ERGO    R516776   5.564   9.855   9.025  0.3066 -0.0559  0.1290
 1214ERGO    C116777   5.613   9.989   8.671  0.1847 -0.1738  0.0649
 1214ERGO    C216778   5.630  10.017   8.431 -0.1740  0.1180 -0.2201
 1215ERGO   ROH16779  17.961   0.212   5.246  0.0538 -0.0217 -0.0292
 1215ERGO    R116780  17.909   0.209   5.524  0.0422  0.0559 -0.0312
 1215ERGO    R216781  18.110   0.192   5.714  0.0279  0.0328 -0.0229
 1215ERGO    R316782  17.992   0.417   5.811  0.0968  0.0917 -0.0718
 1215ERGO    R416783  18.115   0.291   6.045 -0.0500  0.0346 -0.0209
 1215ERGO    R516784  17.908   0.352   6.025 -0.0163  0.1335 -0.1014
 1215ERGO    C116785  18.008   0.560   6.329 -0.0310  0.0910 -0.0657
 1215ERGO    C216786  17.996   0.820   6.622 -0.0745  0.0110  0.2750
 1216ERGO   ROH16787  17.533  10.948   9.001  0.0928  0.1430 -0.1228
 1216ERGO    R116788  17.587  10.959   8.723  0.2233 -0.0081 -0.1035
 1216ERGO    R216789  17.804  10.832   8.609  0.0536 -0.4098  0.0110
 1216ERGO    R316790  17.614  10.720   8.449 -0.0800 -0.1179 -0.0422
 1216ERGO    R416791  17.869  10.663   8.315 -0.1297 -0.5008  0.0195
 1216ERGO    R516792  17.694  10.760   8.226  0.0361 -0.2291 -0.0215
 1216ERGO    C116793  17.729  10.460   7.993 -0.3617 -0.2796 -0.0254
 1216ERGO    C216794  17.659  10.222   7.877 -0.2360 -0.2124 -0.0701
 1217ERGO   ROH16795   6.832  10.977   9.756  0.2086  0.1255 -0.1035
 1217ERGO    R116796   6.795  10.886   9.491 -0.0537  0.1389 -0.0747
 1217ERGO    R216797   6.636  11.018   9.309  0.1316  0.4115 -0.0475
 1217ERGO    R316798   6.860  11.013   9.156  0.0799 -0.0458 -0.1204
 1217ERGO    R416799   6.636  11.001   8.964 -0.0100  0.3541 -0.0450
 1217ERGO    R516800   6.804  10.862   8.977 -0.2690  0.0272 -0.0793
 1217ERGO    C116801   6.846  10.987   8.619 -0.1410 -0.1087 -0.1120
 1217ERGO    C216802   6.716  10.880   8.252  0.0734  0.2294 -0.0467
 1218ERGO   ROH16803  15.030  16.583   9.265  0.1138  0.3525 -0.0776
 1218ERGO    R116804  15.051  16.565   8.983  0.2061  0.0928 -0.0556
 1218ERGO    R216805  15.133  16.335   8.855 -0.2022 -0.1800  0.1628
 1218ERGO    R316806  14.899  16.365   8.719 -0.0854  0.1919  0.0304
 1218ERGO    R416807  15.078  16.229   8.530 -0.2245 -0.2398  0.1850
 1218ERGO    R516808  14.967  16.413   8.494  0.1297 -0.0389  0.0368
 1218ERGO    C116809  14.826  16.196   8.214 -0.1278  0.0743  0.0735
 1218ERGO    C216810  14.753  15.938   7.866  0.3726  0.0756  0.3771
 1219ERGO   ROH16811   6.143   6.624   9.940 -0.0092  0.0423  0.0730
 1219ERGO    R116812   6.297   6.478   9.753  0.0025 -0.0164  0.1286
 1219ERGO    R216813   6.184   6.308   9.566  0.0110 -0.0282  0.1378
 1219ERGO    R316814   6.325   6.460   9.390  0.0717 -0.0854  0.1365
 1219ERGO    R416815   6.180   6.266   9.223 -0.1074  0.0463  0.1293
 1219ERGO    R516816   6.395   6.304   9.221 -0.0780 -0.1008  0.0844
 1219ERGO    C116817   6.310   6.384   8.858 -0.1192  0.0360  0.1230
 1219ERGO    C216818   6.364   6.348   8.537  0.2595 -0.3187  0.0115
 1220ERGO   ROH16819   2.400   0.281   6.093  0.1932 -0.0227 -0.0620
 1220ERGO    R116820   2.322   0.381   6.346  0.1310 -0.1041 -0.0492
 1220ERGO    R216821   2.208   0.221   6.540  0.1720 -0.1855 -0.0956
 1220ERGO    R316822   2.411   0.319   6.693  0.1187 -0.1416 -0.0519
 1220ERGO    R416823   2.186   0.288   6.878  0.0762 -0.1831 -0.1019
 1220ERGO    R516824   2.303   0.469   6.845  0.0500 -0.1580 -0.0801
 1220ERGO    C116825   2.362   0.420   7.219 -0.0296 -0.1405 -0.0644
 1220ERGO    C216826   2.292   0.396   7.485 -0.1255 -0.2921  0.0007
 1221ERGO   ROH16827  11.415  16.122   9.913 -0.2231  0.0457  0.0465
 1221ERGO    R116828  11.373  16.240   9.660  0.2548  0.1328 -0.0002
 1221ERGO    R216829  11.563  16.233   9.459  0.3080 -0.5840  0.0531
 1221ERGO    R316830  11.359  16.127   9.314 -0.0425  0.0719  0.0289
 1221ERGO    R416831  11.553  16.218   9.114  0.4166 -0.7451  0.0553
 1221ERGO    R516832  11.341  16.270   9.123  0.5738  0.0489 -0.0661
 1221ERGO    C116833  11.356  16.111   8.777  0.1506 -0.2230  0.0337
 1221ERGO    C216834  11.438  16.064   8.372  0.1707 -0.1039  0.1033
 1222ERGO   ROH16835   5.329  16.000   9.860  0.1030  0.3048 -0.0691
 1222ERGO    R116836   5.404  15.942   9.593  0.1146  0.1604 -0.0350
 1222ERGO    R216837   5.333  15.708   9.465  0.1369  0.0832  0.0956
 1222ERGO    R316838   5.234  15.878   9.278  0.1287 -0.0313 -0.0057
 1222ERGO    R416839   5.338  15.650   9.125  0.3966  0.0046  0.1105
 1222ERGO    R516840   5.388  15.860   9.095  0.2612  0.0380  0.0955
 1222ERGO    C116841   5.249  15.776   8.750  0.5402 -0.1486  0.0240
 1222ERGO    C216842   5.313  15.828   8.447  0.0708  0.3066 -0.2108
 1223ERGO   ROH16843  16.210   6.906   9.261 -0.1360 -0.2382 -0.0205
 1223ERGO    R116844  16.231   6.911   8.978 -0.0235  0.0002 -0.0102
 1223ERGO    R216845  16.372   7.106   8.843  0.2272 -0.0120  0.2230
 1223ERGO    R316846  16.499   6.893   8.733  0.0555 -0.0431  0.0791
 1223ERGO    R416847  16.456   7.077   8.509  0.0573  0.0636  0.1716
 1223ERGO    R516848  16.397   6.867   8.517 -0.0575  0.0952  0.1162
 1223ERGO    C116849  16.625   6.859   8.211 -0.2029  0.0784  0.0067
 1223ERGO    C216850  16.722   6.862   7.890  0.0605 -0.1612  0.0234
 1224ERGO   ROH16851   7.759  17.595   6.277  0.0463 -0.1312 -0.0213
 1224ERGO    R116852   7.681  17.602   6.549 -0.0586 -0.0833 -0.0527
 1224ERGO    R216853   7.835  17.495   6.752 -0.1278 -0.0305  0.0269
 1224ERGO    R316854   7.812  17.744   6.858 -0.1887 -0.0113 -0.0293
 1224ERGO    R416855   7.854  17.569   7.089  0.0473  0.0750 -0.0041
 1224ERGO    R516856   7.691  17.711   7.062 -0.0440 -0.0161  0.0575
 1224ERGO    C116857   7.843  17.846   7.385  0.0921  0.1544 -0.0749
 1224ERGO    C216858   8.076  17.900   7.667 -0.0770 -0.1289 -0.0380
 1225ERGO   ROH16859   0.322  13.498   9.263  0.2089  0.1329  0.0328
 1225ERGO    R116860   0.292  13.376   9.009  0.4563  0.1426 -0.0030
 1225ERGO    R216861   0.057  13.391   8.863  0.4225 -0.2787  0.0009
 1225ERGO    R316862   0.223  13.485   8.669  0.2439  0.1076  0.0260
 1225ERGO    R416863   0.029  13.318   8.526  0.5437 -0.2245 -0.0218
 1225ERGO    R516864   0.246  13.302   8.516  0.5864  0.1917 -0.0362
 1225ERGO    C116865   0.169  13.364   8.148  0.4466  0.1697 -0.0114
 1225ERGO    C216866   0.288  13.468   7.828 -0.0260  0.1175  0.3579
 1226ERGO   ROH16867   1.701   3.867   5.803  0.1153  0.0446  0.0814
 1226ERGO    R116868   1.579   3.812   6.052 -0.1181 -0.0013 -0.0393
 1226ERGO    R216869   1.675   3.914   6.290 -0.0881 -0.3780  0.1176
 1226ERGO    R316870   1.420   4.005   6.317  0.0360  0.0050  0.0499
 1226ERGO    R416871   1.503   3.936   6.590 -0.2203 -0.3829  0.0421
 1226ERGO    R516872   1.325   3.865   6.487 -0.2822 -0.0066 -0.1290
 1226ERGO    C116873   1.165   4.034   6.789 -0.1808 -0.0262 -0.0654
 1226ERGO    C216874   1.010   4.275   7.084 -0.0271 -0.1483  0.0138
 1227ERGO   ROH16875  18.144  12.385   5.650  0.0292 -0.0213  0.1946
 1227ERGO    R116876  18.198  12.522   5.892 -0.0063  0.0170  0.1820
 1227ERGO    R216877  18.129  12.787   5.932 -0.0327  0.0215  0.1393
 1227ERGO    R316878  18.004  12.686   6.152 -0.0485  0.0367  0.1362
 1227ERGO    R416879  18.016  12.975   6.199  0.1836  0.0031  0.2449
 1227ERGO    R516880  18.087  12.819   6.333  0.0998 -0.0980  0.1641
 1227ERGO    C116881  17.833  12.990   6.561  0.2948  0.0066  0.3035
 1227ERGO    C216882  17.855  13.067   6.917  0.0264  0.0804 -0.0668
 1228ERGO   ROH16883   8.538   9.509   6.480  0.0817  0.0776  0.0773
 1228ERGO    R116884   8.454   9.485   6.749  0.0091  0.0937  0.0564
 1228ERGO    R216885   8.395   9.704   6.906  0.0028  0.1055  0.0397
 1228ERGO    R316886   8.159   9.575   6.942 -0.0267  0.1425 -0.0206
 1228ERGO    R416887   8.191   9.738   7.184  0.0937 -0.1068  0.1343
 1228ERGO    R516888   8.154   9.523   7.176  0.0256 -0.0891 -0.0686
 1228ERGO    C116889   7.851   9.636   7.379  0.1190 -0.1955  0.1328
 1228ERGO    C216890   7.531   9.629   7.529 -0.0696 -0.3074  0.2386
 1229ERGO   ROH16891  15.598  16.229   5.592 -0.2326  0.1691  0.1355
 1229ERGO    R116892  15.692  16.284   5.853  0.0401  0.1119  0.0526
 1229ERGO    R216893  15.953  16.354   5.906  0.0878  0.1343 -0.2090
 1229ERGO    R316894  15.838  16.568   6.027  0.1867  0.0856 -0.0257
 1229ERGO    R416895  16.082  16.517   6.183  0.1611 -0.1661 -0.0623
 1229ERGO    R516896  15.879  16.533   6.261  0.1658 -0.1376 -0.0531
 1229ERGO    C116897  16.048  16.812   6.458  0.2966 -0.3868  0.1951
 1229ERGO    C216898  16.350  17.086   6.345  0.2010 -0.2008 -0.0983
 1230ERGO   ROH16899  13.530   0.323   9.459  0.1265  0.0284 -0.1074
 1230ERGO    R116900  13.477   0.444   9.208 -0.0529  0.0392 -0.0656
 1230ERGO    R216901  13.648   0.421   8.993 -0.0940  0.2371 -0.1231
 1230ERGO    R316902  13.425   0.332   8.866 -0.0545  0.0691 -0.0742
 1230ERGO    R416903  13.596   0.434   8.651 -0.2236  0.2917 -0.1019
 1230ERGO    R516904  13.389   0.490   8.690 -0.2618  0.0885 -0.0153
 1230ERGO    C116905  13.356   0.358   8.334 -0.2621  0.1657 -0.0438
 1230ERGO    C216906  13.314   0.404   8.002  0.1248  0.1891 -0.1209
 1231ERGO   ROH16907   1.083   6.412   9.592 -0.1390 -0.1039  0.0126
 1231ERGO    R116908   1.002   6.457   9.324 -0.1150 -0.0835  0.0083
 1231ERGO    R216909   1.013   6.706   9.205 -0.0979 -0.0745  0.0251
 1231ERGO    R316910   1.158   6.574   9.017 -0.0849 -0.0668  0.0303
 1231ERGO    R416911   1.013   6.781   8.867  0.1312  0.1091  0.0633
 1231ERGO    R516912   1.014   6.567   8.825  0.0124  0.1314 -0.0517
 1231ERGO    C116913   1.149   6.700   8.494  0.2769  0.2231  0.0905
 1231ERGO    C216914   1.144   6.667   8.129  0.0106  0.3497  0.5718
 1232ERGO   ROH16915  14.163   7.277   6.058  0.0922  0.1603  0.1182
 1232ERGO    R116916  13.937   7.278   6.229  0.0916  0.2804  0.1169
 1232ERGO    R216917  13.851   7.051   6.361 -0.1980  0.2574 -0.1087
 1232ERGO    R316918  13.872   7.210   6.581  0.0058  0.0150  0.0531
 1232ERGO    R416919  13.708   6.984   6.669 -0.3525  0.1611 -0.1993
 1232ERGO    R516920  13.658   7.195   6.687 -0.0411  0.2283 -0.0019
 1232ERGO    C116921  13.646   7.093   7.054 -0.2509 -0.1227 -0.1001
 1232ERGO    C216922  13.548   7.344   7.367  0.1855  0.2000 -0.1455
 1233ERGO   ROH16923  14.182   4.705   9.624 -0.1827  0.0086 -0.0515
 1233ERGO    R116924  14.173   4.721   9.341 -0.1424 -0.0131 -0.0531
 1233ERGO    R216925  14.385   4.647   9.181 -0.0957  0.0501 -0.0154
 1233ERGO    R316926  14.199   4.489   9.062 -0.0185 -0.0180 -0.0366
 1233ERGO    R416927  14.333   4.629   8.840 -0.0988  0.0897 -0.0179
 1233ERGO    R516928  14.118   4.622   8.879 -0.0911 -0.0248 -0.0093
 1233ERGO    C116929  14.127   4.470   8.529 -0.0281  0.0489 -0.0392
 1233ERGO    C216930  14.127   4.557   8.264  0.2876  0.2266 -0.2991
 1234ERGO   ROH16931   1.158  14.104   6.027 -0.0008 -0.1794 -0.0315
 1234ERGO    R116932   1.305  14.098   6.268  0.0620 -0.0923 -0.0660
 1234ERGO    R216933   1.367  14.327   6.410  0.1245 -0.0341 -0.1755
 1234ERGO    R316934   1.247  14.194   6.615  0.1587  0.0620 -0.0934
 1234ERGO    R416935   1.424  14.389   6.746  0.0147  0.2576 -0.2079
 1234ERGO    R516936   1.419  14.174   6.781  0.1292  0.2875 -0.0383
 1234ERGO    C116937   1.345  14.299   7.133 -0.0170  0.5176 -0.1498
 1234ERGO    C216938   1.303  14.316   7.551  0.0078 -0.1928 -0.0962
 1235ERGO   ROH16939  14.294  15.493   5.725 -0.0222  0.0750 -0.0328
 1235ERGO    R116940  14.279  15.587   5.991  0.0670 -0.1822  0.0669
 1235ERGO    R216941  14.070  15.746   6.081  0.3653  0.1832  0.1391
 1235ERGO    R316942  14.049  15.552   6.271 -0.1452  0.0078 -0.0808
 1235ERGO    R416943  13.946  15.793   6.400  0.4891  0.1502  0.1933
 1235ERGO    R516944  14.102  15.663   6.476  0.1550 -0.3610  0.0509
 1235ERGO    C116945  13.852  15.639   6.763  0.0820 -0.0338  0.0184
 1235ERGO    C216946  13.653  15.764   7.066 -0.0612 -0.1687  0.1805
 1236ERGO   ROH16947  15.618  14.414   9.070  0.0549  0.4252  0.0374
 1236ERGO    R116948  15.581  14.643   8.907  0.0785  0.3658 -0.0523
 1236ERGO    R216949  15.783  14.749   8.751  0.0910  0.2871 -0.0898
 1236ERGO    R316950  15.600  14.721   8.552  0.0922  0.2265 -0.0827
 1236ERGO    R416951  15.850  14.784   8.414  0.1393 -0.0174 -0.1147
 1236ERGO    R516952  15.660  14.888   8.391  0.1958  0.0680 -0.2124
 1236ERGO    C116953  15.718  14.778   8.031  0.1683 -0.2516 -0.1226
 1236ERGO    C216954  15.786  14.879   7.745 -0.2143  0.0709  0.2172
 1237ERGO   ROH16955   1.375   2.862   9.585  0.0766  0.0273  0.0022
 1237ERGO    R116956   1.259   2.853   9.326 -0.0031  0.0236  0.0376
 1237ERGO    R216957   1.324   3.033   9.127  0.0010 -0.0319 -0.0124
 1237ERGO    R316958   1.377   2.808   8.985 -0.1188 -0.0749  0.0100
 1237ERGO    R416959   1.343   3.017   8.783  0.1634 -0.0397 -0.0041
 1237ERGO    R516960   1.238   2.826   8.791 -0.0049  0.0487 -0.0610
 1237ERGO    C116961   1.403   2.796   8.448  0.1456 -0.0846  0.0218
 1237ERGO    C216962   1.547   2.900   8.278 -0.1734  0.0641 -0.1336
 1238ERGO   ROH16963  11.239   5.512   9.924 -0.0341  0.1432 -0.0549
 1238ERGO    R116964  11.233   5.397   9.666  0.2983  0.1958 -0.0907
 1238ERGO    R216965  11.006   5.398   9.508  0.2862 -0.3885 -0.0989
 1238ERGO    R316966  11.172   5.513   9.326 -0.0133  0.1392 -0.0565
 1238ERGO    R416967  10.957   5.395   9.166  0.2581 -0.3158 -0.0957
 1238ERGO    R516968  11.171   5.363   9.140  0.3489  0.2349 -0.1413
 1238ERGO    C116969  11.085   5.503   8.796 -0.0393  0.2219 -0.0540
 1238ERGO    C216970  11.057   5.512   8.404 -0.1541 -0.0983 -0.3167
 1239ERGO   ROH16971  13.233   1.414   5.702 -0.1392 -0.0187 -0.0872
 1239ERGO    R116972  13.202   1.363   5.979 -0.0040 -0.1667 -0.0990
 1239ERGO    R216973  13.397   1.239   6.131  0.2325  0.1060 -0.1842
 1239ERGO    R316974  13.372   1.461   6.286 -0.1071  0.0119 -0.0946
 1239ERGO    R416975  13.465   1.252   6.469  0.0363  0.0184 -0.1387
 1239ERGO    R516976  13.290   1.378   6.495 -0.1313 -0.1888 -0.1740
 1239ERGO    C116977  13.481   1.468   6.812 -0.3967 -0.1209 -0.0280
 1239ERGO    C216978  13.481   1.501   7.103 -0.3425 -0.0475 -0.2205
 1240ERGO   ROH16979  10.538  18.254  10.006 -0.1899 -0.0618  0.1178
 1240ERGO    R116980  10.525  18.407   9.768 -0.1455 -0.1047  0.0889
 1240ERGO    R216981  10.655  18.332   9.535 -0.0857 -0.1351  0.1361
 1240ERGO    R316982  10.406  18.357   9.428 -0.0616 -0.1713  0.0683
 1240ERGO    R416983  10.589  18.396   9.202  0.0008  0.0201  0.1472
 1240ERGO    R516984  10.429  18.531   9.265 -0.0721 -0.0722  0.1688
 1240ERGO    C116985  10.318  18.458   8.908  0.0736  0.0766  0.0901
 1240ERGO    C216986  10.382  18.395   8.571 -0.1978 -0.0221 -0.0044
 1241ERGO   ROH16987   1.207   3.023   5.955 -0.0832 -0.2008 -0.1507
 1241ERGO    R116988   1.287   2.925   6.208  0.1966 -0.1718 -0.2251
 1241ERGO    R216989   1.107   2.869   6.410  0.4357  0.1069  0.0738
 1241ERGO    R316990   1.229   2.626   6.407  0.1778 -0.0254 -0.0048
 1241ERGO    R416991   1.125   2.653   6.679  0.2877  0.0472  0.0371
 1241ERGO    R516992   1.330   2.607   6.623  0.2271 -0.1636 -0.0361
 1241ERGO    C116993   1.250   2.299   6.833 -0.0406 -0.1118 -0.0580
 1241ERGO    C216994   0.974   2.124   7.042 -0.5328 -0.0308 -0.0780
 1242ERGO   ROH16995   7.040   5.275   6.715  0.2190  0.2299  0.1991
 1242ERGO    R116996   6.860   5.112   6.860  0.0960  0.2311  0.0521
 1242ERGO    R216997   6.933   4.869   6.970 -0.0787  0.0760 -0.1468
 1242ERGO    R316998   6.836   4.980   7.198 -0.0066 -0.0398 -0.0604
 1242ERGO    R416999   6.837   4.692   7.251 -0.0660 -0.0603 -0.2289
 1242ERGO    R517000   6.667   4.827   7.272 -0.0247 -0.0374 -0.1142
 1242ERGO    C117001   6.689   4.693   7.628  0.0090 -0.2485 -0.1956
 1242ERGO    C217002   6.565   4.635   7.831 -0.0034  0.1786 -0.0593
 1243ERGO   ROH17003  16.687   0.875   5.593 -0.1813  0.0660 -0.0018
 1243ERGO    R117004  16.615   0.785   5.852 -0.0973  0.0845  0.0293
 1243ERGO    R217005  16.643   0.523   5.932 -0.2602  0.0435 -0.0270
 1243ERGO    R317006  16.785   0.634   6.136 -0.0435 -0.0962 -0.0991
 1243ERGO    R417007  16.617   0.430   6.264 -0.2090  0.1041 -0.0068
 1243ERGO    R517008  16.630   0.641   6.318  0.0501  0.0922 -0.0289
 1243ERGO    C117009  16.734   0.480   6.648  0.0243  0.0083 -0.0628
 1243ERGO    C217010  16.655   0.445   6.882 -0.0180  0.3390 -0.1384
 1244ERGO   ROH17011   3.861  10.549   5.793  0.1144  0.1345 -0.1257
 1244ERGO    R117012   4.023  10.558   6.025 -0.0071 -0.1729 -0.0245
 1244ERGO    R217013   4.013  10.766   6.205  0.2354 -0.1772 -0.0046
 1244ERGO    R317014   3.969  10.567   6.385 -0.2119 -0.1349 -0.0547
 1244ERGO    R417015   3.967  10.813   6.544  0.4316 -0.1613  0.0212
 1244ERGO    R517016   4.089  10.636   6.580  0.0134 -0.4827 -0.0612
 1244ERGO    C117017   3.899  10.653   6.911  0.1258 -0.1123 -0.0110
 1244ERGO    C217018   3.834  10.551   7.271  0.2592 -0.1910  0.2407
 1245ERGO   ROH17019   8.980  18.851   6.540  0.2455 -0.1210  0.0540
 1245ERGO    R117020   8.859  18.871   6.795  0.0766 -0.0924 -0.0267
 1245ERGO    R217021   8.697  18.672   6.899  0.1349 -0.1547 -0.0427
 1245ERGO    R317022   8.870  18.687   7.108  0.0042  0.0407  0.0535
 1245ERGO    R417023   8.633  18.556   7.218  0.0822 -0.1853 -0.0650
 1245ERGO    R517024   8.732  18.732   7.298 -0.1421 -0.0810 -0.0270
 1245ERGO    C117025   8.759  18.502   7.600 -0.0711 -0.0201  0.0125
 1245ERGO    C217026   8.699  18.471   7.861  0.0820  0.0058 -0.0062
 1246ERGO   ROH17027   8.475   7.745   6.487 -0.1332 -0.1156  0.1539
 1246ERGO    R117028   8.538   7.556   6.689 -0.0655 -0.1631  0.0891
 1246ERGO    R217029   8.794   7.521   6.786 -0.0364 -0.1711  0.0111
 1246ERGO    R317030   8.674   7.565   7.026  0.0258 -0.2403  0.0547
 1246ERGO    R417031   8.951   7.497   7.093  0.0681 -0.1712 -0.0420
 1246ERGO    R517032   8.771   7.402   7.172  0.1191 -0.2342  0.0007
 1246ERGO    C117033   8.929   7.523   7.497  0.1873 -0.2362 -0.0318
 1246ERGO    C217034   9.145   7.472   7.693  0.3371  0.1528 -0.0078
 1247ERGO   ROH17035   7.815   5.403  10.208  0.1779 -0.1475  0.0057
 1247ERGO    R117036   7.807   5.456   9.930  0.1592 -0.0055  0.0328
 1247ERGO    R217037   8.007   5.375   9.757  0.0225 -0.1456 -0.0600
 1247ERGO    R317038   7.800   5.261   9.623 -0.1438  0.1470 -0.0622
 1247ERGO    R417039   7.992   5.337   9.414  0.0379 -0.2336 -0.0509
 1247ERGO    R517040   7.780   5.391   9.422  0.1154  0.1200 -0.1113
 1247ERGO    C117041   7.789   5.207   9.088 -0.1092 -0.0102 -0.0477
 1247ERGO    C217042   7.893   5.145   8.661 -0.1068 -0.3627  0.0733
 1248ERGO   ROH17043   8.438   6.295  10.221 -0.2748 -0.0444 -0.0081
 1248ERGO    R117044   8.530   6.450  10.003 -0.0792 -0.0566  0.0648
 1248ERGO    R217045   8.697   6.348   9.808 -0.2035 -0.1752  0.0217
 1248ERGO    R317046   8.503   6.439   9.640 -0.0905  0.1450  0.0575
 1248ERGO    R417047   8.741   6.414   9.471 -0.1317 -0.1631  0.0332
 1248ERGO    R517048   8.617   6.591   9.495  0.1229  0.0173  0.0833
 1248ERGO    C117049   8.584   6.538   9.118  0.0162  0.1447  0.0734
 1248ERGO    C217050   8.466   6.501   8.837  0.2288 -0.4351  0.2227
 1249ERGO   ROH17051   5.860   8.173   5.754  0.1383 -0.1149  0.1028
 1249ERGO    R117052   5.726   8.099   5.992  0.1069 -0.0768  0.0970
 1249ERGO    R217053   5.846   8.109   6.241  0.0832 -0.0663  0.1064
 1249ERGO    R317054   5.630   8.261   6.304  0.0942 -0.0368  0.0731
 1249ERGO    R417055   5.744   8.184   6.562  0.0715 -0.0220  0.0924
 1249ERGO    R517056   5.538   8.156   6.498  0.0709 -0.0084  0.0797
 1249ERGO    C117057   5.481   8.370   6.808  0.0750  0.0315  0.0530
 1249ERGO    C217058   5.479   8.378   7.075 -0.2893  0.0325 -0.0469
 1250ERGO   ROH17059   7.740  13.077   6.409 -0.1902  0.2386  0.0036
 1250ERGO    R117060   7.605  13.151   6.646 -0.1147  0.1438  0.0764
 1250ERGO    R217061   7.516  12.965   6.831 -0.0347  0.0719  0.0418
 1250ERGO    R317062   7.661  13.115   7.004  0.0114  0.0234  0.0457
 1250ERGO    R417063   7.479  12.961   7.174  0.0984 -0.0716  0.0556
 1250ERGO    R517064   7.505  13.177   7.175  0.0674 -0.0669  0.1318
 1250ERGO    C117065   7.594  13.100   7.537  0.2192 -0.2006  0.0674
 1250ERGO    C217066   7.454  12.945   7.795  0.2315 -0.1644 -0.0208
 1251ERGO   ROH17067   2.251   2.296   9.788  0.1622 -0.1871 -0.1588
 1251ERGO    R117068   2.213   2.289   9.508  0.0101  0.0087 -0.1455
 1251ERGO    R217069   2.094   2.496   9.368  0.0580  0.1666  0.0460
 1251ERGO    R317070   2.323   2.486   9.221 -0.0247  0.1220 -0.0821
 1251ERGO    R417071   2.107   2.491   9.023 -0.1349  0.2689  0.0357
 1251ERGO    R517072   2.268   2.344   9.036 -0.1833  0.1999 -0.0978
 1251ERGO    C117073   2.329   2.479   8.684 -0.3247  0.2866 -0.0905
 1251ERGO    C217074   2.442   2.442   8.344  0.1224  0.0271 -0.1650
 1252ERGO   ROH17075  16.201  17.953   5.830  0.2640 -0.0153 -0.1228
 1252ERGO    R117076  16.267  18.037   6.092  0.2006  0.0284 -0.1205
 1252ERGO    R217077  16.118  17.964   6.314  0.0931  0.1414 -0.1537
 1252ERGO    R317078  16.358  17.876   6.406  0.0281  0.0754 -0.0450
 1252ERGO    R417079  16.180  17.856   6.637 -0.0541  0.2369 -0.0927
 1252ERGO    R517080  16.371  17.960   6.629 -0.0087  0.1548 -0.0721
 1252ERGO    C117081  16.442  17.712   6.910 -0.2009  0.2305  0.0449
 1252ERGO    C217082  16.605  17.563   7.245  0.0379 -0.0737 -0.1690
 1253ERGO   ROH17083   1.927   7.836   5.968 -0.2272  0.0647 -0.3325
 1253ERGO    R117084   1.880   7.971   6.212 -0.1437 -0.0681 -0.2416
 1253ERGO    R217085   1.731   8.205   6.226 -0.0177  0.0011 -0.0837
 1253ERGO    R317086   1.589   8.064   6.409 -0.0855 -0.0404 -0.1669
 1253ERGO    R417087   1.517   8.342   6.460 -0.0300 -0.0385 -0.0712
 1253ERGO    R517088   1.592   8.200   6.606 -0.0896 -0.1161 -0.1115
 1253ERGO    C117089   1.259   8.289   6.768 -0.1010 -0.1005 -0.1421
 1253ERGO    C217090   1.005   8.483   6.786 -0.0477  0.2270 -0.1281
 1254ERGO   ROH17091  15.775  12.989   5.827  0.1029 -0.0268  0.1025
 1254ERGO    R117092  15.908  12.806   5.998  0.1060 -0.0191  0.1084
 1254ERGO    R217093  16.024  12.883   6.237  0.0653 -0.0179  0.1270
 1254ERGO    R317094  15.867  12.687   6.339  0.0800 -0.0453  0.0967
 1254ERGO    R417095  16.081  12.722   6.537 -0.0019  0.0481  0.1755
 1254ERGO    R517096  16.022  12.535   6.442  0.0862  0.0145  0.1804
 1254ERGO    C117097  15.967  12.443   6.808 -0.0272  0.0609  0.1753
 1254ERGO    C217098  15.739  12.502   7.027  0.1779 -0.1906 -0.0029
 1255ERGO   ROH17099   1.696   1.181   9.293  0.1856  0.1357 -0.0586
 1255ERGO    R117100   1.622   1.109   9.030  0.0869  0.1277 -0.0295
 1255ERGO    R217101   1.549   1.295   8.840  0.0503  0.1258 -0.0199
 1255ERGO    R317102   1.744   1.174   8.693 -0.0151  0.0866 -0.0746
 1255ERGO    R417103   1.580   1.317   8.496  0.0034  0.1806 -0.0204
 1255ERGO    R517104   1.633   1.105   8.493 -0.0703  0.1637 -0.0700
 1255ERGO    C117105   1.781   1.216   8.159 -0.0853  0.1758 -0.0720
 1255ERGO    C217106   1.814   1.181   7.862 -0.2239 -0.2208  0.2677
 1256ERGO   ROH17107  11.916   6.659  10.038 -0.1139 -0.0828  0.0559
 1256ERGO    R117108  11.806   6.767   9.801  0.0420  0.0465  0.0393
 1256ERGO    R217109  11.962   6.888   9.606  0.2368 -0.2705 -0.0180
 1256ERGO    R317110  11.840   6.708   9.443 -0.0988 -0.1145  0.0528
 1256ERGO    R417111  11.936   6.918   9.263  0.1967 -0.3140 -0.0176
 1256ERGO    R517112  11.733   6.841   9.276  0.0750  0.0190  0.0501
 1256ERGO    C117113  11.807   6.766   8.910 -0.1417 -0.1930  0.0490
 1256ERGO    C217114  11.756   6.903   8.495  0.1000 -0.0282  0.0248
 1257ERGO   ROH17115  13.159   4.978   9.480 -0.0085 -0.0865  0.0578
 1257ERGO    R117116  13.219   4.875   9.224 -0.0064 -0.1078  0.0672
 1257ERGO    R217117  13.026   4.762   9.060 -0.0387  0.0448  0.0019
 1257ERGO    R317118  13.119   4.944   8.881  0.1459 -0.0069  0.0417
 1257ERGO    R417119  13.002   4.731   8.717 -0.0696  0.1391 -0.0051
 1257ERGO    R517120  13.204   4.812   8.700  0.0156 -0.0576  0.0141
 1257ERGO    C117121  13.075   4.884   8.348  0.0857  0.1454  0.0281
 1257ERGO    C217122  13.020   4.933   8.120  0.0888 -0.0488  0.0277
 1258ERGO   ROH17123   5.229   5.315   5.777  0.1084  0.1824  0.0403
 1258ERGO    R117124   5.218   5.399   6.047  0.1038  0.1695  0.0448
 1258ERGO    R217125   5.013   5.558   6.145  0.1170  0.1919  0.0430
 1258ERGO    R317126   4.990   5.358   6.328  0.0816  0.1834  0.0282
 1258ERGO    R417127   4.906   5.599   6.471  0.3132  0.2178  0.1050
 1258ERGO    R517128   5.058   5.457   6.534  0.2535  0.1105  0.0061
 1258ERGO    C117129   4.821   5.434   6.832  0.3943  0.2250  0.1271
 1258ERGO    C217130   4.663   5.275   7.073  0.2071  0.0381  0.2356
 1259ERGO   ROH17131  15.621   7.827   8.849 -0.1340  0.0216 -0.0287
 1259ERGO    R117132  15.607   7.846   8.567 -0.0041 -0.0990 -0.0451
 1259ERGO    R217133  15.773   7.703   8.399 -0.0426 -0.3043  0.0879
 1259ERGO    R317134  15.538   7.622   8.290 -0.0606 -0.1780  0.0325
 1259ERGO    R417135  15.743   7.540   8.096 -0.0831 -0.0401 -0.0523
 1259ERGO    R517136  15.566   7.660   8.055 -0.0698  0.0207  0.0624
 1259ERGO    C117137  15.504   7.369   7.816 -0.1236  0.2324 -0.1860
 1259ERGO    C217138  15.528   7.273   7.489  0.0155 -0.2433 -0.3251
 1260ERGO   ROH17139   0.595  17.992   9.117  0.2421  0.0992  0.1151
 1260ERGO    R117140   0.613  17.886   8.855  0.2719  0.1513  0.0964
 1260ERGO    R217141   0.427  17.944   8.659  0.1112 -0.0680  0.1824
 1260ERGO    R317142   0.647  18.019   8.518 -0.0426  0.2384  0.0945
 1260ERGO    R417143   0.468  17.900   8.319  0.0749 -0.1032  0.1818
 1260ERGO    R517144   0.676  17.845   8.356  0.1791  0.2304  0.1367
 1260ERGO    C117145   0.699  17.945   7.988 -0.0907  0.1640  0.0991
 1260ERGO    C217146   0.534  17.737   7.698  0.1101 -0.0602  0.0305
 1261ERGO   ROH17147   1.391  16.804   7.090 -0.0305 -0.0093 -0.2218
 1261ERGO    R117148   1.401  17.039   7.248 -0.1057  0.0125 -0.2501
 1261ERGO    R217149   1.566  17.064   7.468 -0.3175 -0.0125 -0.0877
 1261ERGO    R317150   1.651  17.287   7.338 -0.1059 -0.0611 -0.0380
 1261ERGO    R417151   1.798  17.288   7.592 -0.3674 -0.0746  0.1227
 1261ERGO    R517152   1.676  17.451   7.511 -0.2319 -0.0431 -0.0322
 1261ERGO    C117153   2.012  17.629   7.542 -0.1978 -0.1563  0.2919
 1261ERGO    C217154   2.260  17.793   7.450  0.1756  0.0818 -0.0213
 1262ERGO   ROH17155   2.796  13.634   9.593  0.0413 -0.1741 -0.0541
 1262ERGO    R117156   2.883  13.756   9.353 -0.0414 -0.0774 -0.0350
 1262ERGO    R217157   3.046  13.627   9.171 -0.0233  0.0323 -0.0939
 1262ERGO    R317158   2.848  13.692   8.997 -0.0731  0.0069 -0.0480
 1262ERGO    R417159   3.073  13.614   8.827 -0.1259 -0.0452 -0.0998
 1262ERGO    R517160   2.961  13.800   8.815 -0.1188 -0.0386 -0.1061
 1262ERGO    C117161   2.903  13.667   8.463 -0.2324 -0.1141 -0.0601
 1262ERGO    C217162   3.057  13.714   8.149 -0.3784 -0.1406 -0.1240
 1263ERGO   ROH17163  18.601  15.421   5.497 -0.1474 -0.2784 -0.0849
 1263ERGO    R117164  18.605  15.473   5.775 -0.0762 -0.1648 -0.1060
 1263ERGO    R217165  18.433  15.349   5.952 -0.1124 -0.0058 -0.0243
 1263ERGO    R317166  18.664  15.281   6.079 -0.1242 -0.0705 -0.0376
 1263ERGO    R417167  18.456  15.258   6.285 -0.0998  0.0874  0.0000
 1263ERGO    R517168  18.640  15.375   6.298 -0.0468  0.0073 -0.0639
 1263ERGO    C117169  18.687  15.143   6.598 -0.1033  0.0809  0.0018
 1263ERGO    C217170  18.884  15.053   6.964 -0.4491  0.1912 -0.0087
 1264ERGO   ROH17171  17.404  10.677   5.548 -0.0422 -0.0333 -0.1224
 1264ERGO    R117172  17.449  10.766   5.812 -0.0124 -0.1059 -0.1032
 1264ERGO    R217173  17.339  10.640   6.032  0.0490 -0.1929 -0.1227
 1264ERGO    R317174  17.598  10.630   6.115  0.0655 -0.1710 -0.1703
 1264ERGO    R417175  17.441  10.562   6.353  0.1124 -0.1109 -0.1222
 1264ERGO    R517176  17.593  10.717   6.338  0.1090 -0.1143 -0.1914
 1264ERGO    C117177  17.743  10.506   6.618  0.1647 -0.0427 -0.1666
 1264ERGO    C217178  18.008  10.500   6.908 -0.1165  0.1020 -0.2702
 1265ERGO   ROH17179  14.854   6.517   5.987 -0.0042 -0.0665 -0.1181
 1265ERGO    R117180  14.921   6.291   6.145  0.0793 -0.0159 -0.0796
 1265ERGO    R217181  14.971   6.042   6.035  0.0620 -0.0426 -0.0290
 1265ERGO    R317182  15.203   6.063   6.175  0.1141  0.0210 -0.1244
 1265ERGO    R417183  15.200   5.787   6.075 -0.0600 -0.1145  0.2339
 1265ERGO    R517184  15.227   5.850   6.282  0.0333  0.1444  0.1477
 1265ERGO    C117185  15.552   5.658   6.229 -0.0822 -0.0965  0.2974
 1265ERGO    C217186  15.779   5.396   6.248  0.2482  0.0351  0.0494
 1266ERGO   ROH17187   5.063   7.193   9.726  0.3144 -0.0468  0.0516
 1266ERGO    R117188   5.079   7.071   9.471 -0.0479 -0.0786  0.0374
 1266ERGO    R217189   4.949   7.172   9.249 -0.0762  0.1035  0.1269
 1266ERGO    R317190   5.198   7.164   9.140 -0.1594 -0.2492 -0.0500
 1266ERGO    R417191   5.018   7.199   8.912 -0.2517  0.2467  0.1021
 1266ERGO    R517192   5.169   7.044   8.935 -0.5062 -0.0382 -0.1263
 1266ERGO    C117193   5.291   7.208   8.613 -0.4321 -0.0011 -0.0785
 1266ERGO    C217194   5.266   7.231   8.345 -0.0367 -0.0206 -0.2645
 1267ERGO   ROH17195  18.008  17.219   5.603 -0.0849  0.0144 -0.1313
 1267ERGO    R117196  17.956  17.155   5.873  0.0852  0.2069 -0.0519
 1267ERGO    R217197  17.968  16.896   5.969 -0.2500  0.2258  0.0293
 1267ERGO    R317198  18.141  17.004   6.149  0.1213  0.0049 -0.1807
 1267ERGO    R417199  18.079  16.736   6.255 -0.3517  0.1703  0.0390
 1267ERGO    R517200  18.060  16.926   6.362  0.1165  0.2980 -0.0616
 1267ERGO    C117201  18.306  16.744   6.590 -0.0623 -0.0692 -0.1525
 1267ERGO    C217202  18.293  16.696   6.957  0.0682  0.1169  0.0061
 1268ERGO   ROH17203   7.071  12.189   6.086  0.2296 -0.1230  0.2803
 1268ERGO    R117204   6.993  12.368   6.292  0.0315  0.0710  0.0417
 1268ERGO    R217205   6.805  12.567   6.252 -0.1126 -0.1227 -0.2587
 1268ERGO    R317206   6.685  12.450   6.466 -0.0841  0.0483 -0.1462
 1268ERGO    R417207   6.594  12.729   6.473 -0.2524  0.0128 -0.4871
 1268ERGO    R517208   6.688  12.619   6.636 -0.2152  0.2524 -0.3372
 1268ERGO    C117209   6.358  12.714   6.802 -0.3069  0.2522 -0.5146
 1268ERGO    C217210   6.139  12.911   7.053 -0.0986 -0.2548  0.0297
 1269ERGO   ROH17211  12.515  14.740   9.660 -0.0774  0.0601  0.2360
 1269ERGO    R117212  12.450  14.535   9.476  0.0922  0.0700  0.1665
 1269ERGO    R217213  12.215  14.534   9.331  0.0842 -0.0896  0.1982
 1269ERGO    R317214  12.384  14.511   9.119  0.0759  0.1370  0.1616
 1269ERGO    R417215  12.117  14.503   9.001  0.0266 -0.3590  0.2362
 1269ERGO    R517216  12.276  14.357   8.972  0.2842 -0.1076  0.2408
 1269ERGO    C117217  12.219  14.464   8.610 -0.0148 -0.3031  0.2240
 1269ERGO    C217218  12.185  14.370   8.352 -0.0875  0.0750  0.0322
 1270ERGO   ROH17219  13.515  17.371   9.265 -0.0182  0.1145 -0.1031
 1270ERGO    R117220  13.550  17.469   9.002 -0.1826  0.2695 -0.0686
 1270ERGO    R217221  13.643  17.311   8.795  0.0902  0.4985 -0.1241
 1270ERGO    R317222  13.415  17.393   8.672 -0.0554  0.1563 -0.0964
 1270ERGO    R417223  13.585  17.292   8.455  0.1345  0.5213 -0.1331
 1270ERGO    R517224  13.490  17.489   8.465 -0.2066  0.3651 -0.0614
 1270ERGO    C117225  13.337  17.359   8.141  0.0236  0.2134 -0.1124
 1270ERGO    C217226  13.302  17.402   7.841 -0.2475  0.0248  0.0489
 1271ERGO   ROH17227   2.952   6.887   6.294  0.1170  0.1582 -0.0193
 1271ERGO    R117228   2.734   7.007   6.429  0.0455 -0.0159  0.0233
 1271ERGO    R217229   2.636   6.911   6.669  0.1679 -0.0957  0.0432
 1271ERGO    R317230   2.678   7.166   6.752 -0.0194 -0.0613  0.0345
 1271ERGO    R417231   2.569   7.029   6.987  0.1377 -0.1511  0.0570
 1271ERGO    R517232   2.494   7.212   6.897 -0.0281 -0.2100  0.0723
 1271ERGO    C117233   2.569   7.337   7.249 -0.0557 -0.1511  0.0569
 1271ERGO    C217234   2.725   7.348   7.497  0.0242  0.0294 -0.0691
 1272ERGO   ROH17235  15.443  12.470   9.300 -0.1702 -0.2259  0.1168
 1272ERGO    R117236  15.425  12.504   9.019 -0.1463 -0.0772  0.1308
 1272ERGO    R217237  15.634  12.444   8.848 -0.1245  0.0176  0.1114
 1272ERGO    R317238  15.447  12.290   8.726 -0.1130  0.0758  0.0230
 1272ERGO    R417239  15.650  12.335   8.520  0.0324 -0.0710  0.1486
 1272ERGO    R517240  15.436  12.374   8.502  0.0685  0.0208 -0.0012
 1272ERGO    C117241  15.483  12.127   8.215  0.1346 -0.0679  0.0872
 1272ERGO    C217242  15.341  12.188   7.890  0.0687 -0.2173  0.3931
 1273ERGO   ROH17243   7.149  17.066   6.091 -0.3525  0.1039  0.0099
 1273ERGO    R117244   6.979  17.120   6.310 -0.3820 -0.1674  0.0583
 1273ERGO    R217245   6.838  16.923   6.441  0.0901 -0.4268  0.2054
 1273ERGO    R317246   6.961  17.025   6.661 -0.0247 -0.0656  0.1074
 1273ERGO    R417247   6.745  16.857   6.767  0.1883 -0.2282  0.2746
 1273ERGO    R517248   6.782  17.066   6.815 -0.0666 -0.1372  0.0741
 1273ERGO    C117249   6.807  16.914   7.164  0.1376  0.2261  0.2229
 1273ERGO    C217250   6.914  16.850   7.349  0.3245 -0.0659  0.1569
 1274ERGO   ROH17251  12.866   8.742   6.246 -0.1071  0.2684  0.0645
 1274ERGO    R117252  12.884   8.877   6.494 -0.0486  0.1174  0.1434
 1274ERGO    R217253  12.694   8.848   6.693 -0.0907  0.1270  0.1059
 1274ERGO    R317254  12.909   8.782   6.845 -0.1488 -0.0990  0.0936
 1274ERGO    R417255  12.687   8.810   7.036 -0.0923  0.1933  0.1136
 1274ERGO    R517256  12.881   8.911   7.046  0.0268 -0.0317  0.0744
 1274ERGO    C117257  12.885   8.726   7.380 -0.1478  0.0197  0.1065
 1274ERGO    C217258  13.070   8.570   7.662  0.1853 -0.1918 -0.0253
 1275ERGO   ROH17259  14.603   1.932   9.423  0.3616 -0.3753  0.0248
 1275ERGO    R117260  14.524   2.033   9.171  0.2753 -0.1680  0.1324
 1275ERGO    R217261  14.700   2.061   8.960  0.1921 -0.0466  0.0774
 1275ERGO    R317262  14.515   1.911   8.828  0.1046  0.0907  0.0418
 1275ERGO    R417263  14.648   2.067   8.618  0.2524 -0.0006  0.0686
 1275ERGO    R517264  14.434   2.056   8.655  0.2378  0.1542  0.0318
 1275ERGO    C117265  14.444   1.931   8.295  0.2055  0.1550  0.0301
 1275ERGO    C217266  14.364   1.971   7.986 -0.1932 -0.1203 -0.1565
 1276ERGO   ROH17267   5.379  12.325   6.066  0.0809 -0.2942  0.1102
 1276ERGO    R117268   5.262  12.324   6.324 -0.1172 -0.3753  0.0224
 1276ERGO    R217269   5.247  12.096   6.479  0.3069 -0.3084  0.1791
 1276ERGO    R317270   5.371  12.252   6.664 -0.1949  0.1368  0.1634
 1276ERGO    R417271   5.237  12.042   6.820  0.6004 -0.4018  0.1744
 1276ERGO    R517272   5.218  12.258   6.848 -0.1825 -0.4498  0.2082
 1276ERGO    C117273   5.348  12.156   7.192  0.3002 -0.0380  0.1569
 1276ERGO    C217274   5.255  12.119   7.517  0.2436 -0.1516  0.0380
 1277ERGO   ROH17275   0.130   4.946   8.986 -0.1311 -0.0984  0.1415
 1277ERGO    R117276   0.053   4.931   8.714 -0.0409 -0.0709  0.1142
 1277ERGO    R217277  -0.007   5.155   8.564  0.0672 -0.0520  0.1000
 1277ERGO    R317278   0.180   5.054   8.396  0.0995 -0.0936  0.1603
 1277ERGO    R417279   0.002   5.211   8.223  0.1106 -0.1604  0.0829
 1277ERGO    R517280   0.058   5.002   8.196  0.1303 -0.1670  0.1590
 1277ERGO    C117281   0.183   5.148   7.866  0.1662 -0.2626  0.1296
 1277ERGO    C217282   0.238   5.376   7.576  0.1359 -0.2952 -0.0380
 1278ERGO   ROH17283  15.276   6.895   9.291  0.3418 -0.2351 -0.0919
 1278ERGO    R117284  15.049   6.951   9.131  0.1489 -0.3797  0.1240
 1278ERGO    R217285  15.053   7.139   8.929 -0.2627 -0.1245  0.3376
 1278ERGO    R317286  14.963   6.932   8.778 -0.0473 -0.0877  0.1530
 1278ERGO    R417287  14.962   7.162   8.596 -0.0376  0.0098  0.2830
 1278ERGO    R517288  14.795   7.029   8.638  0.0025 -0.1013  0.0870
 1278ERGO    C117289  14.825   6.980   8.261  0.2956  0.1225  0.0779
 1278ERGO    C217290  14.834   7.163   7.973  0.0022  0.0238 -0.2611
 1279ERGO   ROH17291   2.710   1.223   9.614  0.0320 -0.0058 -0.0200
 1279ERGO    R117292   2.599   1.177   9.358  0.0082 -0.0706  0.0025
 1279ERGO    R217293   2.528   1.383   9.187 -0.1096 -0.1140  0.0033
 1279ERGO    R317294   2.690   1.251   9.013 -0.0838 -0.0542 -0.0195
 1279ERGO    R417295   2.507   1.405   8.843  0.0658  0.1646  0.0075
 1279ERGO    R517296   2.545   1.191   8.832 -0.0269  0.1516 -0.1389
 1279ERGO    C117297   2.648   1.295   8.479  0.1921  0.3829 -0.0115
 1279ERGO    C217298   2.713   1.501   8.163 -0.0657 -0.1363 -0.0268
 1280ERGO   ROH17299   9.442  18.470   9.805 -0.1832 -0.3381 -0.1506
 1280ERGO    R117300   9.348  18.613   9.579  0.0221 -0.0010 -0.0301
 1280ERGO    R217301   9.518  18.741   9.403  0.2316 -0.2896 -0.0412
 1280ERGO    R317302   9.387  18.591   9.218 -0.2066  0.0981 -0.0631
 1280ERGO    R417303   9.523  18.798   9.062  0.4153 -0.2602 -0.0348
 1280ERGO    R517304   9.311  18.749   9.056  0.2550  0.3520 -0.0505
 1280ERGO    C117305   9.402  18.690   8.690  0.1110  0.1215 -0.0517
 1280ERGO    C217306   9.426  18.664   8.328  0.1044  0.1811  0.1882
 1281ERGO   ROH17307   7.061   8.993   6.232 -0.0145 -0.1604 -0.0111
 1281ERGO    R117308   6.932   8.989   6.484 -0.0407  0.0378 -0.0201
 1281ERGO    R217309   6.824   8.758   6.592 -0.2128  0.1598  0.0680
 1281ERGO    R317310   6.982   8.822   6.804 -0.1876  0.1376  0.0567
 1281ERGO    R417311   6.742   8.703   6.923 -0.1377  0.0422  0.0682
 1281ERGO    R517312   6.829   8.897   6.971 -0.1761  0.0514  0.1081
 1281ERGO    C117313   6.842   8.731   7.315 -0.0702 -0.0469  0.0577
 1281ERGO    C217314   6.658   8.725   7.614 -0.1242 -0.2772  0.2420
 1282ERGO   ROH17315  16.858   2.390   8.854  0.0355  0.0244  0.1695
 1282ERGO    R117316  16.828   2.506   8.598  0.0325  0.0605  0.1864
 1282ERGO    R217317  16.883   2.369   8.364  0.2040  0.1503  0.1722
 1282ERGO    R317318  16.630   2.442   8.300  0.1702 -0.0158  0.1106
 1282ERGO    R417319  16.755   2.375   8.044  0.2717  0.0575  0.1425
 1282ERGO    R517320  16.653   2.561   8.093  0.1397 -0.0071  0.1130
 1282ERGO    C117321  16.442   2.448   7.796  0.2794 -0.1525  0.0673
 1282ERGO    C217322  16.370   2.305   7.536 -0.3646 -0.0866 -0.2344
 1283ERGO   ROH17323  10.686  16.171   5.798 -0.1510  0.0578  0.1050
 1283ERGO    R117324  10.666  16.055   6.056 -0.0212  0.0952  0.1339
 1283ERGO    R217325  10.821  16.139   6.269  0.0863  0.1305  0.0501
 1283ERGO    R317326  10.579  16.169   6.391  0.1439  0.1464  0.1587
 1283ERGO    R417327  10.767  16.111   6.609  0.1995 -0.0360  0.0548
 1283ERGO    R517328  10.581  16.005   6.566  0.1511  0.0538  0.0681
 1283ERGO    C117329  10.509  16.123   6.922  0.3197 -0.1178  0.1595
 1283ERGO    C217330  10.349  16.252   7.230  0.2088 -0.4080 -0.2571
 1284ERGO   ROH17331  17.735   1.623   9.008  0.1044 -0.0159 -0.0623
 1284ERGO    R117332  17.818   1.527   8.755  0.0349 -0.0233 -0.0822
 1284ERGO    R217333  17.639   1.456   8.557 -0.0189  0.0183 -0.0482
 1284ERGO    R317334  17.782   1.633   8.408 -0.0143 -0.0045 -0.0715
 1284ERGO    R417335  17.749   1.399   8.234  0.1786 -0.1170  0.0411
 1284ERGO    R517336  17.937   1.496   8.287  0.1097 -0.0080  0.0876
 1284ERGO    C117337  17.949   1.532   7.907  0.2979 -0.2171  0.0712
 1284ERGO    C217338  17.970   1.735   7.663 -0.1224  0.0420  0.1041
 1285ERGO   ROH17339  14.184   2.321   5.752  0.0779  0.0167  0.0310
 1285ERGO    R117340  14.191   2.394   6.026 -0.0217  0.0862  0.0160
 1285ERGO    R217341  13.963   2.423   6.178 -0.0728 -0.0038 -0.0386
 1285ERGO    R317342  14.089   2.247   6.342 -0.0087  0.1035  0.0276
 1285ERGO    R417343  13.865   2.349   6.501 -0.1417 -0.0413 -0.0682
 1285ERGO    R517344  14.075   2.347   6.559 -0.1627  0.1151  0.0119
 1285ERGO    C117345  13.927   2.141   6.843 -0.1216  0.0376 -0.0234
 1285ERGO    C217346  13.899   1.941   7.096  0.0199  0.1422 -0.3056
 1286ERGO   ROH17347   2.611  16.746   5.957 -0.1545  0.1792  0.0150
 1286ERGO    R117348   2.667  16.745   6.235  0.0383  0.0744 -0.0214
 1286ERGO    R217349   2.847  16.919   6.350 -0.0627  0.2022 -0.0453
 1286ERGO    R317350   2.636  16.980   6.511 -0.0236 -0.1162  0.1348
 1286ERGO    R417351   2.869  17.102   6.643 -0.0761  0.0958  0.0224
 1286ERGO    R517352   2.725  16.965   6.733  0.1489 -0.1131  0.0648
 1286ERGO    C117353   2.683  17.266   6.964 -0.0472 -0.2650  0.2309
 1286ERGO    C217354   2.628  17.193   7.359  0.0124 -0.2683 -0.0633
 1287ERGO   ROH17355  17.446  17.535   6.932 -0.0043  0.0572  0.1813
 1287ERGO    R117356  17.320  17.383   7.134  0.0346 -0.0626  0.1167
 1287ERGO    R217357  17.462  17.226   7.312  0.0955  0.0807  0.1978
 1287ERGO    R317358  17.326  17.371   7.498 -0.1498 -0.0457  0.1210
 1287ERGO    R417359  17.488  17.184   7.655  0.0987  0.2444  0.2183
 1287ERGO    R517360  17.273  17.213   7.670  0.0498 -0.0624  0.1690
 1287ERGO    C117361  17.375  17.295   8.028 -0.1296  0.2211  0.1582
 1287ERGO    C217362  17.460  17.488   8.329  0.1617  0.1314 -0.1519
 1288ERGO   ROH17363  16.425   9.283   9.318  0.1653  0.0380 -0.0210
 1288ERGO    R117364  16.399   9.369   9.050 -0.0052  0.0581  0.0003
 1288ERGO    R217365  16.526   9.243   8.840  0.0437  0.2068 -0.0654
 1288ERGO    R317366  16.274   9.229   8.738  0.0179 -0.0097  0.0226
 1288ERGO    R417367  16.449   9.244   8.503 -0.0751 -0.0790 -0.0423
 1288ERGO    R517368  16.279   9.374   8.547 -0.1310 -0.1455 -0.0831
 1288ERGO    C117369  16.168   9.232   8.211 -0.1681 -0.4486  0.0539
 1288ERGO    C217370  16.133   9.144   7.888  0.1066  0.0936 -0.2755
 1289ERGO   ROH17371   6.204  15.223   6.345  0.1666 -0.1150  0.3748
 1289ERGO    R117372   6.145  15.233   6.622 -0.0313  0.1034  0.3253
 1289ERGO    R217373   5.957  15.408   6.728 -0.2908  0.0084  0.0170
 1289ERGO    R317374   5.852  15.180   6.832 -0.1161 -0.0004  0.1859
 1289ERGO    R417375   5.824  15.377   7.045 -0.0888  0.0974  0.1144
 1289ERGO    R517376   5.918  15.182   7.061  0.0233  0.1456  0.1519
 1289ERGO    C117377   5.648  15.145   7.327  0.1929  0.1408  0.3296
 1289ERGO    C217378   5.374  15.088   7.458  0.1431 -0.1247  0.1197
 1290ERGO   ROH17379   3.913   6.280   6.033 -0.2906 -0.1731 -0.2895
 1290ERGO    R117380   3.910   6.327   6.312 -0.1973 -0.1583 -0.2905
 1290ERGO    R217381   3.726   6.493   6.433 -0.0074  0.0421 -0.2664
 1290ERGO    R317382   3.677   6.274   6.587 -0.2121  0.0955 -0.2523
 1290ERGO    R417383   3.710   6.494   6.779  0.0274  0.0713 -0.2650
 1290ERGO    R517384   3.817   6.304   6.779 -0.1624 -0.0375 -0.2679
 1290ERGO    C117385   3.655   6.288   7.124 -0.1445  0.1384 -0.2510
 1290ERGO    C217386   3.461   6.476   7.351 -0.0816 -0.2300 -0.2758
 1291ERGO   ROH17387   2.357   0.253   9.601  0.2366 -0.0651  0.2802
 1291ERGO    R117388   2.572   0.189   9.428  0.0507 -0.2215  0.1008
 1291ERGO    R217389   2.541   0.029   9.205 -0.2763 -0.0993  0.0515
 1291ERGO    R317390   2.654   0.241   9.077 -0.1432 -0.1619  0.0634
 1291ERGO    R417391   2.625   0.037   8.870 -0.3041 -0.1187  0.0442
 1291ERGO    R517392   2.808   0.143   8.923 -0.2258 -0.2498  0.0372
 1291ERGO    C117393   2.780   0.240   8.555 -0.1953 -0.1888  0.0510
 1291ERGO    C217394   2.792   0.319   8.273  0.0450 -0.0591 -0.1127
 1292ERGO   ROH17395  14.742  10.570   5.882 -0.2654 -0.0761 -0.1391
 1292ERGO    R117396  14.897  10.409   6.056 -0.1169 -0.0463 -0.2416
 1292ERGO    R217397  14.805  10.326   6.303  0.1270  0.0722 -0.1068
 1292ERGO    R317398  14.867  10.079   6.208 -0.0379  0.0200 -0.0809
 1292ERGO    R417399  14.926  10.065   6.495 -0.0967 -0.0083 -0.0722
 1292ERGO    R517400  15.062  10.015   6.331 -0.1060 -0.1176 -0.0451
 1292ERGO    C117401  15.055   9.682   6.517 -0.3817 -0.1044 -0.0278
 1292ERGO    C217402  15.123   9.351   6.659  0.1058 -0.0960 -0.2327
 1293ERGO   ROH17403   5.600   9.844   5.546 -0.1832 -0.0713 -0.1660
 1293ERGO    R117404   5.765   9.819   5.775 -0.1236 -0.3664 -0.2369
 1293ERGO    R217405   5.796  10.023   5.960  0.4281 -0.3614 -0.3197
 1293ERGO    R317406   5.720   9.831   6.136  0.0706 -0.1359 -0.2173
 1293ERGO    R417407   5.855  10.032   6.300  0.4163 -0.2782 -0.3191
 1293ERGO    R517408   5.900   9.820   6.293  0.0421 -0.3684 -0.1979
 1293ERGO    C117409   5.818   9.857   6.664  0.0738 -0.0183 -0.2226
 1293ERGO    C217410   5.782   9.864   6.982 -0.1613  0.3872 -0.1757
 1294ERGO   ROH17411   6.902  16.264   9.786 -0.0269  0.3789  0.0349
 1294ERGO    R117412   6.721  16.257   9.569  0.0008 -0.0488  0.0186
 1294ERGO    R217413   6.705  16.459   9.381 -0.5179 -0.0340  0.0697
 1294ERGO    R317414   6.744  16.256   9.205  0.0370  0.0980  0.0186
 1294ERGO    R417415   6.638  16.476   9.043 -0.6577 -0.1504  0.0903
 1294ERGO    R517416   6.559  16.273   9.054 -0.0698 -0.4037  0.0706
 1294ERGO    C117417   6.635  16.294   8.681 -0.2182 -0.0942  0.0543
 1294ERGO    C217418   6.525  16.375   8.484 -0.0307 -0.0097  0.0260
 1295ERGO   ROH17419   7.888   3.511   9.956 -0.1412 -0.1233  0.0299
 1295ERGO    R117420   7.979   3.690   9.757 -0.0742 -0.0726  0.1049
 1295ERGO    R217421   8.214   3.651   9.618 -0.1462 -0.1660  0.0051
 1295ERGO    R317422   8.052   3.675   9.401 -0.2025  0.0794  0.0708
 1295ERGO    R417423   8.324   3.671   9.291 -0.2380  0.0391 -0.0149
 1295ERGO    R517424   8.171   3.822   9.253 -0.1803  0.1402  0.1495
 1295ERGO    C117425   8.237   3.704   8.896 -0.3445  0.3889  0.0351
 1295ERGO    C217426   8.147   3.617   8.480 -0.0309  0.3712 -0.2309
 1296ERGO   ROH17427   6.482   7.297   6.018 -0.0682  0.1067  0.1701
 1296ERGO    R117428   6.536   7.415   6.269  0.0130  0.1065  0.1529
 1296ERGO    R217429   6.340   7.452   6.461  0.0284  0.3065  0.1309
 1296ERGO    R317430   6.515   7.316   6.619 -0.0990  0.1860  0.1700
 1296ERGO    R417431   6.328   7.441   6.806 -0.1541  0.1821  0.1218
 1296ERGO    R517432   6.545   7.457   6.810 -0.1481  0.1055  0.2393
 1296ERGO    C117433   6.484   7.307   7.155 -0.3800 -0.0034  0.1531
 1296ERGO    C217434   6.294   7.281   7.462  0.0928  0.1403  0.0501
 1297ERGO   ROH17435   3.173  16.536   9.331 -0.0978 -0.1491 -0.0523
 1297ERGO    R117436   3.262  16.635   9.081 -0.0854  0.0188  0.0179
 1297ERGO    R217437   3.408  16.482   8.903 -0.0906  0.1336 -0.0836
 1297ERGO    R317438   3.210  16.553   8.730 -0.0801  0.2650 -0.0428
 1297ERGO    R417439   3.444  16.505   8.560 -0.1312  0.1480 -0.0872
 1297ERGO    R517440   3.322  16.685   8.564 -0.0293  0.2201 -0.0472
 1297ERGO    C117441   3.280  16.585   8.198 -0.1451  0.2798 -0.0510
 1297ERGO    C217442   3.120  16.463   7.807 -0.3469  0.1260  0.0146
 1298ERGO   ROH17443  14.012  12.779   9.599  0.1766 -0.2828  0.0112
 1298ERGO    R117444  13.938  12.850   9.336  0.0662 -0.1935  0.0651
 1298ERGO    R217445  14.123  12.919   9.142 -0.0221  0.0285  0.0511
 1298ERGO    R317446  13.999  12.724   9.000  0.0702  0.0182 -0.0142
 1298ERGO    R417447  13.996  12.956   8.822 -0.1173  0.0931  0.0961
 1298ERGO    R517448  13.824  12.836   8.882 -0.0259 -0.0408  0.0769
 1298ERGO    C117449  13.806  12.793   8.503 -0.0861  0.1209  0.0612
 1298ERGO    C217450  13.843  12.822   8.185 -0.1553  0.3649 -0.3490
 1299ERGO   ROH17451   3.570   2.004   9.667 -0.2062 -0.2822  0.2239
 1299ERGO    R117452   3.486   1.875   9.430 -0.2518 -0.0585  0.1148
 1299ERGO    R217453   3.285   1.975   9.268 -0.0030  0.3184  0.0189
 1299ERGO    R317454   3.475   1.955   9.075  0.1008  0.1128  0.1390
 1299ERGO    R417455   3.225   1.995   8.929  0.2432  0.3932 -0.0219
 1299ERGO    R517456   3.368   1.834   8.898  0.0836  0.2364  0.0680
 1299ERGO    C117457   3.368   1.987   8.549  0.4840  0.2437  0.0669
 1299ERGO    C217458   3.431   1.970   8.156  0.0729  0.0538  0.0342
 1300ERGO   ROH17459   7.679   1.880   9.796  0.0980 -0.1334  0.0246
 1300ERGO    R117460   7.569   1.940   9.542 -0.0931 -0.2390  0.0809
 1300ERGO    R217461   7.716   2.056   9.338 -0.3472  0.0709  0.0567
 1300ERGO    R317462   7.630   1.841   9.197 -0.0437 -0.0429  0.0358
 1300ERGO    R417463   7.676   2.050   8.995 -0.1081 -0.0759  0.0273
 1300ERGO    R517464   7.493   1.935   9.025 -0.0099 -0.2344 -0.0837
 1300ERGO    C117465   7.571   1.844   8.663  0.3160 -0.2681 -0.0096
 1300ERGO    C217466   7.581   1.992   8.423  0.0173  0.3569 -0.2270
 1301ERGO   ROH17467   3.590   1.740   7.703 -0.0431  0.0385 -0.1101
 1301ERGO    R117468   3.461   1.990   7.670  0.0144  0.0863  0.0249
 1301ERGO    R217469   3.219   2.017   7.539  0.0047  0.2079  0.0711
 1301ERGO    R317470   3.144   2.140   7.770  0.0647  0.1210  0.1378
 1301ERGO    R417471   2.905   2.149   7.600  0.1249  0.5112  0.0554
 1301ERGO    R517472   3.001   2.318   7.699  0.2838  0.3370  0.2156
 1301ERGO    C117473   2.652   2.340   7.851  0.2513  0.6062  0.1089
 1301ERGO    C217474   2.371   2.378   7.879  0.0809 -0.1093  0.1987
 1302ERGO   ROH17475  17.657  12.984   9.202  0.0696  0.1473 -0.2011
 1302ERGO    R117476  17.630  12.891   8.936  0.0238  0.1347 -0.1915
 1302ERGO    R217477  17.418  12.964   8.774  0.0755  0.2429 -0.2049
 1302ERGO    R317478  17.617  13.040   8.604  0.1252  0.1049 -0.2102
 1302ERGO    R417479  17.399  12.949   8.429  0.0340  0.2898 -0.2052
 1302ERGO    R517480  17.606  12.880   8.425 -0.0156  0.1260 -0.2256
 1302ERGO    C117481  17.574  13.011   8.069  0.0564  0.1875 -0.2103
 1302ERGO    C217482  17.311  13.081   7.811 -0.0338  0.0204  0.1111
 1303ERGO   ROH17483   1.972   8.364   9.254 -0.0226  0.2107  0.0576
 1303ERGO    R117484   2.153   8.340   9.038 -0.0823 -0.0753  0.0342
 1303ERGO    R217485   2.152   8.123   8.866 -0.4078 -0.1086  0.0627
 1303ERGO    R317486   2.131   8.316   8.676 -0.1715 -0.1003  0.0429
 1303ERGO    R417487   2.173   8.068   8.526 -0.4969 -0.1602  0.0658
 1303ERGO    R517488   2.289   8.252   8.508 -0.2654 -0.3130  0.0402
 1303ERGO    C117489   2.166   8.217   8.149 -0.3269 -0.1824  0.0490
 1303ERGO    C217490   2.196   8.178   7.727  0.1633  0.0530 -0.4173
 1304ERGO   ROH17491  14.355   1.803   7.354 -0.0285 -0.2068 -0.2559
 1304ERGO    R117492  14.231   1.999   7.515  0.0392 -0.2667 -0.1286
 1304ERGO    R217493  14.231   2.268   7.449  0.1545 -0.2171  0.0575
 1304ERGO    R317494  13.962   2.241   7.477  0.1413 -0.1286  0.0154
 1304ERGO    R417495  14.010   2.529   7.497  0.2309 -0.1470  0.0270
 1304ERGO    R517496  13.902   2.406   7.640  0.1686 -0.1126  0.0075
 1304ERGO    C117497  13.629   2.657   7.552  0.2630 -0.0231 -0.0301
 1304ERGO    C217498  13.429   2.891   7.483  0.1045 -0.3013 -0.2192
 1305ERGO   ROH17499   8.164  14.045  10.106  0.0471  0.2608 -0.0762
 1305ERGO    R117500   8.292  13.961   9.867  0.1380  0.0745  0.0336
 1305ERGO    R217501   8.175  13.786   9.689  0.1661 -0.0052  0.0788
 1305ERGO    R317502   8.226  13.984   9.510  0.3101 -0.1205 -0.0100
 1305ERGO    R417503   8.107  13.768   9.351 -0.1300  0.0245  0.1348
 1305ERGO    R517504   8.297  13.868   9.312 -0.0176 -0.2628 -0.0431
 1305ERGO    C117505   8.116  13.944   8.985 -0.1672 -0.0666  0.0842
 1305ERGO    C217506   8.088  13.952   8.601 -0.0022 -0.2479 -0.1021
 1306ERGO   ROH17507   4.694   3.570   9.606 -0.0531  0.1506 -0.0233
 1306ERGO    R117508   4.524   3.519   9.386 -0.0231 -0.0778  0.0032
 1306ERGO    R217509   4.487   3.702   9.181 -0.2138 -0.1714 -0.0473
 1306ERGO    R317510   4.559   3.492   9.025 -0.0240 -0.1491  0.0083
 1306ERGO    R417511   4.444   3.686   8.839  0.0970 -0.1674 -0.0896
 1306ERGO    R517512   4.386   3.477   8.860  0.1250 -0.1823 -0.1495
 1306ERGO    C117513   4.487   3.480   8.492  0.4563 -0.1442 -0.0619
 1306ERGO    C217514   4.532   3.563   8.186  0.0620 -0.0754  0.0142
 1307ERGO   ROH17515  12.078  12.452   5.999  0.1698 -0.0151 -0.0687
 1307ERGO    R117516  12.151  12.490   6.270  0.1922 -0.0631 -0.0685
 1307ERGO    R217517  12.327  12.686   6.350 -0.1123  0.1892 -0.0063
 1307ERGO    R317518  12.124  12.757   6.516 -0.1834 -0.2569  0.1113
 1307ERGO    R417519  12.367  12.793   6.677 -0.1406  0.3345 -0.0489
 1307ERGO    R517520  12.192  12.675   6.731  0.1544 -0.0760  0.0845
 1307ERGO    C117521  12.200  12.921   7.023 -0.2239  0.0005  0.0369
 1307ERGO    C217522  12.337  13.009   7.340  0.2035 -0.1401  0.1063
 1308ERGO   ROH17523  10.810   8.415   7.712 -0.2426 -0.1759 -0.0486
 1308ERGO    R117524  10.754   8.310   7.969 -0.1095 -0.1709 -0.0172
 1308ERGO    R217525  10.597   8.442   8.153  0.0731 -0.1166  0.1033
 1308ERGO    R317526  10.458   8.208   8.154 -0.0256 -0.0586  0.1803
 1308ERGO    R417527  10.290   8.396   8.305 -0.0340  0.1097 -0.0374
 1308ERGO    R517528  10.358   8.200   8.372 -0.1533  0.1246  0.1306
 1308ERGO    C117529   9.981   8.149   8.395 -0.1890  0.2960 -0.0470
 1308ERGO    C217530   9.717   8.305   8.344 -0.1544  0.0068  0.1743
 1309ERGO   ROH17531  17.186  18.642   9.146  0.0467  0.2392  0.1017
 1309ERGO    R117532  16.996  18.582   8.945 -0.0033  0.1250  0.1827
 1309ERGO    R217533  16.776  18.742   8.895 -0.0079  0.1044  0.1372
 1309ERGO    R317534  16.873  18.739   8.641 -0.0681 -0.0543  0.1143
 1309ERGO    R417535  16.582  18.738   8.609 -0.0775  0.1384  0.1837
 1309ERGO    R517536  16.723  18.597   8.521 -0.1966  0.0076  0.1999
 1309ERGO    C117537  16.560  18.734   8.204 -0.1746  0.0094  0.1891
 1309ERGO    C217538  16.284  18.627   8.064 -0.1229  0.2741  0.2402
 1310ERGO   ROH17539  10.253  12.175   6.036  0.1515 -0.0544  0.0080
 1310ERGO    R117540  10.277  12.048   6.288  0.2787 -0.0160  0.0166
 1310ERGO    R217541  10.520  12.011   6.413  0.3177  0.2561  0.0318
 1310ERGO    R317542  10.397  12.139   6.619  0.1660  0.1355  0.0163
 1310ERGO    R417543  10.661  12.068   6.724  0.0157 -0.0984  0.2401
 1310ERGO    R517544  10.468  12.020   6.814 -0.1077 -0.0789 -0.0092
 1310ERGO    C117545  10.626  12.220   7.098 -0.3026 -0.4179  0.3467
 1310ERGO    C217546  10.831  12.378   7.277  0.0401 -0.1981  0.0532
 1311ERGO   ROH17547  16.619  10.063   6.028 -0.2001  0.0809 -0.2514
 1311ERGO    R117548  16.447  10.085   6.252 -0.0445  0.0045 -0.1224
 1311ERGO    R217549  16.173  10.078   6.230 -0.0639  0.0891  0.0593
 1311ERGO    R317550  16.194   9.878   6.412  0.0094 -0.0168 -0.0647
 1311ERGO    R417551  15.969  10.043   6.507  0.1904  0.0609  0.2453
 1311ERGO    R517552  16.146   9.984   6.622  0.2754 -0.0963  0.0411
 1311ERGO    C117553  15.871   9.834   6.840  0.4072 -0.0549  0.2372
 1311ERGO    C217554  15.596   9.655   6.993  0.4456 -0.1010 -0.0444
 1312ERGO   ROH17555   5.692  13.665   6.397  0.3014  0.1027  0.1120
 1312ERGO    R117556   5.645  13.740   6.666  0.0907  0.0211  0.1004
 1312ERGO    R217557   5.434  13.639   6.814  0.0219 -0.0899 -0.0660
 1312ERGO    R317558   5.632  13.573   6.989 -0.0720 -0.0633  0.0505
 1312ERGO    R417559   5.395  13.616   7.157 -0.1074  0.1711 -0.0613
 1312ERGO    R517560   5.590  13.711   7.181 -0.0710  0.0919 -0.0608
 1312ERGO    C117561   5.557  13.541   7.520 -0.2709  0.3482  0.0509
 1312ERGO    C217562   5.412  13.294   7.820  0.2887  0.0274 -0.1971
 1313ERGO   ROH17563  12.180   4.816   9.736 -0.0252  0.1098 -0.0484
 1313ERGO    R117564  12.281   4.776   9.475  0.0211 -0.0365 -0.0090
 1313ERGO    R217565  12.185   4.578   9.307 -0.0831 -0.0078  0.0145
 1313ERGO    R317566  12.149   4.786   9.136  0.1273 -0.0221 -0.0498
 1313ERGO    R417567  12.174   4.550   8.963 -0.1377 -0.1038  0.0236
 1313ERGO    R517568  12.291   4.734   8.949  0.0591 -0.2320 -0.0443
 1313ERGO    C117569  12.134   4.729   8.601  0.0281 -0.1731 -0.0315
 1313ERGO    C217570  12.136   4.691   8.167 -0.2669  0.2147  0.0579
 1314ERGO   ROH17571   1.463  15.774   5.992 -0.3565  0.1089  0.0661
 1314ERGO    R117572   1.377  15.673   6.242 -0.1488  0.1129  0.1424
 1314ERGO    R217573   1.236  15.436   6.266 -0.2479  0.1748  0.2507
 1314ERGO    R317574   1.436  15.373   6.439 -0.0913  0.0513  0.0291
 1314ERGO    R417575   1.190  15.303   6.581  0.0368  0.1729  0.2933
 1314ERGO    R517576   1.349  15.432   6.654  0.1830  0.0757  0.1308
 1314ERGO    C117577   1.351  15.167   6.928  0.3497  0.0556  0.1101
 1314ERGO    C217578   1.488  14.819   7.055  0.1238  0.1273  0.0999
 1315ERGO   ROH17579   2.567   3.983   9.581 -0.1859 -0.0336  0.0797
 1315ERGO    R117580   2.555   3.790   9.375 -0.2027 -0.0253  0.0723
 1315ERGO    R217581   2.412   3.829   9.142 -0.0574  0.0689 -0.0035
 1315ERGO    R317582   2.651   3.770   9.025 -0.0310 -0.0822  0.1216
 1315ERGO    R417583   2.463   3.797   8.801  0.0854 -0.0457  0.0278
 1315ERGO    R517584   2.593   3.627   8.842 -0.0178 -0.1017  0.1327
 1315ERGO    C117585   2.716   3.722   8.494  0.1934 -0.2543  0.1636
 1315ERGO    C217586   2.759   3.678   8.102 -0.0554 -0.0158 -0.0085
 1316ERGO   ROH17587  10.358   3.382   6.365  0.0700 -0.0551 -0.1364
 1316ERGO    R117588  10.500   3.278   6.588  0.0562 -0.0190 -0.1098
 1316ERGO    R217589  10.566   3.433   6.807 -0.1202 -0.0279 -0.0462
 1316ERGO    R317590  10.438   3.236   6.944 -0.0469 -0.1424 -0.1420
 1316ERGO    R417591  10.600   3.373   7.146 -0.0384 -0.2295 -0.0892
 1316ERGO    R517592  10.599   3.159   7.103  0.0028 -0.2038 -0.2215
 1316ERGO    C117593  10.499   3.153   7.471  0.0780 -0.4544 -0.2043
 1316ERGO    C217594  10.599   3.078   7.799  0.1424 -0.1743  0.1769
 1317ERGO   ROH17595  16.805   7.299   6.384  0.0611  0.1123 -0.0875
 1317ERGO    R117596  16.699   7.038   6.405 -0.0604  0.1750  0.1023
 1317ERGO    R217597  16.852   6.811   6.371 -0.2440  0.0820 -0.1425
 1317ERGO    R317598  16.753   6.746   6.616  0.1193  0.1566  0.0321
 1317ERGO    R417599  16.850   6.493   6.505 -0.3238  0.0683 -0.1760
 1317ERGO    R517600  16.651   6.532   6.583 -0.1547  0.2594  0.1841
 1317ERGO    C117601  16.756   6.246   6.812 -0.0291  0.1304 -0.0314
 1317ERGO    C217602  16.851   6.034   7.025  0.1219  0.0771 -0.1363
 1318ERGO   ROH17603  14.073  16.659   9.453 -0.0434 -0.3788  0.0478
 1318ERGO    R117604  14.084  16.505   9.216  0.0355 -0.0593 -0.1623
 1318ERGO    R217605  13.871  16.354   9.127  0.1801 -0.2131 -0.2462
 1318ERGO    R317606  13.909  16.496   8.897 -0.1126  0.1358 -0.0890
 1318ERGO    R417607  13.700  16.300   8.831  0.1882 -0.1392 -0.2654
 1318ERGO    R517608  13.887  16.333   8.723  0.1129  0.3039 -0.2832
 1318ERGO    C117609  13.635  16.401   8.444 -0.0818  0.2312 -0.1290
 1318ERGO    C217610  13.587  16.429   8.026 -0.1521  0.2861 -0.2166
 1319ERGO   ROH17611   2.346  16.089   9.600 -0.1376 -0.2398 -0.1360
 1319ERGO    R117612   2.471  16.086   9.347 -0.2995  0.0354 -0.2230
 1319ERGO    R217613   2.584  15.858   9.239  0.1623  0.2820 -0.2797
 1319ERGO    R317614   2.422  15.915   9.029 -0.1228 -0.1085 -0.1745
 1319ERGO    R417615   2.665  15.804   8.907  0.1396  0.5855 -0.3373
 1319ERGO    R517616   2.571  15.995   8.859 -0.4226  0.3528 -0.2399
 1319ERGO    C117617   2.560  15.827   8.517 -0.1414  0.3958 -0.2719
 1319ERGO    C217618   2.632  15.801   8.244  0.2193  0.3072 -0.0441
 1320ERGO   ROH17619   2.156   5.630   9.408  0.0005  0.0951 -0.1513
 1320ERGO    R117620   2.131   5.764   9.160 -0.0551 -0.0420 -0.2212
 1320ERGO    R217621   2.348   5.863   9.021 -0.1085  0.1314 -0.1871
 1320ERGO    R317622   2.247   5.712   8.819  0.1243 -0.0717 -0.1562
 1320ERGO    R417623   2.370   5.942   8.685 -0.0003 -0.0424 -0.2216
 1320ERGO    R517624   2.165   5.872   8.660  0.0707 -0.2304 -0.2905
 1320ERGO    C117625   2.287   5.846   8.300  0.2815 -0.3343 -0.2127
 1320ERGO    C217626   2.311   6.008   7.984 -0.1641  0.0107 -0.4589
 1321ERGO   ROH17627   3.300   6.901   9.708 -0.2790 -0.1485 -0.0590
 1321ERGO    R117628   3.382   6.893   9.437 -0.0482 -0.0622  0.0059
 1321ERGO    R217629   3.351   6.669   9.278 -0.0337  0.0282 -0.1289
 1321ERGO    R317630   3.222   6.843   9.114  0.2012  0.1783 -0.1588
 1321ERGO    R417631   3.403   6.693   8.937 -0.0495 -0.1491 -0.1442
 1321ERGO    R517632   3.389   6.910   8.956  0.2812 -0.1194 -0.2056
 1321ERGO    C117633   3.311   6.870   8.584  0.1617 -0.1114 -0.1811
 1321ERGO    C217634   3.364   6.875   8.292  0.0432 -0.0471 -0.0791
 1322ERGO   ROH17635   3.731  13.402   6.159 -0.1748 -0.0042 -0.0423
 1322ERGO    R117636   3.532  13.262   6.304 -0.1207 -0.0522 -0.0113
 1322ERGO    R217637   3.552  12.992   6.363 -0.0347 -0.0488  0.0122
 1322ERGO    R317638   3.512  13.079   6.618 -0.0310 -0.0296  0.0047
 1322ERGO    R417639   3.394  12.812   6.612 -0.1102  0.0219  0.0146
 1322ERGO    R517640   3.297  12.995   6.677 -0.0548  0.0459 -0.0028
 1322ERGO    C117641   3.265  12.788   6.996 -0.1507  0.0810  0.0091
 1322ERGO    C217642   3.011  12.532   7.157  0.1916 -0.4065 -0.1092
 1323ERGO   ROH17643   5.390  14.386   9.926  0.2985 -0.0846 -0.1580
 1323ERGO    R117644   5.256  14.297   9.693  0.1563 -0.0090 -0.1064
 1323ERGO    R217645   5.144  14.472   9.510  0.2179  0.0579 -0.0805
 1323ERGO    R317646   5.299  14.334   9.333  0.0627 -0.0669 -0.1245
 1323ERGO    R417647   5.122  14.498   9.166  0.1699  0.1084 -0.0738
 1323ERGO    R517648   5.151  14.282   9.153 -0.0240  0.0798 -0.0994
 1323ERGO    C117649   5.255  14.384   8.800 -0.0037  0.0208 -0.1113
 1323ERGO    C217650   5.312  14.434   8.406 -0.1491  0.0427 -0.1174
 1324ERGO   ROH17651   1.225  12.291   5.943 -0.1365 -0.0777  0.1250
 1324ERGO    R117652   1.132  12.216   6.200 -0.0538 -0.2325  0.1112
 1324ERGO    R217653   1.291  12.084   6.383  0.1221 -0.0240  0.1146
 1324ERGO    R317654   1.220  12.290   6.545 -0.1869 -0.1337  0.1244
 1324ERGO    R417655   1.343  12.093   6.724  0.0022 -0.0098  0.1327
 1324ERGO    R517656   1.146  12.184   6.747 -0.1206 -0.2566  0.0840
 1324ERGO    C117657   1.307  12.291   7.076 -0.3576 -0.1045  0.1524
 1324ERGO    C217658   1.366  12.374   7.414 -0.1329  0.1898  0.0068
 1325ERGO   ROH17659  18.633  16.167   8.661 -0.0465  0.0065  0.0434
 1325ERGO    R117660  18.500  16.350   8.490  0.1325  0.0633 -0.0388
 1325ERGO    R217661  18.628  16.477   8.280  0.2455 -0.2074 -0.1460
 1325ERGO    R317662  18.424  16.371   8.135  0.0907 -0.0633 -0.0362
 1325ERGO    R417663  18.573  16.537   7.944  0.0896 -0.1668 -0.1131
 1325ERGO    R517664  18.359  16.547   7.986  0.1245 -0.0217  0.0055
 1325ERGO    C117665  18.350  16.472   7.612 -0.1465 -0.0080  0.0090
 1325ERGO    C217666  18.161  16.287   7.420  0.3304 -0.1090 -0.1413
 1326ERGO   ROH17667   0.592   0.486   5.754 -0.0467  0.1872 -0.2988
 1326ERGO    R117668   0.486   0.677   5.933 -0.0150  0.2191 -0.3122
 1326ERGO    R217669   0.611   0.745   6.169 -0.2369 -0.1396 -0.0727
 1326ERGO    R317670   0.591   0.998   6.071  0.2858 -0.0333  0.0607
 1326ERGO    R417671   0.528   1.023   6.357 -0.1195 -0.1343 -0.0285
 1326ERGO    R517672   0.405   1.093   6.190  0.2396  0.1615 -0.1719
 1326ERGO    C117673   0.460   1.422   6.374  0.4396 -0.0315  0.1225
 1326ERGO    C217674   0.440   1.506   6.721  0.1114 -0.2248  0.1931
 1327ERGO   ROH17675  15.547   1.431   5.342  0.0497 -0.2186 -0.1814
 1327ERGO    R117676  15.470   1.549   5.588  0.0013 -0.1320 -0.2365
 1327ERGO    R217677  15.259   1.454   5.739 -0.0392 -0.0723 -0.2477
 1327ERGO    R317678  15.447   1.443   5.935 -0.0788 -0.0169 -0.2078
 1327ERGO    R417679  15.197   1.507   6.075 -0.1162 -0.0781 -0.2614
 1327ERGO    R517680  15.385   1.618   6.087 -0.1513 -0.0317 -0.2255
 1327ERGO    C117681  15.338   1.528   6.454 -0.1982 -0.0295 -0.2318
 1327ERGO    C217682  15.475   1.664   6.782  0.2961  0.0800  0.0137
 1328ERGO   ROH17683  16.584  13.287   9.096  0.1120  0.3068  0.1607
 1328ERGO    R117684  16.514  13.502   8.926 -0.0553  0.1679  0.0503
 1328ERGO    R217685  16.660  13.566   8.701  0.0162  0.2895  0.1303
 1328ERGO    R317686  16.419  13.543   8.577  0.1243 -0.0623 -0.0286
 1328ERGO    R417687  16.607  13.612   8.362  0.1238  0.5222  0.1430
 1328ERGO    R517688  16.421  13.716   8.411 -0.1143  0.1141  0.1453
 1328ERGO    C117689  16.349  13.618   8.050  0.2880  0.3274  0.0014
 1328ERGO    C217690  16.209  13.675   7.752 -0.3315 -0.0306 -0.0057
 1329ERGO   ROH17691   3.402  12.453   9.766  0.3057 -0.1617 -0.0206
 1329ERGO    R117692   3.272  12.442   9.514  0.2383 -0.1235  0.0125
 1329ERGO    R217693   3.151  12.661   9.400  0.0827 -0.1405  0.1447
 1329ERGO    R317694   3.312  12.601   9.189  0.0551  0.0405  0.0682
 1329ERGO    R417695   3.056  12.676   9.067 -0.0326 -0.0701  0.1793
 1329ERGO    R517696   3.167  12.491   9.033  0.0721  0.0102  0.0725
 1329ERGO    C117697   3.152  12.627   8.677 -0.1257  0.1408  0.1276
 1329ERGO    C217698   3.251  12.718   8.381 -0.2846  0.5162 -0.0361
 1330ERGO   ROH17699  10.747   5.521   9.898  0.0078  0.4670  0.0633
 1330ERGO    R117700  10.613   5.659   9.690  0.0463  0.3887 -0.0137
 1330ERGO    R217701  10.747   5.780   9.481  0.0706  0.0582 -0.1946
 1330ERGO    R317702  10.581   5.627   9.329 -0.1411  0.0597  0.0275
 1330ERGO    R417703  10.746   5.773   9.136 -0.0685 -0.3010 -0.1921
 1330ERGO    R517704  10.528   5.766   9.141 -0.0764 -0.0813 -0.0970
 1330ERGO    C117705  10.591   5.626   8.792 -0.3482 -0.5088  0.0178
 1330ERGO    C217706  10.573   5.656   8.503 -0.0038 -0.4868  0.0756
 1331ERGO   ROH17707   8.115   8.604   6.346  0.1726  0.0275 -0.0498
 1331ERGO    R117708   8.035   8.735   6.584  0.0663  0.0874 -0.1182
 1331ERGO    R217709   7.814   8.656   6.730  0.1159 -0.0002 -0.0934
 1331ERGO    R317710   7.992   8.645   6.934  0.1132  0.2292 -0.0747
 1331ERGO    R417711   7.730   8.617   7.063  0.1268 -0.1111 -0.1030
 1331ERGO    R517712   7.885   8.762   7.114 -0.0613  0.0930 -0.0851
 1331ERGO    C117713   7.849   8.583   7.449  0.1307  0.0398 -0.0911
 1331ERGO    C217714   7.905   8.327   7.680 -0.0870  0.1613 -0.1582
 1332ERGO   ROH17715   9.344   9.284  10.275  0.1475  0.2973 -0.0369
 1332ERGO    R117716   9.517   9.252  10.052  0.1689  0.1909 -0.0063
 1332ERGO    R217717   9.520   9.023   9.898  0.1437  0.1375  0.0667
 1332ERGO    R317718   9.479   9.199   9.694  0.2005  0.0812  0.0072
 1332ERGO    R417719   9.534   8.944   9.562 -0.0929 -0.0257  0.0930
 1332ERGO    R517720   9.636   9.133   9.526  0.0579 -0.1331 -0.0426
 1332ERGO    C117721   9.505   9.063   9.175 -0.1774 -0.1734  0.0525
 1332ERGO    C217722   9.540   9.052   8.836  0.0221  0.0731  0.2084
 1333ERGO   ROH17723  15.899   2.783   8.980  0.0387  0.0988 -0.0129
 1333ERGO    R117724  15.883   2.742   8.700  0.0762 -0.0055 -0.0002
 1333ERGO    R217725  15.795   2.504   8.589  0.0179 -0.0206  0.0772
 1333ERGO    R317726  15.621   2.666   8.458  0.0952 -0.0133 -0.0182
 1333ERGO    R417727  15.632   2.423   8.296  0.0440 -0.0805  0.0789
 1333ERGO    R517728  15.665   2.627   8.227  0.1242 -0.1184  0.0049
 1333ERGO    C117729  15.373   2.528   8.002  0.1319 -0.1085 -0.0097
 1333ERGO    C217730  15.122   2.534   7.754 -0.2841 -0.2717  0.0939
 1334ERGO   ROH17731  14.447   5.551   9.332  0.1922  0.1282  0.0525
 1334ERGO    R117732  14.339   5.555   9.071  0.1280 -0.0493  0.0747
 1334ERGO    R217733  14.244   5.786   8.952  0.0159 -0.1448 -0.0266
 1334ERGO    R317734  14.417   5.717   8.754 -0.0057 -0.1870 -0.0304
 1334ERGO    R417735  14.190   5.838   8.615  0.0140 -0.1419 -0.0253
 1334ERGO    R517736  14.277   5.642   8.576 -0.0288 -0.1617 -0.0231
 1334ERGO    C117737  14.321   5.803   8.233 -0.0074 -0.1797 -0.0282
 1334ERGO    C217738  14.279   5.938   7.918  0.3370 -0.0176  0.1526
 1335ERGO   ROH17739  13.746   7.358   9.863 -0.0815 -0.3008  0.0939
 1335ERGO    R117740  13.732   7.415   9.586 -0.1417 -0.0308  0.1505
 1335ERGO    R217741  13.883   7.279   9.398 -0.0512  0.2716  0.0028
 1335ERGO    R317742  13.641   7.235   9.283 -0.0250  0.2048 -0.0289
 1335ERGO    R417743  13.836   7.169   9.074  0.0363 -0.1319  0.1211
 1335ERGO    R517744  13.669   7.308   9.056  0.0858 -0.0929 -0.1184
 1335ERGO    C117745  13.581   7.064   8.777  0.1118 -0.4295  0.1602
 1335ERGO    C217746  13.491   7.041   8.389  0.0508 -0.3219 -0.1204
 1336ERGO   ROH17747   7.262  17.078   9.849 -0.1540 -0.1401  0.0583
 1336ERGO    R117748   7.423  17.137   9.623 -0.0395 -0.0015  0.1743
 1336ERGO    R217749   7.523  16.941   9.457  0.0476  0.1011  0.1082
 1336ERGO    R317750   7.401  17.089   9.263  0.1462  0.2145  0.1310
 1336ERGO    R417751   7.521  16.862   9.120 -0.0949  0.0918  0.1102
 1336ERGO    R517752   7.549  17.073   9.075  0.0976  0.0684  0.1006
 1336ERGO    C117753   7.406  16.954   8.743 -0.0854  0.1931  0.1329
 1336ERGO    C217754   7.354  16.928   8.356 -0.2880 -0.3596  0.2162
 1337ERGO   ROH17755   9.243  10.090  10.212 -0.2194  0.0095 -0.0185
 1337ERGO    R117756   9.213  10.169   9.942 -0.2148 -0.1239 -0.0581
 1337ERGO    R217757   9.428  10.214   9.775 -0.2074  0.0303 -0.0034
 1337ERGO    R317758   9.301  10.035   9.615  0.0249 -0.1603  0.0185
 1337ERGO    R417759   9.469  10.191   9.432 -0.0447 -0.0745  0.0211
 1337ERGO    R517760   9.254  10.157   9.414 -0.0099 -0.2851 -0.0527
 1337ERGO    C117761   9.373  10.009   9.083  0.2678 -0.3144  0.0561
 1337ERGO    C217762   9.422  10.108   8.744  0.2417 -0.0739 -0.3068
 1338ERGO   ROH17763   1.235   8.823   5.715  0.3708  0.4253 -0.0590
 1338ERGO    R117764   1.354   8.865   5.968  0.2157  0.1998  0.0547
 1338ERGO    R217765   1.206   8.897   6.199  0.0733  0.0322 -0.0134
 1338ERGO    R317766   1.362   8.693   6.289 -0.0158 -0.0651 -0.0770
 1338ERGO    R417767   1.308   8.856   6.527  0.2635  0.0317 -0.0712
 1338ERGO    R517768   1.504   8.795   6.453  0.1720 -0.1305 -0.1933
 1338ERGO    C117769   1.513   8.641   6.802  0.2905 -0.0598 -0.1647
 1338ERGO    C217770   1.586   8.532   7.039  0.3360  0.2738 -0.0805
 1339ERGO   ROH17771   1.894  18.087   9.699  0.0495 -0.0476  0.1066
 1339ERGO    R117772   1.971  18.175   9.441  0.0691 -0.1126  0.0902
 1339ERGO    R217773   2.136  18.027   9.276 -0.0140 -0.2069  0.0949
 1339ERGO    R317774   1.931  18.058   9.099 -0.0126 -0.1329  0.1054
 1339ERGO    R417775   2.167  18.006   8.932  0.0577  0.2451  0.0670
 1339ERGO    R517776   2.030  18.174   8.914 -0.0649  0.1743  0.2610
 1339ERGO    C117777   1.993  18.022   8.566  0.1008  0.5780  0.0606
 1339ERGO    C217778   2.159  17.985   8.198 -0.0127 -0.0415  0.2373
 1340ERGO   ROH17779   3.101   0.889   9.563  0.2167 -0.1222  0.0482
 1340ERGO    R117780   3.006   0.954   9.304  0.0631  0.0391  0.1410
 1340ERGO    R217781   3.114   1.157   9.153  0.2281 -0.1015  0.0498
 1340ERGO    R317782   3.141   0.961   8.966 -0.2392 -0.1411  0.0147
 1340ERGO    R417783   3.155   1.212   8.814  0.4655 -0.1437  0.0705
 1340ERGO    R517784   3.021   1.044   8.776  0.0275  0.2148 -0.0003
 1340ERGO    C117785   3.203   1.060   8.442  0.1650 -0.2054  0.0497
 1340ERGO    C217786   3.049   1.156   8.164 -0.0923  0.0782 -0.0952
 1341ERGO   ROH17787   1.563  16.225   9.177 -0.0526  0.1194 -0.0200
 1341ERGO    R117788   1.635  16.164   8.910  0.1145  0.1337  0.0194
 1341ERGO    R217789   1.448  16.113   8.713  0.2386 -0.0563 -0.0586
 1341ERGO    R317790   1.579  16.311   8.581  0.1324  0.0345 -0.0270
 1341ERGO    R417791   1.482  16.132   8.370  0.3074 -0.0287 -0.0492
 1341ERGO    R517792   1.688  16.199   8.399  0.2521  0.1129 -0.0015
 1341ERGO    C117793   1.626  16.330   8.046  0.2478  0.0727 -0.0140
 1341ERGO    C217794   1.408  16.272   7.788  0.1645  0.1449  0.1664
 1342ERGO   ROH17795  14.932  11.208   9.235 -0.1197 -0.1480  0.1952
 1342ERGO    R117796  14.683  11.246   9.108 -0.0908 -0.0760  0.1583
 1342ERGO    R217797  14.602  11.491   9.010 -0.0607 -0.0206  0.2573
 1342ERGO    R317798  14.567  11.352   8.779 -0.0101  0.0883  0.1838
 1342ERGO    R417799  14.508  11.629   8.707 -0.1312  0.0900  0.3292
 1342ERGO    R517800  14.380  11.456   8.673 -0.0548  0.0580  0.2432
 1342ERGO    C117801  14.421  11.578   8.314 -0.1249  0.2567  0.3019
 1342ERGO    C217802  14.443  11.534   7.830 -0.0642 -0.0365 -0.1041
 1343ERGO   ROH17803  15.195  14.572   6.258  0.0164 -0.2961  0.2718
 1343ERGO    R117804  15.148  14.684   6.513  0.0627 -0.0082  0.1573
 1343ERGO    R217805  15.188  14.543   6.748 -0.0894  0.1863  0.3027
 1343ERGO    R317806  15.346  14.755   6.810  0.0703  0.1240  0.1216
 1343ERGO    R417807  15.250  14.658   7.068  0.2826  0.1954  0.2325
 1343ERGO    R517808  15.235  14.861   6.993  0.2986  0.1950  0.2241
 1343ERGO    C117809  15.433  14.925   7.313  0.6493  0.1421  0.0216
 1343ERGO    C217810  15.448  15.183   7.449  0.0471  0.0097  0.1927
 1344ERGO   ROH17811   6.561   2.800   9.893 -0.0274 -0.2515 -0.0171
 1344ERGO    R117812   6.499   2.902   9.636  0.0161 -0.1649  0.0061
 1344ERGO    R217813   6.694   2.963   9.450  0.0507 -0.0720  0.0692
 1344ERGO    R317814   6.548   2.797   9.291  0.1052 -0.0337 -0.0216
 1344ERGO    R417815   6.696   2.967   9.104  0.0824  0.0851  0.0706
 1344ERGO    R517816   6.480   2.934   9.107  0.0911  0.0334  0.0348
 1344ERGO    C117817   6.560   2.813   8.754  0.1519  0.2126 -0.0137
 1344ERGO    C217818   6.504   2.865   8.380 -0.0781  0.0530 -0.0369
 1345W        W17819  15.020  13.387   2.823 -0.1035 -0.0918  0.1124
 1346W        W17820  10.294  13.290   5.652  0.0697 -0.1015 -0.2489
 1347W        W17821  18.316  11.538   3.237 -0.1054 -0.0865  0.0036
 1348W        W17822   6.470   0.904   3.923  0.1496  0.0772 -0.0134
 1349W        W17823   8.593  11.836   5.160 -0.2544  0.1683 -0.1313
 1350W        W17824  15.377  18.050  15.192  0.1389 -0.0806 -0.1049
 1351W        W17825  16.323   5.012   0.815 -0.1504  0.2092  0.0845
 1352W        W17826  11.303  12.954  15.520 -0.3112  0.1350 -0.0132
 1353W        W17827  12.678   0.171  13.716  0.0946  0.0408  0.1251
 1354W        W17828   6.577   9.469  13.419  0.0341  0.3687  0.1695
 1355W        W17829   4.166   1.897  10.984  0.1704 -0.0494  0.1934
 1356W        W17830   5.639   2.006   4.619  0.3913 -0.1091 -0.1826
 1357W        W17831  11.180  13.435  15.432  0.2721 -0.3541 -0.0636
 1358W        W17832   8.645   4.545  15.418  0.2696  0.3625  0.2202
 1359W        W17833  15.355   4.279   1.796 -0.4129  0.0429  0.2500
 1360W        W17834  16.729  17.672  12.921 -0.0072 -0.2561  0.2029
 1361W        W17835   9.374  14.239  15.037 -0.1008  0.0185  0.1235
 1362W        W17836  17.951  16.440  10.762  0.0644  0.2313  0.1816
 1363W        W17837   4.637   7.373   0.278  0.2234  0.2288  0.3230
 1364W        W17838   6.124  16.220  15.391  0.0584 -0.2331 -0.0515
 1365W        W17839   6.841  12.092  13.303 -0.2338  0.1197  0.1763
 1366W        W17840   3.949  15.877  15.316 -0.2031 -0.0081 -0.3458
 1367W        W17841   6.797   0.025   3.308  0.1390  0.1246 -0.2095
 1368W        W17842   6.478  13.602   1.437  0.0401 -0.1476 -0.1299
 1369W        W17843  18.499  14.991  15.091  0.0062 -0.2119  0.1174
 1370W        W17844  17.788   5.202  14.093  0.4020 -0.0857  0.0389
 1371W        W17845   4.007   5.741   1.568 -0.0051  0.0777 -0.2634
 1372W        W17846   3.570  12.333  14.177 -0.3536  0.2729  0.2408
 1373W        W17847   6.718   3.876   1.760  0.2815  0.0491  0.0017
 1374W        W17848  17.094   3.896   3.161 -0.0924  0.0996  0.0750
 1375W        W17849   4.791  11.204   0.309 -0.0153 -0.1806 -0.2131
 1376W        W17850  13.792  16.095  13.006 -0.1509 -0.1101  0.2264
 1377W        W17851   7.536  13.208  12.514  0.1800  0.2355 -0.0166
 1378W        W17852  12.755   6.181   0.025 -0.1539 -0.1515 -0.2029
 1379W        W17853  10.420   4.849   4.686 -0.1254  0.2121 -0.3904
 1380W        W17854   3.089  11.389  10.112 -0.0314  0.1915 -0.2087
 1381W        W17855   1.194  16.090   0.466 -0.1723 -0.2705 -0.2660
 1382W        W17856  16.750   5.124   3.228  0.2399  0.0088 -0.1476
 1383W        W17857  12.068  17.958   3.309 -0.2336 -0.0077 -0.1529
 1384W        W17858  13.967  16.880   5.372  0.1446 -0.2365  0.4477
 1385W        W17859   1.651  12.353  14.860 -0.4162 -0.2116 -0.0372
 1386W        W17860   2.581   0.859  13.339  0.0254  0.0964  0.1299
 1387W        W17861   2.133  13.759  10.707 -0.0301  0.0050 -0.1835
 1388W        W17862  10.885   4.328   2.911 -0.1329  0.0584 -0.1382
 1389W        W17863   3.351   0.104   2.185 -0.0035  0.0910  0.0243
 1390W        W17864  10.447  12.316   4.009  0.0278 -0.3549 -0.1178
 1391W        W17865  15.707  18.802  14.258  0.2957 -0.0694 -0.3602
 1392W        W17866   7.860  12.013  12.491  0.0771 -0.1943  0.0479
 1393W        W17867   3.559  16.240   3.651  0.5233  0.0570 -0.1043
 1394W        W17868  14.412  12.108   5.312 -0.3122  0.0508  0.1618
 1395W        W17869   5.342  14.066  11.088 -0.1144 -0.1521  0.3062
 1396W        W17870   3.543   1.625  13.369  0.0548  0.0029  0.0777
 1397W        W17871   8.957   9.690   3.814  0.1275  0.0279 -0.0109
 1398W        W17872   3.850  14.869  12.350 -0.2230 -0.3712 -0.0862
 1399W        W17873  18.290   7.825   0.159  0.2717 -0.2015 -0.0553
 1400W        W17874  16.777   1.362   2.981  0.2324  0.1924  0.3087
 1401W        W17875  10.281  13.157  11.351  0.1613 -0.4105 -0.0205
 1402W        W17876   8.916  10.788   4.118  0.3759 -0.0186  0.3769
 1403W        W17877  14.242  17.529   3.590 -0.0391  0.4833  0.0410
 1404W        W17878   6.226  13.340   4.318 -0.0567 -0.0934 -0.2013
 1405W        W17879   6.366   4.640   5.248  0.0318  0.2170 -0.2177
 1406W        W17880  16.759   3.760  15.074 -0.2222  0.4015 -0.2557
 1407W        W17881  15.214   8.996  15.675  0.0804 -0.0422  0.0258
 1408W        W17882  11.241   6.573  12.366 -0.0480  0.0850 -0.3094
 1409W        W17883   5.766   2.523   4.256  0.0653 -0.0133  0.1035
 1410W        W17884  13.081   3.711   5.153  0.1096 -0.0008  0.3355
 1411W        W17885  12.456   5.078   1.505 -0.0311  0.0264 -0.1217
 1412W        W17886  17.283  12.091  13.073  0.0750  0.3657  0.2895
 1413W        W17887  17.666  15.950  11.611 -0.5152 -0.0851 -0.2424
 1414W        W17888  16.878  18.828  13.208 -0.1375  0.0138 -0.0973
 1415W        W17889  10.623   3.898  14.258 -0.2679  0.0184 -0.2454
 1416W        W17890   3.956  16.529  14.191  0.1734  0.0457  0.0000
 1417W        W17891  10.930   6.344   2.443 -0.0771  0.2428 -0.1710
 1418W        W17892   6.713   8.215   0.042 -0.3355  0.1937  0.1082
 1419W        W17893  16.609  11.492   1.341  0.2451 -0.3202 -0.2218
 1420W        W17894   3.452   3.428  13.423 -0.1217 -0.3288  0.2612
 1421W        W17895  15.299   8.384   4.401 -0.0495  0.2738 -0.0068
 1422W        W17896   8.843  12.972  12.348 -0.2507  0.0512 -0.0258
 1423W        W17897   8.184   3.380   3.510 -0.0264 -0.3983  0.0971
 1424W        W17898   9.638  12.372   4.354  0.0878  0.3954 -0.0185
 1425W        W17899   0.237  12.377   2.695  0.3118  0.1110 -0.0244
 1426W        W17900  16.023   3.152   0.892  0.2975  0.0126  0.1290
 1427W        W17901  11.144  17.950  12.271 -0.0985  0.1228  0.1877
 1428W        W17902   6.511   2.100   2.306  0.1206  0.1120  0.3000
 1429W        W17903   5.049  10.817   0.006  0.0731  0.1892 -0.3123
 1430W        W17904  15.513   7.673  12.562 -0.0057 -0.2733  0.0236
 1431W        W17905  16.138  14.850  10.408 -0.1873 -0.1041  0.1438
 1432W        W17906  15.569  17.883  10.173  0.0959 -0.0442 -0.0773
 1433W        W17907  11.272  17.370  13.011 -0.3228 -0.1889  0.0586
 1434W        W17908   7.974   5.429  12.103  0.1093  0.2453  0.0659
 1435W        W17909  14.246   8.170  15.372 -0.0155 -0.0305 -0.0447
 1436W        W17910  11.286   1.371   2.540  0.0844  0.0866  0.0488
 1437W        W17911  14.016  12.713  13.668 -0.0293 -0.0261  0.0175
 1438W        W17912  16.792  17.415  13.610  0.1482  0.1665  0.2361
 1439W        W17913  13.145   3.414  11.813  0.1074 -0.0745  0.1346
 1440W        W17914  11.503  15.838   2.227  0.4632 -0.0298  0.0120
 1441W        W17915  16.170  15.919  14.651  0.1032 -0.3294 -0.3151
 1442W        W17916   1.107   5.879  11.466  0.3695  0.2280  0.3008
 1443W        W17917  12.617   1.054   3.363 -0.0794 -0.3123 -0.2907
 1444W        W17918  13.878   1.422  15.278 -0.1116 -0.4349 -0.1240
 1445W        W17919   9.375  13.405   3.675 -0.0174 -0.3666 -0.0394
 1446W        W17920   9.406   2.415   5.056 -0.0338 -0.1861  0.1371
 1447W        W17921  11.349   2.557   4.832  0.1563 -0.3279  0.0159
 1448W        W17922   3.183   0.891  13.917 -0.0953 -0.2743  0.4133
 1449W        W17923   4.811   1.592   1.645 -0.0826 -0.1053 -0.3102
 1450W        W17924  14.082   0.902  15.575  0.2032  0.3426  0.1412
 1451W        W17925   0.947   5.994   5.058  0.2480 -0.1626 -0.4073
 1452W        W17926  16.538   3.117  12.556  0.0417 -0.0614 -0.1668
 1453W        W17927  16.345   2.989   5.039 -0.2389 -0.2763  0.0408
 1454W        W17928   1.401  14.039   2.122  0.0494 -0.0520 -0.0636
 1455W        W17929   3.972  17.940   4.493  0.0049  0.3282  0.3741
 1456W        W17930  12.781   2.985  14.634  0.1183  0.0625 -0.2622
 1457W        W17931   9.177  16.566   4.774 -0.1853  0.2268  0.1562
 1458W        W17932  16.328  10.342  11.736  0.1689  0.1261 -0.0061
 1459W        W17933  16.637   5.908  15.434  0.0168  0.1391  0.0276
 1460W        W17934  18.224  18.422   1.391 -0.1463  0.1428  0.2030
 1461W        W17935   1.356  16.285  14.131  0.0731 -0.3208 -0.0652
 1462W        W17936   1.744   8.955  13.516 -0.4498 -0.0304  0.2618
 1463W        W17937  16.379   6.318  14.299 -0.1037  0.0310 -0.1654
 1464W        W17938  14.569  16.797  12.868  0.2181  0.0076  0.1080
 1465W        W17939   4.743  14.767   5.347  0.0159 -0.1319  0.0731
 1466W        W17940   4.732   4.444  14.321 -0.2109  0.0173  0.0365
 1467W        W17941   7.120   6.960   4.511  0.2371  0.0972 -0.1982
 1468W        W17942   5.347   2.680  14.357  0.0465  0.0074  0.0991
 1469W        W17943   8.735   4.409  13.511  0.1624  0.0229  0.1296
 1470W        W17944   8.375   7.360  13.951  0.1839  0.2600  0.3419
 1471W        W17945  10.776   1.961   1.538 -0.4036  0.0777  0.0008
 1472W        W17946  14.739   7.592  12.283  0.0299 -0.0578 -0.0655
 1473W        W17947   8.203  17.565   1.987 -0.3907  0.2494 -0.3201
 1474W        W17948  11.508   0.843   3.668 -0.0534 -0.0424 -0.3501
 1475W        W17949   7.098   0.059  11.054  0.1289  0.0831 -0.0500
 1476W        W17950   6.649   7.217   2.743 -0.3926 -0.1092 -0.3854
 1477W        W17951  14.364   4.053   4.030 -0.0754  0.1246 -0.0433
 1478W        W17952   5.186  12.335  15.454 -0.0944  0.1118  0.2264
 1479W        W17953  18.132   0.591  11.139  0.1680 -0.0350  0.0585
 1480W        W17954  12.062   7.025   2.390 -0.2829  0.2149 -0.0265
 1481W        W17955  11.882   4.804   3.470  0.3013  0.0655  0.2182
 1482W        W17956   7.273   1.348   3.896  0.0569  0.0226 -0.2231
 1483W        W17957   6.352   0.423   3.203  0.3146 -0.2162 -0.0220
 1484W        W17958   5.748  11.181  12.120 -0.1531  0.2744 -0.0076
 1485W        W17959   2.076   3.484   2.268 -0.1972  0.1747  0.0999
 1486W        W17960  18.200  14.520   0.351 -0.1476  0.4394  0.1784
 1487W        W17961   5.696   8.401   5.295 -0.1795 -0.2037 -0.0807
 1488W        W17962   0.284  10.099  12.316  0.0355  0.0666 -0.1344
 1489W        W17963  18.604  12.374  11.083  0.0494  0.3843 -0.3075
 1490W        W17964   6.530   4.357   3.533  0.1152 -0.3171  0.3355
 1491W        W17965  11.658   1.093   0.297  0.1374  0.2447 -0.1716
 1492W        W17966   1.547   4.418  13.503  0.0914 -0.2732  0.1253
 1493W        W17967  18.469   8.055  13.775  0.0574  0.2261  0.1144
 1494W        W17968   7.507   5.068  14.631  0.0253  0.2555 -0.2810
 1495W        W17969   3.706  12.635  13.664  0.0845 -0.1280  0.3060
 1496W        W17970   8.542  13.167   3.499  0.1208  0.2824 -0.0245
 1497W        W17971  12.447  17.324   1.644 -0.4089 -0.1143  0.2536
 1498W        W17972  10.678   1.625   4.244 -0.0162  0.0209  0.3408
 1499W        W17973   6.143   5.039   2.367  0.2370 -0.1070 -0.2903
 1500W        W17974  15.223  18.470   5.214  0.0980 -0.0910 -0.0455
 1501W        W17975  17.715   9.770  15.224  0.0838 -0.0967  0.1567
 1502W        W17976  11.595   8.053  15.520 -0.0202  0.0622  0.0803
 1503W        W17977   4.096  18.043  14.890  0.1969  0.0588 -0.0577
 1504W        W17978  10.343   4.384   2.816 -0.1785 -0.0869 -0.1242
 1505W        W17979   4.228   3.333   1.191  0.2522  0.1772 -0.2109
 1506W        W17980   0.215  12.447  12.375 -0.0865  0.1036  0.1506
 1507W        W17981  12.339   7.776   0.039 -0.0424 -0.3248 -0.0046
 1508W        W17982  16.442   4.009   3.856  0.0102 -0.2121  0.3106
 1509W        W17983  13.380   7.333   2.658  0.1871 -0.0956 -0.0877
 1510W        W17984   5.514   8.353   0.771 -0.0131  0.0712  0.2487
 1511W        W17985   0.799   4.928   4.653  0.1804 -0.2095  0.4640
 1512W        W17986   1.460   0.948  14.768  0.0756  0.1652 -0.0482
 1513W        W17987   8.917   0.567  11.067  0.0029 -0.0959 -0.0842
 1514W        W17988   2.965  17.166  13.309 -0.0862  0.1975 -0.0109
 1515W        W17989   7.609  11.153  12.225  0.0932  0.3857 -0.2236
 1516W        W17990   4.322   9.136  10.868 -0.1113 -0.1413 -0.1340
 1517W        W17991   8.033  11.132   3.142 -0.0568 -0.1052 -0.1590
 1518W        W17992  17.359   0.464   2.006 -0.1300  0.0311  0.2822
 1519W        W17993   5.690  10.693  15.361  0.2308 -0.1022 -0.0415
 1520W        W17994  12.203   3.038  11.365 -0.2810  0.0279  0.0170
 1521W        W17995  12.387   7.436  13.411 -0.0568 -0.1870 -0.2703
 1522W        W17996   5.186  10.940   4.142  0.2253  0.1699  0.1128
 1523W        W17997  10.768   0.632   1.403 -0.0582 -0.2963  0.1366
 1524W        W17998   8.837   8.149  15.092  0.1059  0.3736  0.0615
 1525W        W17999  11.894  13.905   3.346 -0.0010 -0.0801 -0.0526
 1526W        W18000  17.600   2.505  11.705  0.2361  0.1575 -0.1267
 1527W        W18001   7.078  12.622  13.563  0.1466 -0.2221 -0.0949
 1528W        W18002   2.580  12.465  14.925 -0.0723 -0.3003  0.0354
 1529W        W18003  12.809   0.922  15.507 -0.1772  0.0361 -0.0848
 1530W        W18004   1.956  10.398   2.483  0.0862 -0.0020  0.2457
 1531W        W18005  18.799  13.366   0.546  0.1709 -0.0613  0.1538
 1532W        W18006   5.946  13.006  10.766  0.0873 -0.0084  0.2563
 1533W        W18007   8.666   1.546  10.960 -0.1492  0.1894  0.0175
 1534W        W18008  16.822   7.127   5.190 -0.0174  0.2545 -0.3317
 1535W        W18009   7.643  15.674  14.369 -0.0128  0.3003 -0.0983
 1536W        W18010  15.890   7.427   4.907  0.1304  0.0652 -0.0295
 1537W        W18011  18.135  16.545   1.170  0.0389 -0.0289  0.3096
 1538W        W18012   5.754   1.891   1.059 -0.0163 -0.0624  0.0755
 1539W        W18013  14.569   8.432   4.805  0.1493 -0.0025 -0.0362
 1540W        W18014   3.727   7.616  12.650  0.2828  0.0741  0.0322
 1541W        W18015  16.105  13.748  13.169  0.2311 -0.2912  0.2619
 1542W        W18016   3.569  18.806  14.085  0.1662  0.0488 -0.1080
 1543W        W18017  18.119   7.801   1.139  0.0524 -0.1455 -0.3836
 1544W        W18018  10.254  11.339  13.531 -0.2705 -0.0767 -0.2418
 1545W        W18019  15.726   8.908  14.830  0.3190 -0.0744 -0.2617
 1546W        W18020   4.374   5.654   4.309  0.0319 -0.0649 -0.3910
 1547W        W18021   3.432  15.167  12.170  0.0684  0.0161 -0.1219
 1548W        W18022  15.890  10.186   2.047  0.1513  0.2873  0.1566
 1549W        W18023  14.970  16.755   2.767  0.1934  0.1120  0.1756
 1550W        W18024  18.552   8.807  11.750  0.2410  0.2442  0.3279
 1551W        W18025   1.360   8.110  12.059  0.0200  0.1869 -0.0178
 1552W        W18026   9.012  14.048  12.579 -0.3950  0.0975 -0.0095
 1553W        W18027  11.553  14.848   4.726  0.1176 -0.4100  0.1847
 1554W        W18028  11.748  14.684  14.363 -0.2329  0.1611  0.1603
 1555W        W18029   5.733  13.700   4.419 -0.0752 -0.0507  0.1453
 1556W        W18030  18.563   7.831   4.661  0.0702  0.0936 -0.3194
 1557W        W18031   9.926  15.629  15.075 -0.0920 -0.2173 -0.2124
 1558W        W18032  16.832  17.317   4.095  0.0205  0.0266  0.0154
 1559W        W18033   6.648   2.675   5.644 -0.0300 -0.1872  0.0027
 1560W        W18034   4.217  11.585   5.430 -0.0877 -0.4066 -0.2909
 1561W        W18035   1.249  15.823   0.033 -0.1146 -0.3194 -0.2735
 1562W        W18036  12.728  17.204   3.343  0.1561  0.1633 -0.0111
 1563W        W18037  12.367   1.978  14.709 -0.1869 -0.0471  0.0047
 1564W        W18038  12.287   9.205  12.521  0.0105 -0.0907 -0.1663
 1565W        W18039  10.963  17.744   1.008  0.1330  0.3385  0.1563
 1566W        W18040   5.294  13.624  11.528 -0.1033  0.3250 -0.1621
 1567W        W18041   3.887  18.651   1.052  0.3833  0.0713 -0.3000
 1568W        W18042   7.769  17.587   3.924 -0.1156 -0.1779 -0.0867
 1569W        W18043   2.433   0.099   2.118 -0.2840 -0.0055  0.0770
 1570W        W18044   6.392  17.810   2.741  0.0172 -0.1243 -0.1814
 1571W        W18045   9.649  14.790   2.193 -0.1634 -0.0740  0.4292
 1572W        W18046  15.549  18.733   2.914  0.1435  0.1972 -0.1322
 1573W        W18047   5.420   6.043   5.008  0.0156  0.1804  0.3492
 1574W        W18048  13.822  18.289  11.105  0.0395 -0.0349  0.2503
 1575W        W18049  11.162  13.750   5.412 -0.1525  0.0329  0.0248
 1576W        W18050  10.239  17.179  12.299  0.0622  0.2205 -0.1341
 1577W        W18051  14.531   4.917   5.504  0.2720  0.0339 -0.0930
 1578W        W18052   9.269   3.498   1.941 -0.0414  0.1181  0.3660
 1579W        W18053  18.348   1.968  12.027  0.3532 -0.0935  0.1437
 1580W        W18054  15.838  10.377  13.660  0.0113 -0.0236 -0.3731
 1581W        W18055   3.108   0.081  14.171 -0.2636 -0.0605 -0.5032
 1582W        W18056  16.793   9.311   2.793  0.0449 -0.2193  0.0773
 1583W        W18057   1.771   3.918   4.378 -0.2681 -0.2572  0.0825
 1584W        W18058   5.616  17.552  13.703  0.0933 -0.0882  0.2117
 1585W        W18059  10.614  13.138  13.290 -0.1012  0.0318  0.0540
 1586W        W18060  17.693   0.195  13.119  0.2368 -0.1110  0.2105
 1587W        W18061  15.217   0.644  15.171 -0.2522 -0.3308 -0.2627
 1588W        W18062  12.047  16.622  14.231  0.2343  0.1793  0.3177
 1589W        W18063  11.305   9.810   1.741 -0.1600  0.3616 -0.0231
 1590W        W18064  16.306  10.869  15.007  0.4176 -0.0517 -0.2046
 1591W        W18065   5.777  10.856   1.248  0.1545 -0.0296  0.0743
 1592W        W18066  10.972   3.865  14.643 -0.2149 -0.3068 -0.1759
 1593W        W18067   8.279   3.758   4.387 -0.0584  0.1591 -0.2091
 1594W        W18068   9.978   3.570   3.841  0.1188 -0.0808  0.0779
 1595W        W18069   2.340   4.570  11.173 -0.0075 -0.1191 -0.3329
 1596W        W18070  14.617   7.569  13.564  0.2072  0.0745 -0.3644
 1597W        W18071  12.503   9.105  15.279  0.2502  0.2177 -0.2849
 1598W        W18072  17.457  14.850   3.456 -0.1157  0.2275  0.3110
 1599W        W18073   4.369  17.939   0.294 -0.2470  0.1463  0.1042
 1600W        W18074   6.424   4.012   2.612  0.0799  0.0862 -0.2531
 1601W        W18075   5.438   9.431   1.783  0.4421 -0.3710  0.0536
 1602W        W18076   8.301   7.878  11.922  0.1706 -0.2014 -0.3966
 1603W        W18077   3.244  16.103   0.325  0.0841 -0.0936  0.0562
 1604W        W18078   2.621  14.496   0.021 -0.2407 -0.2117  0.1062
 1605W        W18079   3.748  16.348   1.928  0.1734  0.0869  0.1746
 1606W        W18080   5.483   6.672   2.798 -0.3806  0.1544  0.2430
 1607W        W18081  13.761   3.054  11.888 -0.5109  0.2882  0.5125
 1608W        W18082   5.614   8.253   0.297 -0.3132  0.4140  0.0783
 1609W        W18083  11.341   2.136   5.385  0.2266  0.0829  0.0103
 1610W        W18084   4.798  17.793  11.599  0.2590 -0.3878 -0.1393
 1611W        W18085   7.830   0.183   0.544  0.0029 -0.2543 -0.0525
 1612W        W18086   0.238   7.741  13.020 -0.0116  0.1695 -0.0309
 1613W        W18087   3.747  12.134   0.108 -0.0584  0.0883  0.1467
 1614W        W18088  18.570  18.787   3.441  0.0186  0.2791 -0.1436
 1615W        W18089   7.707   8.678  14.649  0.2399  0.0601  0.1683
 1616W        W18090  10.415  13.466   1.625 -0.2372  0.0143  0.1796
 1617W        W18091   6.559  12.474  14.237  0.1037  0.2021 -0.0321
 1618W        W18092  18.350  12.402  14.060  0.0321  0.1814 -0.0253
 1619W        W18093  13.953  11.011   4.049  0.0273 -0.0935 -0.0780
 1620W        W18094  17.565  18.712  10.914  0.1613 -0.1000 -0.2379
 1621W        W18095   9.028   5.467   3.034  0.2362 -0.0958  0.0803
 1622W        W18096  12.222  14.265  12.244  0.0276  0.0282 -0.2240
 1623W        W18097   0.533   8.794  11.230  0.0584  0.2781 -0.1461
 1624W        W18098   6.276  11.457  11.468  0.0235  0.2123 -0.0472
 1625W        W18099   1.612   9.376   1.715  0.0360 -0.1714  0.0936
 1626W        W18100   6.969   1.605   3.097 -0.0058  0.0394 -0.1652
 1627W        W18101   9.379   0.563   3.557 -0.1599 -0.0542  0.0496
 1628W        W18102  13.228   0.161   2.546 -0.1690 -0.2881 -0.3882
 1629W        W18103   8.432   5.130   4.138  0.5608 -0.1445  0.0022
 1630W        W18104  18.809  13.835   1.086  0.3736  0.0848  0.0329
 1631W        W18105   8.839   3.615  13.687  0.0016  0.1187  0.1099
 1632W        W18106  10.172   3.525   4.299  0.3541 -0.3601  0.0236
 1633W        W18107  11.011  12.907   1.350 -0.1378  0.0066  0.3725
 1634W        W18108   0.537   9.723  10.845  0.0078  0.2690  0.1351
 1635W        W18109  18.434   1.131  14.889  0.0688 -0.2629 -0.3476
 1636W        W18110   8.611   3.673   2.611 -0.3297  0.2769 -0.0990
 1637W        W18111  16.253   7.178  11.453  0.0934  0.2487 -0.0955
 1638W        W18112   9.182  15.254  11.138 -0.1800  0.2936  0.2095
 1639W        W18113   1.423  12.246  11.114 -0.1239  0.0001 -0.0844
 1640W        W18114  14.387   0.813   2.160  0.0036 -0.0780  0.4778
 1641W        W18115   3.561  10.427   5.367 -0.1438  0.3262  0.0494
 1642W        W18116   7.441  16.186   1.643  0.1645  0.0001  0.0559
 1643W        W18117  14.224  17.556   1.789  0.1203 -0.1299  0.1089
 1644W        W18118  13.440   5.324  11.556 -0.0714  0.0788  0.0976
 1645W        W18119  11.704   9.606   3.479  0.1910  0.1412  0.2221
 1646W        W18120  11.202   1.330  14.252 -0.3303 -0.0747 -0.0500
 1647W        W18121   4.776   7.343  13.700  0.0116  0.0191  0.0842
 1648W        W18122  10.779   6.153   3.000 -0.2623  0.1479 -0.0983
 1649W        W18123   4.276   4.030  13.150 -0.1012 -0.4331 -0.2487
 1650W        W18124  12.979  13.973   1.871  0.0138  0.2725  0.0250
 1651W        W18125  12.288  11.653   5.875  0.1299  0.1058 -0.1020
 1652W        W18126  18.144   5.189   1.731 -0.2452  0.1369 -0.4884
 1653W        W18127  16.907   6.048   3.090  0.0239 -0.3167 -0.2685
 1654W        W18128  17.928   5.487  15.532 -0.1798  0.0360  0.3377
 1655W        W18129  11.582   7.394   1.525 -0.2444  0.0524  0.0397
 1656W        W18130  17.696   5.902   2.454  0.0584  0.0010 -0.0566
 1657W        W18131  18.286  12.963  14.243  0.2601  0.1121  0.0346
 1658W        W18132  16.384  10.220  14.364  0.2198  0.2236  0.1674
 1659W        W18133   5.264   4.122   1.373 -0.0119 -0.0880  0.0613
 1660W        W18134  12.262   5.377  10.566  0.0269 -0.5786 -0.2012
 1661W        W18135  15.221  16.861   3.213 -0.3612 -0.2434 -0.0117
 1662W        W18136   6.350   6.816   2.254  0.1381 -0.0526  0.0253
 1663W        W18137   9.604  17.453   1.877 -0.2053 -0.2661  0.1733
 1664W        W18138  16.489  13.429  14.959 -0.1422 -0.0824  0.2145
 1665W        W18139   1.870  14.291   0.960 -0.1067 -0.0585 -0.2536
 1666W        W18140   5.990  17.920   2.382  0.1639 -0.0225 -0.1804
 1667W        W18141  16.918   5.715   3.992 -0.0136  0.0270 -0.0708
 1668W        W18142   3.970   1.128   2.546  0.1662 -0.1263  0.3053
 1669W        W18143   3.246  12.280   4.335 -0.1049  0.2000  0.1420
 1670W        W18144  16.219  17.047   2.546  0.0179 -0.2035  0.2474
 1671W        W18145  15.273  12.146  13.656 -0.0679  0.2370 -0.0068
 1672W        W18146  12.246  17.685  15.320 -0.1039 -0.2303  0.4229
 1673W        W18147   7.946   7.902  15.363 -0.1765 -0.1403  0.0193
 1674W        W18148   0.507   6.462  15.586 -0.0434 -0.0476  0.1589
 1675W        W18149  15.347   3.302  12.651 -0.1329 -0.0772 -0.2635
 1676W        W18150  12.413   8.005   4.067  0.3958  0.2881  0.0334
 1677W        W18151   2.040   9.831  11.619 -0.4475 -0.1913 -0.1207
 1678W        W18152  17.180   4.248   0.460 -0.0032 -0.0838  0.1679
 1679W        W18153  16.448   5.126  14.600 -0.0925 -0.0358 -0.0772
 1680W        W18154   6.899   1.163   3.540 -0.0422 -0.0738  0.2239
 1681W        W18155   9.855   9.240   0.756 -0.0085 -0.0776 -0.1562
 1682W        W18156   7.888  15.602  12.192  0.0165  0.2988 -0.0741
 1683W        W18157  11.766  16.562   5.166  0.1848  0.0298 -0.2374
 1684W        W18158   8.629  18.155   6.036  0.1655  0.1344 -0.1953
 1685W        W18159   0.943  14.975   4.048  0.1374 -0.1276 -0.0522
 1686W        W18160   9.210  12.928   3.827  0.2774  0.1287  0.1374
 1687W        W18161  15.037  15.140  11.755 -0.1563 -0.0746 -0.0550
 1688W        W18162  15.688   5.066   2.281  0.0619  0.0707 -0.0315
 1689W        W18163  15.314  12.915   2.861  0.2742 -0.1645  0.0203
 1690W        W18164  13.906   5.316   5.039 -0.1409  0.1629  0.0090
 1691W        W18165   6.907  15.044   4.034 -0.0653  0.1611 -0.3527
 1692W        W18166  13.425  14.912  11.901  0.0242 -0.3544 -0.0440
 1693W        W18167   6.212  11.433   5.242  0.0324  0.1056 -0.1700
 1694W        W18168   7.136   0.570  15.682  0.1299 -0.3973  0.1511
 1695W        W18169  15.852  15.693  13.734 -0.0059  0.1619  0.0168
 1696W        W18170  11.887  11.621   5.467  0.2742 -0.2696  0.0519
 1697W        W18171  14.269   6.561   3.707 -0.0695 -0.1458  0.3205
 1698W        W18172   2.242   4.498   2.627 -0.0660 -0.1001  0.0598
 1699W        W18173  11.091   4.874   2.750  0.0792 -0.2608 -0.3774
 1700W        W18174   7.508   3.164  12.438  0.0370  0.1097  0.2808
 1701W        W18175  12.401   7.480   5.070 -0.1723 -0.2965 -0.1374
 1702W        W18176   7.401   2.330   0.597 -0.3015 -0.1702 -0.3987
 1703W        W18177   8.924   2.982   5.416 -0.1006 -0.0259 -0.0049
 1704W        W18178   7.807   8.187  12.674  0.3330  0.0081 -0.1175
 1705W        W18179   9.049  11.768  11.257 -0.0458  0.0119 -0.0584
 1706W        W18180  16.284   1.695   2.445  0.1523 -0.1080  0.0998
 1707W        W18181  15.538   5.917  14.516 -0.0317  0.0709 -0.0666
 1708W        W18182   9.351   0.873   0.676  0.0121 -0.0498 -0.3213
 1709W        W18183   5.868   5.643  13.676 -0.3558 -0.1601 -0.0324
 1710W        W18184   9.808  16.396   5.631  0.2321 -0.0238  0.0976
 1711W        W18185  15.149   4.156   1.050  0.2481  0.0656 -0.0178
 1712W        W18186  18.215  11.752   1.914  0.2000 -0.0860 -0.1618
 1713W        W18187   2.708   5.486  10.842 -0.2673 -0.0102 -0.0944
 1714W        W18188  17.809  10.412   1.421 -0.0215  0.3292 -0.3566
 1715W        W18189  13.429   7.184  11.322  0.0372  0.1205  0.2865
 1716W        W18190  14.496  13.912   2.960  0.2419 -0.1333 -0.1457
 1717W        W18191   2.839   1.943   2.876  0.1092  0.2473  0.4576
 1718W        W18192   3.797   9.114  12.732  0.1065  0.2061  0.0860
 1719W        W18193   0.764   9.060   1.725  0.2371 -0.0134  0.0582
 1720W        W18194   8.375  10.310   2.628  0.1547 -0.0687  0.1785
 1721W        W18195  10.182  15.794  14.469  0.1864  0.0606  0.0734
 1722W        W18196   1.325  17.902  13.330 -0.0261  0.3451  0.1206
 1723W        W18197  18.057  12.322   0.802 -0.0323  0.1634  0.0404
 1724W        W18198   1.697  12.240  12.986 -0.0726 -0.1244  0.0965
 1725W        W18199   2.383   2.323  15.028 -0.1096 -0.0080 -0.0137
 1726W        W18200   6.928   4.327   3.288 -0.0852 -0.0743  0.1630
 1727W        W18201  16.389   8.554  15.229  0.0013  0.3394 -0.3059
 1728W        W18202   8.671  11.912   1.734 -0.1365 -0.0469 -0.1370
 1729W        W18203   5.484  15.477  15.085  0.1489  0.2131 -0.1994
 1730W        W18204  15.750  17.117  15.232 -0.1094 -0.2718  0.0417
 1731W        W18205  17.034   2.115  15.573  0.1833 -0.0358  0.1089
 1732W        W18206   5.304  13.794  13.446 -0.0800  0.0548  0.0032
 1733W        W18207  18.058  18.088  13.231  0.0736 -0.3026  0.2126
 1734W        W18208  14.915   3.822  12.034 -0.0092 -0.2179  0.0933
 1735W        W18209  17.754  12.989  13.595  0.0539  0.1396  0.0748
 1736W        W18210   5.915   8.803  13.347 -0.1479 -0.0431  0.1646
 1737W        W18211   3.696  14.993   4.104 -0.0515  0.1571  0.1604
 1738W        W18212   0.998  14.687  15.610 -0.0888 -0.0121 -0.0008
 1739W        W18213   3.347   8.299  12.350  0.1687 -0.1863  0.3414
 1740W        W18214  18.084  11.870  10.984  0.0523 -0.0857 -0.2905
 1741W        W18215  11.906   3.973   3.602 -0.0846 -0.0091 -0.3108
 1742W        W18216  13.049   6.857  15.497 -0.1801  0.0189  0.1174
 1743W        W18217   0.242   2.018   2.096 -0.0983  0.1163 -0.1803
 1744W        W18218   7.579  18.792  12.322 -0.2649  0.0353 -0.2031
 1745W        W18219   7.720  15.760   1.655 -0.1361 -0.1651 -0.0545
 1746W        W18220  15.464   1.771  10.518 -0.0090 -0.3389  0.1021
 1747W        W18221  13.091  17.168  11.344 -0.3025 -0.1418  0.0544
 1748W        W18222  10.005   7.301  14.078 -0.4403 -0.0979  0.1552
 1749W        W18223  16.218   2.341   4.482 -0.2064 -0.0668 -0.1598
 1750W        W18224   5.499   0.827   1.989  0.0148  0.0537  0.1996
 1751W        W18225  17.615   6.692   0.140 -0.0850  0.0399 -0.2635
 1752W        W18226   0.276   8.225   4.769 -0.0482  0.1747  0.1204
 1753W        W18227   0.163  15.420   4.409 -0.0437 -0.3887  0.0458
 1754W        W18228   8.185   4.886  13.373 -0.3206  0.0285  0.0495
 1755W        W18229  16.751   4.767   1.031 -0.1579  0.0101 -0.3337
 1756W        W18230   4.712  13.370   5.495 -0.2822  0.1377  0.2102
 1757W        W18231  16.750   1.498  12.105 -0.1973  0.0523 -0.0252
 1758W        W18232   1.567  14.233   1.397  0.0166  0.2541 -0.1815
 1759W        W18233   1.282  11.180  10.728  0.0452  0.1051  0.2086
 1760W        W18234   3.195   4.778   2.132 -0.1069 -0.0202 -0.0936
 1761W        W18235   5.627  16.212   2.915  0.3427  0.1678  0.0583
 1762W        W18236   4.863  15.253   5.267  0.1163 -0.0344 -0.0003
 1763W        W18237  15.110  13.299  15.548 -0.0139 -0.1289  0.2186
 1764W        W18238   2.594   8.311  14.920  0.1152  0.1268  0.0644
 1765W        W18239  14.404  11.488  13.828  0.2292 -0.0412 -0.0410
 1766W        W18240  14.769   7.364   0.778 -0.0051 -0.1314 -0.1194
 1767W        W18241   3.769  18.666  13.633  0.0231  0.0150 -0.0030
 1768W        W18242   1.718  10.231  10.634  0.1949 -0.1663  0.1521
 1769W        W18243   9.703  17.048  13.321  0.1180 -0.1159 -0.1008
 1770W        W18244   4.046   1.169  14.066 -0.1977 -0.1001  0.2232
 1771W        W18245  11.724  11.634  15.065 -0.1399  0.1832 -0.1732
 1772W        W18246   4.247  17.381  14.409 -0.0323 -0.0537 -0.2372
 1773W        W18247  10.627  15.710   1.365  0.1442 -0.3346 -0.1454
 1774W        W18248  12.790   7.170   5.729 -0.4464 -0.0871  0.1400
 1775W        W18249   7.477   5.208  12.877  0.1420  0.0349  0.0436
 1776W        W18250  16.931   7.523  14.153  0.0496 -0.1382 -0.2201
 1777W        W18251  18.215  14.746   1.614 -0.2852 -0.3469  0.1868
 1778W        W18252  18.145   5.811   4.835 -0.2303  0.0504  0.1914
 1779W        W18253   3.087  11.664   3.915 -0.0368  0.3519  0.0367
 1780W        W18254  10.927   7.578   5.042  0.3224  0.0258  0.0777
 1781W        W18255  10.283   9.291  15.340 -0.1302  0.1336  0.2553
 1782W        W18256  16.671   8.796   3.788  0.0715  0.2621  0.0663
 1783W        W18257  16.271  17.512  15.204 -0.2180  0.1770 -0.1546
 1784W        W18258  10.719  12.709  14.633 -0.2713 -0.1928  0.3071
 1785W        W18259   4.829   3.613   4.114  0.2762 -0.0909 -0.1172
 1786W        W18260  15.206  14.406  13.910  0.3403  0.1266  0.1640
 1787W        W18261  15.336  10.386   9.853 -0.3836  0.1717  0.0007
 1788W        W18262  11.250  12.116   5.228  0.0416 -0.4588  0.0373
 1789W        W18263   6.036  13.359   1.626 -0.0774  0.2260 -0.1847
 1790W        W18264   2.750   9.131  14.304 -0.2523  0.2700 -0.0042
 1791W        W18265  15.073  17.726  15.476 -0.2324  0.1802 -0.0414
 1792W        W18266   5.189   1.523  12.421 -0.1817 -0.1594 -0.2866
 1793W        W18267  11.536   0.801   4.907 -0.0456  0.3942 -0.0381
 1794W        W18268   9.939   9.345   4.486 -0.1659  0.3169 -0.1583
 1795W        W18269  13.642  12.693   0.713  0.0828 -0.2780 -0.0544
 1796W        W18270  16.286  18.394   9.557 -0.2915  0.3843  0.1203
 1797W        W18271   3.174   9.036   4.321  0.1437  0.1925 -0.1576
 1798W        W18272  16.247  10.615  13.053  0.0825 -0.1409 -0.1013
 1799W        W18273  16.440  14.952   3.709 -0.0535 -0.1453 -0.3234
 1800W        W18274  12.628   4.767  14.173  0.1468 -0.2454 -0.2007
 1801W        W18275  18.804   8.461   3.063 -0.1836 -0.2026 -0.1846
 1802W        W18276   2.752   8.561  12.148  0.1372 -0.0424  0.0056
 1803W        W18277  12.367   6.679   3.856  0.2817  0.0429 -0.2262
 1804W        W18278  18.850  18.377   9.023  0.0720 -0.0988  0.0733
 1805W        W18279  10.973  11.848   4.491 -0.1530  0.0551  0.1610
 1806W        W18280  15.013  18.499   2.503 -0.2331  0.2085  0.2141
 1807W        W18281   6.639   5.915   0.616  0.2412 -0.1385 -0.1010
 1808W        W18282   8.523  18.453   4.606  0.0676 -0.0593  0.2509
 1809W        W18283  17.905   7.648  15.035  0.1537  0.0756 -0.1501
 1810W        W18284   5.924   8.243  14.747  0.2475  0.2319 -0.0566
 1811W        W18285  15.148   2.463   3.733 -0.0188 -0.1178  0.2843
 1812W        W18286   8.686   3.517   0.918  0.1176  0.1128 -0.1547
 1813W        W18287   9.439  11.355  11.339  0.2356  0.3760  0.1524
 1814W        W18288   5.825   4.251  14.531  0.0044 -0.0540 -0.5439
 1815W        W18289  11.558   4.709  11.124  0.1776  0.1838 -0.2124
 1816W        W18290   3.382   8.879   2.810  0.0221  0.1732 -0.2003
 1817W        W18291  12.265   6.493  12.563 -0.1699 -0.0581 -0.1589
 1818W        W18292  13.967   4.570  11.727  0.1608 -0.1999  0.1331
 1819W        W18293  16.850  17.752   3.766 -0.6122  0.0068 -0.3056
 1820W        W18294  16.955   2.431  13.812 -0.0312  0.0713  0.2256
 1821W        W18295   8.504  11.994  11.890 -0.2097  0.3276  0.0080
 1822W        W18296   8.041  15.111   5.243  0.2230  0.2688  0.2472
 1823W        W18297   2.615   1.129   1.180  0.1900  0.1303 -0.3643
 1824W        W18298   4.827   9.079  12.783 -0.0090  0.0618 -0.2430
 1825W        W18299  10.198  13.741  11.455 -0.0686  0.0827 -0.2691
 1826W        W18300   1.559   9.720  12.982 -0.3454  0.0552  0.0416
 1827W        W18301  12.000   3.343   2.300  0.0752 -0.0794 -0.0502
 1828W        W18302  15.530  15.383   2.117  0.3080 -0.5643  0.1059
 1829W        W18303   6.018  15.610   0.632  0.2397 -0.2091  0.1906
 1830W        W18304  14.682  15.179  14.079 -0.2177 -0.0946 -0.0028
 1831W        W18305  15.546  10.532  12.821 -0.0258 -0.1052 -0.0754
 1832W        W18306  10.135  12.545  15.596  0.1438 -0.3147 -0.2541
 1833W        W18307  17.728   0.769   2.091 -0.0916 -0.0395 -0.6873
 1834W        W18308   8.185   6.683   5.445 -0.1800 -0.0758 -0.0460
 1835W        W18309  18.022   0.768  12.951  0.1367 -0.2330 -0.0906
 1836W        W18310   3.639   9.145   0.247 -0.2616  0.1284 -0.0307
 1837W        W18311   4.922   0.390   3.565 -0.1764 -0.1756  0.2841
 1838W        W18312   3.947  12.820   2.782  0.0480 -0.2264  0.3478
 1839W        W18313   1.889  13.234   0.567 -0.1040 -0.1511  0.0753
 1840W        W18314  16.775   5.753   1.038 -0.0358 -0.1921  0.3254
 1841W        W18315   4.299   8.209   4.649  0.2550 -0.0339 -0.0349
 1842W        W18316   4.782   4.451  12.087  0.0965 -0.2110  0.1731
 1843W        W18317   8.315  13.348  14.234  0.2069  0.0198  0.0330
 1844W        W18318   6.642  17.515   0.667  0.0710 -0.0965 -0.1577
 1845W        W18319   3.601   7.477  13.623  0.0435  0.1920 -0.1902
 1846W        W18320  10.103   4.142   0.631  0.3379 -0.0797 -0.0808
 1847W        W18321  10.391   1.549   2.188  0.0628 -0.0671 -0.1682
 1848W        W18322  12.667  18.468  11.022  0.0972 -0.0904 -0.0666
 1849W        W18323   2.519  16.430   4.389 -0.3647  0.1371 -0.2367
 1850W        W18324  18.618  18.186  10.583 -0.0299 -0.1461  0.0640
 1851W        W18325  12.712  12.480   4.829  0.0901  0.3490  0.0633
 1852W        W18326   6.351   0.455   4.531 -0.1210 -0.2386  0.2355
 1853W        W18327   7.538   4.031  13.468 -0.3193  0.1178 -0.0046
 1854W        W18328   7.359   0.985  14.504  0.0512 -0.1402 -0.1466
 1855W        W18329   2.665  15.601  12.371  0.0449 -0.0517 -0.2178
 1856W        W18330   5.794  11.334   1.179 -0.1244  0.0653 -0.1659
 1857W        W18331  11.684  15.272  14.328  0.5326  0.1965 -0.0415
 1858W        W18332  11.335  12.345   1.518  0.2457  0.0021  0.2049
 1859W        W18333  12.117  17.656  12.611 -0.2893  0.0604 -0.0666
 1860W        W18334   4.037   2.943  14.659  0.0243  0.1131 -0.2196
 1861W        W18335   2.871   0.605  11.757 -0.1100  0.1626 -0.1673
 1862W        W18336  11.781  12.210   1.238 -0.0985  0.0100  0.1930
 1863W        W18337  18.421  16.206  12.626  0.0328 -0.1666 -0.0723
 1864W        W18338   0.692  13.928  11.382  0.0877  0.0809 -0.0699
 1865W        W18339  14.316   9.469   2.186 -0.2173 -0.0657  0.0308
 1866W        W18340   9.240   9.899  13.732  0.2035 -0.2897  0.1150
 1867W        W18341  17.461  13.923  15.090  0.1773 -0.0002  0.1774
 1868W        W18342  12.989   9.515   3.623  0.0939 -0.0920 -0.1829
 1869W        W18343   0.129   7.180  10.359  0.2608  0.3182 -0.1202
 1870W        W18344   2.605  13.134  11.406  0.1703 -0.0484  0.0895
 1871W        W18345   4.865  10.312   5.814 -0.1079 -0.1260 -0.3472
 1872W        W18346   6.333   9.611  14.212  0.0963  0.0446  0.2970
 1873W        W18347  10.374  10.184  15.305  0.1214 -0.0910 -0.1823
 1874W        W18348   0.042  11.472   3.508 -0.2902  0.0179  0.1944
 1875W        W18349  13.518  18.264  13.636 -0.1176 -0.0420  0.1122
 1876W        W18350  10.398   2.655   1.488 -0.1802 -0.0785  0.0241
 1877W        W18351   6.878  14.142  12.853 -0.3716  0.2699 -0.1428
 1878W        W18352   3.475  12.593  11.043 -0.2823  0.4735 -0.3490
 1879W        W18353   0.778   2.642   4.334  0.1264 -0.0783 -0.0463
 1880W        W18354  16.948   3.005  13.937  0.2108  0.0154  0.0228
 1881W        W18355   6.049   5.305  12.566 -0.0493 -0.2112 -0.1570
 1882W        W18356   8.206  13.245   4.838 -0.0633  0.2146 -0.1403
 1883W        W18357   9.247  18.684  11.684  0.4815  0.0036 -0.1780
 1884W        W18358   9.407  18.631  13.160 -0.2871 -0.0173  0.1049
 1885W        W18359   6.041   4.696  14.357  0.1743 -0.1023  0.0362
 1886W        W18360   7.407   2.465   3.201 -0.1586  0.1617  0.2625
 1887W        W18361   0.209   9.453  13.128 -0.0848 -0.1890  0.0971
 1888W        W18362  10.766  12.289  12.754 -0.1723 -0.0515  0.0723
 1889W        W18363  12.746  12.908   1.676  0.2211 -0.1221  0.1935
 1890W        W18364  10.706  16.940   4.180  0.1631 -0.0860  0.2250
 1891W        W18365  11.045  16.417  12.561 -0.1320  0.1767 -0.2985
 1892W        W18366   9.140   3.502   0.584 -0.1750 -0.1178  0.1757
 1893W        W18367   0.146  13.037   2.285 -0.0050  0.1404  0.0751
 1894W        W18368  14.547   6.498   1.737 -0.0878 -0.0739  0.1693
 1895W        W18369  17.363  13.967   5.307 -0.3184 -0.4002 -0.2189
 1896W        W18370  13.195  16.251  11.043 -0.2147  0.0821 -0.1398
 1897W        W18371  11.252   9.566  11.330 -0.3717  0.2775  0.1706
 1898W        W18372  10.774   2.570   0.806  0.0492 -0.4444 -0.0210
 1899W        W18373   2.943   6.635  13.333 -0.0831  0.3663 -0.3165
 1900W        W18374  14.337  14.735  15.602  0.2377 -0.1200  0.0829
 1901W        W18375   0.690  14.789   1.548 -0.0667  0.3623  0.3444
 1902W        W18376   4.534  16.873  12.239  0.1062  0.0355 -0.0438
 1903W        W18377   0.516  10.042  15.511 -0.2396 -0.0941 -0.1658
 1904W        W18378  11.049  12.368  13.250 -0.3225 -0.1230 -0.2363
 1905W        W18379  17.990   4.342  10.316  0.1836 -0.0844  0.1827
 1906W        W18380   4.679  15.197  12.230  0.3607  0.2689 -0.1303
 1907W        W18381  16.735   9.800   2.992  0.0034  0.1741  0.0367
 1908W        W18382   5.943   8.711  14.308 -0.1480 -0.1895 -0.0414
 1909W        W18383  13.887   4.205   1.198  0.1725 -0.4193  0.2063
 1910W        W18384  14.116  14.171   4.449  0.0230 -0.4428  0.0076
 1911W        W18385  17.762   7.235   4.680 -0.0694  0.1863  0.0390
 1912W        W18386  11.790  15.747   5.351  0.2368  0.3629 -0.0775
 1913W        W18387  12.831   9.177   0.803 -0.0911  0.0264  0.0344
 1914W        W18388  15.007  11.086   3.184  0.1864  0.3019  0.2535
 1915W        W18389  10.829   2.638   1.278  0.1066  0.1866 -0.1688
 1916W        W18390   6.654   2.722  12.463  0.0746 -0.1722  0.0244
 1917W        W18391   5.387   7.022   0.871 -0.2730  0.2812 -0.1745
 1918W        W18392   0.536   5.359   4.524 -0.2080  0.0416 -0.2550
 1919W        W18393   0.688   2.724   2.511  0.1702 -0.0677  0.1440
 1920W        W18394   6.281   8.759  13.757  0.5352  0.2177 -0.1714
 1921W        W18395  12.090   3.549  11.177 -0.0286 -0.1984  0.3022
 1922W        W18396   0.666  13.777   3.809  0.0100  0.0930  0.0402
 1923W        W18397  16.784  11.370  13.247  0.4325 -0.2078 -0.1704
 1924W        W18398  16.312   6.856  14.648  0.0061  0.0543 -0.1621
 1925W        W18399   2.453   4.302   4.501 -0.1047  0.1888 -0.3440
 1926W        W18400  18.228  14.977   2.869  0.0152  0.0984  0.3159
 1927W        W18401   1.970   4.961  11.102  0.2360 -0.0797 -0.0099
 1928W        W18402   7.514  12.775   5.446 -0.0455  0.1886 -0.1748
 1929W        W18403  11.219   1.239   3.428  0.0409 -0.0963  0.0445
 1930W        W18404   9.720   8.002  15.412 -0.2203 -0.3992  0.0720
 1931W        W18405  16.223   6.935   3.844  0.2402  0.0565  0.2945
 1932W        W18406   1.556   4.873   3.376 -0.2525  0.0680 -0.1264
 1933W        W18407   5.124   6.239   5.350 -0.0337  0.0342 -0.2882
 1934W        W18408   0.244   3.232   2.294 -0.0061 -0.0744 -0.1484
 1935W        W18409  16.310   7.955   2.967 -0.4211  0.1108  0.0173
 1936W        W18410   7.211  12.708   4.372  0.3516 -0.2951  0.1614
 1937W        W18411   6.475  14.284  11.573 -0.1563  0.0363  0.1471
 1938W        W18412   3.234   3.222   2.058  0.2063  0.0016 -0.0266
 1939W        W18413  16.382  12.872   1.493 -0.0745 -0.0035 -0.0236
 1940W        W18414   6.071  13.642   1.101 -0.2601  0.0411  0.0635
 1941W        W18415  13.559  11.845  11.993 -0.0975 -0.0614 -0.3525
 1942W        W18416  17.096  18.172   0.669  0.1891 -0.2501 -0.1006
 1943W        W18417  18.069  12.492  14.457 -0.1966  0.1669 -0.1693
 1944W        W18418   8.034  18.043   0.157  0.4316  0.1450  0.1071
 1945W        W18419  11.779  18.425  14.337 -0.0495  0.0377 -0.3867
 1946W        W18420  11.124  10.153   4.773  0.1762 -0.0662 -0.1130
 1947W        W18421  14.136   0.234  14.063 -0.0691  0.0058 -0.0286
 1948W        W18422   0.368  11.682  15.533  0.0666  0.1847 -0.4324
 1949W        W18423  10.261   1.677  14.488  0.1471  0.2493  0.1644
 1950W        W18424  12.793   7.784  15.544 -0.0951  0.1551  0.0010
 1951W        W18425  18.543  18.760   4.026 -0.1632  0.0613 -0.0759
 1952W        W18426  18.418   8.928  15.255  0.2771 -0.1616  0.0457
 1953W        W18427   4.970  15.563  14.012 -0.0203 -0.0954  0.4461
 1954W        W18428   9.398   9.998   3.756  0.1752  0.0546  0.0763
 1955W        W18429   0.899  11.493   4.507  0.1720 -0.0807  0.1943
 1956W        W18430  15.903   8.188   4.361 -0.4989 -0.3612 -0.0141
 1957W        W18431   0.231   6.685  13.603  0.2237  0.1733  0.1104
 1958W        W18432   2.754   9.191  12.795 -0.1673  0.1206  0.3171
 1959W        W18433   9.195   0.300   5.017 -0.1067 -0.0902  0.1079
 1960W        W18434   3.487  16.381  14.323  0.0500 -0.2227 -0.1304
 1961W        W18435  14.490   1.525  15.407  0.2189  0.0912  0.0934
 1962W        W18436   0.702   3.380  13.306  0.4132  0.1427 -0.1170
 1963W        W18437  10.273  17.691   5.327 -0.3443 -0.0284 -0.1499
 1964W        W18438  16.159   8.078  15.304  0.0544 -0.4306 -0.0421
 1965W        W18439   8.507   0.224   0.036 -0.0531  0.1688 -0.0698
 1966W        W18440  12.942   1.262  14.286 -0.0347 -0.1737  0.3752
 1967W        W18441  11.811  17.135  11.550  0.0115 -0.0275 -0.0484
 1968W        W18442   0.815  14.406   3.392  0.0350  0.0509 -0.0691
 1969W        W18443  11.276  13.698  12.774  0.0854 -0.1200  0.1410
 1970W        W18444   3.191  10.747   5.439  0.0163 -0.2615 -0.0533
 1971W        W18445  15.435   0.139  11.121  0.0801 -0.1519 -0.1824
 1972W        W18446  13.592   2.463   2.926 -0.2022 -0.2770  0.3950
 1973W        W18447  17.076   4.541  13.452  0.1787 -0.2545  0.0818
 1974W        W18448   0.977  11.455   0.532  0.0801 -0.2983  0.0745
 1975W        W18449   4.452  11.165  13.511 -0.1597  0.0586  0.3176
 1976W        W18450   8.335   3.252  12.312  0.2348 -0.0983 -0.0098
 1977W        W18451  17.845  14.005   5.058  0.0801 -0.0122 -0.0696
 1978W        W18452  15.022  10.692   2.859 -0.0848  0.2944  0.0362
 1979W        W18453  13.747   2.768   3.356  0.0058  0.2418 -0.0766
 1980W        W18454   9.435   1.731  12.063  0.1025 -0.1083  0.0106
 1981W        W18455   5.014  18.466   4.814  0.2959 -0.3788  0.1967
 1982W        W18456   6.836   4.518   4.987  0.1478  0.1168 -0.1159
 1983W        W18457   7.258   2.864  15.167  0.3200 -0.2097 -0.1694
 1984W        W18458   7.601  14.456  13.538  0.0117 -0.0041  0.0742
 1985W        W18459  11.361  12.453   4.505 -0.2165  0.0102 -0.0924
 1986W        W18460   3.106  14.907   0.863 -0.0904  0.1427  0.1457
 1987W        W18461   4.294   1.575   1.555 -0.0618  0.2896 -0.1434
 1988W        W18462   1.794  11.513   0.525 -0.4602  0.0045 -0.1935
 1989W        W18463   8.151  17.459   4.233  0.0186 -0.2411 -0.1636
 1990W        W18464  14.584   5.230  14.019  0.2298 -0.0336  0.1710
 1991W        W18465   3.254  13.499  15.497 -0.0714  0.2231 -0.2568
 1992W        W18466  14.127   6.156   3.225 -0.2513  0.3529  0.1964
 1993W        W18467  16.943  16.279  11.011  0.0612  0.1479  0.0626
 1994W        W18468   8.057  12.641   2.327  0.3234 -0.2528 -0.2869
 1995W        W18469  11.785  10.228  15.246 -0.2313 -0.0923 -0.1441
 1996W        W18470  15.666   5.030   4.544 -0.2219 -0.1541  0.1707
 1997W        W18471  11.723   7.723  14.461 -0.0300  0.0673  0.0533
 1998W        W18472   0.655  17.285  13.985 -0.0570  0.1994 -0.1399
 1999W        W18473   2.485   9.683   1.023 -0.1844  0.1106  0.1035
 2000W        W18474  14.787   7.205   2.252 -0.0306 -0.1070 -0.3369
 2001W        W18475   3.292   9.665  14.796 -0.0030 -0.3433 -0.3098
 2002W        W18476  12.586  11.108   0.301 -0.0392 -0.0933  0.0663
 2003W        W18477  10.005  14.550  11.334 -0.1378 -0.1436 -0.1468
 2004W        W18478  11.847   4.703  12.633  0.0338  0.0465 -0.1373
 2005W        W18479  10.927   9.115  14.732 -0.1334 -0.0337  0.1477
 2006W        W18480  12.847   1.146   0.582  0.5067 -0.0833  0.1745
 2007W        W18481   2.632  18.547   4.597  0.0386 -0.1713  0.4883
 2008W        W18482   1.938   4.604   3.691  0.1744  0.0690 -0.0949
 2009W        W18483   4.521   8.924  13.765 -0.0859 -0.1003  0.1337
 2010W        W18484   9.040   4.297   2.657 -0.0417 -0.0267 -0.1514
 2011W        W18485   8.568   5.637   0.589 -0.1261  0.0532 -0.1396
 2012W        W18486   2.674   1.589  14.631 -0.2595  0.0266  0.2524
 2013W        W18487  16.165   3.337  14.536 -0.0468  0.1856  0.0825
 2014W        W18488  13.789   8.930   0.383 -0.0129 -0.2353  0.0630
 2015W        W18489   3.925   3.319  13.260  0.1045 -0.1723 -0.1217
 2016W        W18490   5.974   4.533   3.489  0.4264  0.1878  0.0070
 2017W        W18491  10.457  16.308  11.669 -0.2023  0.1054  0.0157
 2018W        W18492  10.572  15.844  14.077  0.2903 -0.2950 -0.0740
 2019W        W18493  12.119  15.648   3.324  0.0791  0.2921  0.2486
 2020W        W18494  12.361  11.539   0.387  0.2894  0.1655 -0.4750
 2021W        W18495  10.497  16.687   1.121 -0.2664 -0.2473 -0.0918
 2022W        W18496   0.570   8.604  15.138  0.3924 -0.2673  0.5267
 2023W        W18497   6.756   8.013   5.332  0.0244 -0.1437  0.0414
 2024W        W18498  16.304  17.358  13.706 -0.2070  0.0394  0.5104
 2025W        W18499   1.223  11.323   4.201  0.1377  0.1548  0.0505
 2026W        W18500  17.286   8.856   0.722  0.0376  0.0174 -0.2822
 2027W        W18501  15.960   7.771  10.875 -0.2716 -0.2045  0.1719
 2028W        W18502  18.089  11.425   1.144  0.3478 -0.0293  0.3908
 2029W        W18503  10.021   8.602   2.950 -0.2580 -0.0911 -0.1225
 2030W        W18504  16.626  11.361  12.708  0.1023  0.3001  0.0791
 2031W        W18505  18.347  10.906  10.883  0.0114 -0.0466  0.0568
 2032W        W18506   9.396   6.997   0.179 -0.2973  0.1363 -0.0249
 2033W        W18507   2.573  14.464  10.579  0.0489 -0.0856 -0.0941
 2034W        W18508   4.151   1.936  11.960 -0.4070 -0.3734 -0.0080
 2035W        W18509   2.951  15.294   2.566  0.0315  0.0721  0.1397
 2036W        W18510   4.754   1.477   2.133  0.0683 -0.0896 -0.0151
 2037W        W18511   2.542   0.577   5.681 -0.1412  0.2981 -0.0062
 2038W        W18512   2.911  11.632   3.200  0.0146 -0.4496  0.0617
 2039W        W18513   8.278   4.617   4.790  0.2490 -0.0467  0.4973
 2040W        W18514   6.128  15.445  14.618 -0.0572 -0.2229  0.1318
 2041W        W18515   0.758   0.493   3.191 -0.1128 -0.3637 -0.0985
 2042W        W18516  15.567  16.005   4.724  0.0426  0.0750 -0.0128
 2043W        W18517   2.316  13.199  13.603 -0.2058  0.0686  0.6144
 2044W        W18518  15.336   7.096  14.227  0.2272  0.1093 -0.1173
 2045W        W18519   0.326   4.890  14.762  0.0111  0.1086 -0.2547
 2046W        W18520  10.799  17.075  11.510 -0.1048  0.4087 -0.0060
 2047W        W18521   5.180   9.160   3.827 -0.0833  0.0321 -0.1259
 2048W        W18522  13.290   7.845   5.965 -0.1759 -0.0216  0.2404
 2049W        W18523   8.005  16.648  11.791  0.2207 -0.2720  0.0497
 2050W        W18524   8.358   8.347  13.704  0.1171 -0.2021 -0.1404
 2051W        W18525  14.519   6.190  12.365 -0.0363 -0.1796  0.2021
 2052W        W18526  13.651  15.868   2.651 -0.0586 -0.4449 -0.1241
 2053W        W18527  14.054  18.775   3.524  0.1069  0.1179  0.0423
 2054W        W18528  16.135  18.656  11.499 -0.4874  0.0342 -0.1511
 2055W        W18529  18.512   9.164   0.213 -0.1091 -0.1060 -0.1061
 2056W        W18530  11.853  10.625  10.985 -0.0994  0.1556 -0.0190
 2057W        W18531  14.549   5.811  15.145  0.0720  0.1812  0.1779
 2058W        W18532   4.076  12.438   3.154 -0.1817  0.0021 -0.0900
 2059W        W18533  10.355   3.513   3.006 -0.3563 -0.3597 -0.1058
 2060W        W18534   5.240  11.833   2.331 -0.1260  0.3082  0.2505
 2061W        W18535   7.578   9.521   2.919  0.0218  0.2550  0.1524
 2062W        W18536  18.654   5.366  11.702 -0.0278  0.2663  0.1592
 2063W        W18537   0.553  10.122   0.857  0.0006 -0.2877 -0.0250
 2064W        W18538   0.493  10.035   4.287 -0.2867 -0.1251 -0.1043
 2065W        W18539   1.249   5.737  13.052 -0.0130  0.1040 -0.1496
 2066W        W18540   8.354  16.967   2.144 -0.1019  0.0864  0.2688
 2067W        W18541  17.271   1.605  10.471  0.1981 -0.1010  0.1732
 2068W        W18542   4.092  14.169   0.184 -0.1876 -0.1110 -0.0012
 2069W        W18543  17.419  13.757   3.661 -0.1015 -0.1354  0.0464
 2070W        W18544  15.649   5.716   0.726 -0.1358 -0.2161 -0.0156
 2071W        W18545  13.787  12.961   3.040  0.5224  0.0491 -0.1830
 2072W        W18546   3.582   2.238   3.079 -0.0617 -0.4136 -0.3069
 2073W        W18547  11.776   2.989   2.070  0.0782 -0.0510  0.0683
 2074W        W18548  17.212   2.065  11.709  0.1736 -0.0367  0.0621
 2075W        W18549   3.476  14.543   3.929 -0.0383 -0.3742 -0.0902
 2076W        W18550  13.954  16.127   3.655 -0.2408  0.0209  0.1911
 2077W        W18551  13.662   9.115   2.227 -0.1102 -0.3088  0.1242
 2078W        W18552   0.231  12.133   2.286  0.0697 -0.1082  0.0924
 2079W        W18553  12.060   6.821  14.470 -0.3971  0.1701 -0.1885
 2080W        W18554  11.187   7.406  15.241 -0.1773 -0.0377  0.0517
 2081W        W18555  13.514  14.898   2.753  0.3902  0.2574  0.4241
 2082W        W18556  13.332  11.117  15.613  0.1450  0.0676  0.0557
 2083W        W18557   4.257   1.935  14.649  0.1505 -0.0892  0.1465
 2084W        W18558   8.970  12.635   2.987 -0.4649  0.1389 -0.0311
 2085W        W18559  15.178  16.128  11.070 -0.1057  0.0488  0.2692
 2086W        W18560   9.321   8.012  12.443  0.0144 -0.2659  0.2037
 2087W        W18561   4.041   2.544   4.357 -0.0337  0.1648 -0.1791
 2088W        W18562   3.247  11.339   1.104  0.0488  0.0286  0.1774
 2089W        W18563   0.573   2.217  12.615  0.0498  0.3469  0.1257
 2090W        W18564  17.639   7.645  12.006  0.0145  0.0402  0.2058
 2091W        W18565   9.911  13.742   4.428 -0.0797  0.0236 -0.0329
 2092W        W18566  13.792  18.241  15.140  0.0094 -0.1353  0.4880
 2093W        W18567  15.821   2.418   5.399  0.0536  0.0396 -0.1142
 2094W        W18568   9.381   9.317  15.425  0.1477 -0.1324  0.2540
 2095W        W18569   1.186  10.569  11.512 -0.1303  0.0920 -0.0785
 2096W        W18570   6.019  14.667   1.700  0.1823  0.3900  0.1439
 2097W        W18571   0.934   6.394   4.572  0.2053 -0.1195 -0.1558
 2098W        W18572   8.171   9.989   4.262  0.0481  0.0295 -0.0690
 2099W        W18573   4.010   4.032   2.553 -0.1731 -0.1319 -0.0951
 2100W        W18574  11.307   2.301  12.190  0.0531 -0.0218 -0.4213
 2101W        W18575  13.539  12.279   0.161 -0.5867 -0.2720  0.0876
 2102W        W18576  13.255   2.522   1.704 -0.2274  0.2467 -0.1623
 2103W        W18577   4.540  17.513   0.651  0.1807  0.0941 -0.2689
 2104W        W18578   6.597   6.682  14.242  0.0888 -0.3292 -0.1401
 2105W        W18579   7.206  13.970   1.125  0.1710  0.0693 -0.0277
 2106W        W18580  17.793  15.795  10.149 -0.0805  0.0027  0.1496
 2107W        W18581  18.405  13.908  13.111 -0.0659 -0.3399 -0.0353
 2108W        W18582   5.161   7.533   1.763  0.0990 -0.3512 -0.1210
 2109W        W18583   4.928   3.461  13.941  0.1825  0.2013  0.1594
 2110W        W18584   6.452   6.096  14.091  0.1729  0.0003  0.0061
 2111W        W18585  10.812   5.934   4.040 -0.0213  0.1665 -0.2862
 2112W        W18586   3.032  15.884  12.598 -0.2849 -0.0404  0.0080
 2113W        W18587   3.907  18.179   2.312  0.1088 -0.1417 -0.0768
 2114W        W18588   5.182   8.352  10.483 -0.0578 -0.0738  0.0165
 2115W        W18589  12.135   9.771   0.589  0.0880  0.0843  0.1187
 2116W        W18590   1.491   9.780  14.372 -0.3501 -0.1384  0.2797
 2117W        W18591   1.995  16.796   3.125 -0.0057 -0.0950 -0.1363
 2118W        W18592   6.602  10.550  15.674  0.3197 -0.3861  0.1875
 2119W        W18593  13.298   5.904  11.469  0.0066  0.3466 -0.0153
 2120W        W18594   7.064   4.185   2.064  0.0332 -0.2161 -0.3372
 2121W        W18595   7.797  17.108   2.543 -0.0937  0.0909  0.3484
 2122W        W18596   9.962  10.082   3.254 -0.2930  0.0030 -0.1209
 2123W        W18597  15.012  12.479   1.254  0.0179 -0.1684  0.3718
 2124W        W18598   7.616  11.600  12.884  0.0570  0.0770  0.1893
 2125W        W18599   4.468  12.313   1.456 -0.0475 -0.0588 -0.0856
 2126W        W18600  11.554  16.689  11.716  0.0448  0.3796  0.0536
 2127W        W18601  15.977  12.966  13.286 -0.1971  0.1791  0.1199
 2128W        W18602   6.160  12.341  13.824  0.1894  0.1795  0.3000
 2129W        W18603  11.450   5.964  10.859 -0.0933 -0.1823 -0.0484
 2130W        W18604   9.938   8.287   1.100  0.0479 -0.0770 -0.1489
 2131W        W18605  14.281  15.282   2.733  0.0567  0.1798 -0.0804
 2132W        W18606  10.392  17.710  11.974 -0.1424  0.2558  0.2101
 2133W        W18607   3.381   3.069   0.221  0.1570 -0.0218 -0.3168
 2134W        W18608  10.432   0.148   4.452  0.3598  0.4526  0.1550
 2135W        W18609   5.903  14.149  15.465  0.0890  0.0653 -0.2206
 2136W        W18610   2.039   7.742   4.213 -0.0360 -0.1293 -0.2407
 2137W        W18611   4.462  12.763  13.191  0.0580 -0.0062  0.1349
 2138W        W18612  13.052   6.635   0.767  0.0385  0.0686 -0.0905
 2139W        W18613  13.612   8.786   2.792  0.2037  0.0455  0.1562
 2140W        W18614   1.791   7.175   5.190 -0.0586 -0.1218 -0.4062
 2141W        W18615  18.067  17.574   1.490 -0.0962  0.2393  0.0808
 2142W        W18616   7.476   5.837  13.958  0.3866  0.1303 -0.0871
 2143W        W18617  13.362  13.111   2.825 -0.0921 -0.5085 -0.1126
 2144W        W18618  12.107  14.319   2.593  0.0486  0.1747 -0.2348
 2145W        W18619  16.549   1.379  10.902 -0.0397 -0.1526  0.1199
 2146W        W18620   8.479  17.615  13.456 -0.0630 -0.0663  0.0260
 2147W        W18621  15.760  12.584   5.454 -0.3869 -0.1490 -0.2248
 2148W        W18622   3.509   7.355  15.647  0.0270 -0.0863  0.0491
 2149W        W18623  14.212  13.001  14.779  0.1088 -0.1446  0.0636
 2150W        W18624   9.968   4.299   3.880  0.0512  0.3102  0.0889
 2151W        W18625  14.227  18.444  12.019 -0.3947  0.0656 -0.1384
 2152W        W18626   6.653   3.698   1.029  0.0837 -0.1780  0.1450
 2153W        W18627  13.591  11.723  10.697  0.0203  0.0968  0.0396
 2154W        W18628   7.845   0.337   1.338  0.0782  0.3943 -0.1214
 2155W        W18629  16.552   8.892   4.415  0.0495 -0.2231 -0.1702
 2156W        W18630  17.092   8.170   2.753 -0.0012  0.0474  0.2840
 2157W        W18631   6.395   9.307  10.671  0.2657  0.0936 -0.0635
 2158W        W18632  12.365  18.520   2.052  0.3138  0.3742 -0.1669
 2159W        W18633  11.445   2.358  14.480  0.1021 -0.1474  0.2864
 2160W        W18634   6.972  15.996  13.017  0.1677 -0.2045  0.4085
 2161W        W18635  13.127   1.524   2.048  0.0719  0.0423 -0.0944
 2162W        W18636   2.143   8.202   1.558  0.3188 -0.1529 -0.1409
 2163W        W18637   9.866  16.261   0.394 -0.1386 -0.1000 -0.0542
 2164W        W18638   6.331  11.867  12.604 -0.4176 -0.0597  0.1378
 2165W        W18639  14.856   8.604  14.346 -0.0049 -0.1780 -0.1391
 2166W        W18640   6.829  10.025  15.101 -0.0142 -0.3598 -0.1770
 2167W        W18641   1.610   4.065   1.576  0.0232  0.0784  0.2838
 2168W        W18642  16.039   1.636  13.314  0.0665 -0.0441 -0.2282
 2169W        W18643   2.615   7.134   3.193 -0.0051 -0.1152 -0.2314
 2170W        W18644  15.726   8.469  11.398  0.0313 -0.0573 -0.2642
 2171W        W18645   8.022   2.701   4.956 -0.2844  0.0046 -0.1434
 2172W        W18646  12.778  14.683   1.965  0.2556  0.0453 -0.0807
 2173W        W18647  17.262  11.128  14.821 -0.1335  0.2342 -0.0935
 2174W        W18648  17.273   9.552   0.231 -0.1490  0.1533  0.0515
 2175W        W18649  15.271  18.799   0.623 -0.3828  0.0873 -0.2327
 2176W        W18650  11.271  11.456   2.296  0.3605 -0.0566  0.2284
 2177W        W18651  14.443   9.697  10.568  0.1446 -0.0531  0.0610
 2178W        W18652  16.425  11.056  15.549 -0.1454 -0.1173 -0.1274
 2179W        W18653  18.508   8.948  10.310  0.2817 -0.0573 -0.1853
 2180W        W18654  10.777  12.656  14.099 -0.0172 -0.2730 -0.3133
 2181W        W18655   7.639  12.722  11.167  0.1328 -0.3123  0.1383
 2182W        W18656  16.610  16.073  14.381  0.0524 -0.3125  0.2665
 2183W        W18657  17.791  15.553   4.105 -0.0646 -0.4228  0.2400
 2184W        W18658   9.818  11.208   4.530 -0.1017  0.0415 -0.0219
 2185W        W18659   0.334   8.896  14.712  0.0913  0.2221  0.0510
 2186W        W18660   9.265   0.023  15.397 -0.2396  0.0646  0.1711
 2187W        W18661   1.916   5.052   2.841 -0.0162 -0.2505 -0.1200
 2188W        W18662  16.566  14.168   4.276  0.2367 -0.0803 -0.0030
 2189W        W18663  16.798   9.281   0.211  0.1647 -0.1442  0.1994
 2190W        W18664  14.575  10.584   4.905 -0.1094 -0.0461  0.0999
 2191W        W18665   0.856  12.793  10.054 -0.0770 -0.4873  0.0506
 2192W        W18666   4.823   7.192  11.096 -0.4445 -0.4143  0.1248
 2193W        W18667   9.786   8.739   0.892  0.0477  0.1040 -0.0287
 2194W        W18668   7.832   3.558   4.936  0.1500 -0.2864 -0.2094
 2195W        W18669  15.496  18.815   4.642  0.1258  0.4669 -0.0480
 2196W        W18670   9.760  15.699  13.839 -0.0434  0.1113 -0.0940
 2197W        W18671   6.716   3.337   1.515 -0.1950  0.1971 -0.2306
 2198W        W18672   9.637   7.117   0.554  0.0371 -0.1706 -0.3574
 2199W        W18673   3.273   5.622   2.536 -0.0220  0.0834  0.0172
 2200W        W18674  10.480  14.057  13.848 -0.0761 -0.0185  0.1907
 2201W        W18675  11.146  17.350   3.476 -0.2056 -0.1009 -0.1916
 2202W        W18676  13.931  12.303  14.871  0.1215 -0.1701  0.0465
 2203W        W18677   4.340  16.202   1.242  0.0728  0.0593  0.0218
 2204W        W18678  10.682   3.517  14.906 -0.2081 -0.1667 -0.1517
 2205W        W18679   4.869  10.064   2.257 -0.1986  0.2443  0.0884
 2206W        W18680   9.397   3.056  10.867 -0.2775 -0.1601 -0.1563
 2207W        W18681   5.951  16.949  10.873  0.1678 -0.0496 -0.2801
 2208W        W18682  10.641   7.720   1.248 -0.1559 -0.4868  0.1154
 2209W        W18683  14.671  14.131   0.992  0.3644 -0.0464  0.0119
 2210W        W18684   4.131   6.039  12.713  0.1231 -0.0365 -0.1792
 2211W        W18685   1.344   1.237  12.700  0.1205  0.6155 -0.2000
 2212W        W18686  10.606  16.986  12.006 -0.0881 -0.0008 -0.2999
 2213W        W18687  10.664  17.843  15.298  0.0403  0.2209  0.1022
 2214W        W18688  15.869  18.468  11.100 -0.2079 -0.0238 -0.1389
 2215W        W18689   4.271   8.901   3.594 -0.2006  0.0503  0.2398
 2216W        W18690   0.861   5.086   3.461  0.0002 -0.1122  0.0407
 2217W        W18691   3.200   4.131  14.864  0.0525 -0.0098 -0.1430
 2218W        W18692  11.622   7.991   4.542  0.3491  0.2051  0.1897
 2219W        W18693  10.540   9.487   1.672  0.1886  0.0890 -0.2795
 2220W        W18694  14.845   0.408   1.107 -0.1910  0.0431  0.1473
 2221W        W18695   5.323  11.432  15.171 -0.1715  0.1371 -0.3171
 2222W        W18696   7.200   0.469   2.933 -0.0726  0.0193  0.1131
 2223W        W18697  16.730   8.779  12.637 -0.0225 -0.0330  0.2992
 2224W        W18698   2.531  14.331  14.523  0.0120  0.2782  0.1185
 2225W        W18699   8.077  12.430   2.775 -0.0709 -0.1385  0.2225
 2226W        W18700   4.455   2.596   2.292 -0.0278  0.1046 -0.0562
 2227W        W18701  14.350   9.420   1.650 -0.1156 -0.0910 -0.2946
 2228W        W18702  12.193  10.609  15.374 -0.0600 -0.0103 -0.3626
 2229W        W18703   5.744  16.527  15.194  0.0955 -0.2165  0.1035
 2230W        W18704   6.312   8.283   5.524  0.1346  0.0115  0.1057
 2231W        W18705   4.614   3.308   4.477  0.1711 -0.0521 -0.2926
 2232W        W18706  11.492   3.399   3.649  0.0180 -0.0470  0.0413
 2233W        W18707   5.871  10.002   5.155 -0.0129  0.1109  0.0347
 2234W        W18708  10.895  11.360   0.052 -0.1999  0.1604  0.0711
 2235W        W18709   6.482  15.628   3.456  0.0921  0.0877 -0.1517
 2236W        W18710   2.665   2.962   1.546  0.0783 -0.2050  0.2057
 2237W        W18711   9.629   2.664  12.011 -0.2894  0.1067 -0.1362
 2238W        W18712   7.125   9.770  11.525  0.2391 -0.3230  0.2194
 2239W        W18713  16.664  14.088   2.066  0.1111 -0.0767  0.1274
 2240W        W18714   5.845  15.139   1.585  0.1061 -0.1023  0.0034
 2241W        W18715  17.199   5.576  14.604 -0.3002  0.1339 -0.1648
 2242W        W18716   4.813  12.784   4.752 -0.1880  0.0105 -0.2035
 2243W        W18717   4.329  11.887  13.842  0.0856  0.3218  0.0556
 2244W        W18718  14.162  14.200   0.777  0.2464 -0.2550  0.2667
 2245W        W18719  17.818   1.979  12.806  0.2129 -0.1751 -0.1220
 2246W        W18720   6.245   9.716  13.732  0.0869  0.1898 -0.1470
 2247W        W18721  16.326   4.449   1.557  0.4180 -0.2073  0.1045
 2248W        W18722  14.369   8.274  12.519  0.0731  0.0940  0.0749
 2249W        W18723   7.925  17.185   5.113  0.0689  0.0804  0.1274
 2250W        W18724  17.078   2.361   1.254  0.1638  0.1135  0.3359
 2251W        W18725   2.254  15.135  10.748  0.0689 -0.0227 -0.2508
 2252W        W18726  15.108  17.380   2.428  0.0282 -0.0762  0.1941
 2253W        W18727   5.785   5.748  12.713 -0.3474 -0.1728 -0.0500
 2254W        W18728  15.762   9.556   4.547 -0.0494  0.1132 -0.1418
 2255W        W18729   3.253   9.883  12.312 -0.1396 -0.0227  0.1842
 2256W        W18730  18.386   8.312   0.297  0.1396 -0.0620 -0.0905
 2257W        W18731   1.490  10.845  12.904  0.4448  0.1818 -0.2677
 2258W        W18732  13.921   0.737   1.222 -0.1206 -0.0114  0.0890
 2259W        W18733  13.619   2.084   5.005  0.3528  0.0489 -0.1107
 2260W        W18734  14.560  13.402   2.750  0.1489  0.0011  0.2040
 2261W        W18735  12.255   2.753   5.691 -0.1176 -0.1365  0.2025
 2262W        W18736   0.958   6.393  14.764  0.0515  0.0594 -0.0991
 2263W        W18737   2.290   7.606  11.478 -0.2578 -0.3318 -0.0886
 2264W        W18738  18.445   0.084  15.067 -0.1162  0.1835  0.2793
 2265W        W18739  13.515   1.949  12.655 -0.0757 -0.0839 -0.2141
 2266W        W18740   3.338   4.753   2.637 -0.0084 -0.2939 -0.0085
 2267W        W18741  15.975  12.139  12.309 -0.1709 -0.0187 -0.3090
 2268W        W18742   0.643   1.797  12.897  0.0915 -0.1727  0.1628
 2269W        W18743   2.626   2.105  13.796  0.2250  0.0134 -0.0131
 2270W        W18744  15.669  17.629  14.439  0.3399  0.1436 -0.1390
 2271W        W18745  13.246   3.385   0.287 -0.1678 -0.3389  0.1752
 2272W        W18746   9.637   6.058  13.145 -0.2273  0.3936  0.1409
 2273W        W18747   6.328   4.617  12.946  0.1053  0.1265 -0.2322
 2274W        W18748   4.018   6.514   4.906  0.0868 -0.0028  0.0203
 2275W        W18749  11.318   0.577  10.734  0.4567  0.1733  0.2599
 2276W        W18750  18.791   0.186   0.938  0.2368 -0.0482  0.1294
 2277W        W18751   1.131   6.733   4.151  0.3832  0.0425  0.3477
 2278W        W18752  11.803  14.470   1.847 -0.4028 -0.0016 -0.0809
 2279W        W18753  17.406  12.136  13.937 -0.2083 -0.1400  0.1961
 2280W        W18754  16.662   1.015   0.178 -0.0520  0.0429  0.0693
 2281W        W18755   7.367   1.340   3.375  0.0937 -0.1175  0.1614
 2282W        W18756   3.388   5.958   3.765 -0.1812 -0.0517  0.2160
 2283W        W18757  18.013   9.630   3.825 -0.0361  0.2200 -0.1169
 2284W        W18758  12.610   1.787  12.339 -0.0226 -0.1562  0.1252
 2285W        W18759   5.255   8.925  15.464  0.3012  0.2918  0.2044
 2286W        W18760  10.690   4.134  15.145  0.0412  0.4487 -0.3446
 2287W        W18761   4.327  18.802   0.727 -0.1918  0.0640 -0.1788
 2288W        W18762   2.020   3.408   3.991  0.2189  0.0814  0.1476
 2289W        W18763  12.663  14.247  14.322  0.2987 -0.2079  0.0004
 2290W        W18764   7.467   2.412  13.581  0.1680  0.0596 -0.2900
 2291W        W18765   5.787  11.514  15.379  0.1171  0.1782  0.3227
 2292W        W18766   0.542   5.104   0.293 -0.1061  0.0440 -0.1018
 2293W        W18767   2.633  10.407  13.582  0.0235  0.1983  0.2308
 2294W        W18768  14.246  14.637   4.533  0.2027  0.0627 -0.2779
 2295W        W18769  14.770   9.630   5.580 -0.0971 -0.0681  0.0475
 2296W        W18770   6.048  16.612   6.274  0.0873  0.2342  0.0741
 2297W        W18771   3.760   6.190   4.661  0.3024 -0.0518  0.0093
 2298W        W18772   2.752  11.228   3.992 -0.2823  0.0443  0.0053
 2299W        W18773  18.208  15.162  14.708  0.2364  0.0793  0.1985
 2300W        W18774  10.942  11.108  12.941 -0.2030 -0.1071 -0.0700
 2301W        W18775   4.581  18.750  10.163 -0.3424 -0.1860 -0.1324
 2302W        W18776   1.135  14.461   2.601 -0.0431  0.0417  0.0584
 2303W        W18777   3.577   5.579   4.177  0.0246  0.1148  0.1518
 2304W        W18778   5.207  13.389  11.974  0.1614  0.1513 -0.1511
 2305W        W18779   0.156   7.707  14.954  0.2158  0.0376 -0.0046
 2306W        W18780   5.850   9.472  13.972  0.1844  0.0686 -0.1310
 2307W        W18781  13.189   4.671   5.220 -0.2997  0.2029 -0.3364
 2308W        W18782  12.050  14.281   4.607 -0.1453  0.0589 -0.0810
 2309W        W18783  18.323   9.825   4.208 -0.0311 -0.1087  0.0272
 2310W        W18784  12.332   6.016   4.990 -0.0237  0.1460  0.2379
 2311W        W18785   7.830   7.779   2.295  0.1430 -0.3612 -0.0028
 2312W        W18786   5.872   4.141   0.273 -0.0814 -0.1927  0.0485
 2313W        W18787   9.772  16.749   3.333 -0.1183 -0.0678 -0.2127
 2314W        W18788  16.299  18.431  15.549 -0.2173  0.1076 -0.0403
 2315W        W18789  13.228   4.537  10.739 -0.0910 -0.3662  0.0020
 2316W        W18790  18.730   3.364   4.767 -0.3587  0.3306  0.1005
 2317W        W18791   0.410   2.297  14.155 -0.0829 -0.2021 -0.0805
 2318W        W18792  17.270  15.413  10.961  0.0817  0.1090 -0.1005
 2319W        W18793  15.167  17.579  11.335 -0.0473 -0.0624 -0.2368
 2320W        W18794   9.586  12.545  12.168  0.0014 -0.1291  0.0195
 2321W        W18795  18.345  10.421  10.662  0.0312 -0.1292  0.1674
 2322W        W18796  13.386   8.987   4.322  0.2227 -0.2898  0.0646
 2323W        W18797  11.711   7.801   0.792 -0.2582  0.0819  0.3112
 2324W        W18798  15.812   1.470  10.179 -0.1005  0.3878 -0.2958
 2325W        W18799   6.341  10.705   2.763  0.0991 -0.0468  0.1709
 2326W        W18800   9.696  10.143  12.003 -0.2719  0.4701  0.2657
 2327W        W18801  10.084  14.807  13.387 -0.5562 -0.0787 -0.1374
 2328W        W18802  13.981  17.051  12.083 -0.2768  0.0786 -0.2718
 2329W        W18803   3.603   4.799  11.529  0.1830 -0.3833  0.0087
 2330W        W18804   1.014   7.207  12.894 -0.2883 -0.1294  0.1016
 2331W        W18805  14.380   6.958  14.220 -0.3587  0.0530  0.1977
 2332W        W18806   0.468  11.224   3.680  0.3088 -0.1452 -0.1138
 2333W        W18807   8.063   7.137  13.544  0.0073  0.1229  0.2311
 2334W        W18808  14.334  17.353  10.762  0.0367  0.2658  0.2410
 2335W        W18809  15.355  18.644   2.088  0.0893  0.1585  0.1142
 2336W        W18810   4.901  10.013  15.015 -0.0753 -0.1616 -0.2105
 2337W        W18811   2.453   3.018   3.294  0.0816 -0.0778  0.0442
 2338W        W18812   3.594   5.831  12.303  0.2961 -0.0220  0.5161
 2339W        W18813  14.418  16.288  13.153  0.1563 -0.1225 -0.1270
 2340W        W18814  10.530   6.893  14.314  0.1798  0.1204 -0.2582
 2341W        W18815   9.822  10.607  14.048  0.0573  0.5737  0.3033
 2342W        W18816   5.903   9.988  13.987  0.1351 -0.0142 -0.5458
 2343W        W18817   5.240   6.194   1.643 -0.1335 -0.0977 -0.5093
 2344W        W18818   6.070  11.084   5.607 -0.1535  0.0441 -0.1986
 2345W        W18819   0.244  11.856   2.711  0.2278  0.0374  0.3366
 2346W        W18820   2.698   2.477   5.852  0.1642 -0.1999  0.0930
 2347W        W18821  10.286  17.336   2.129  0.2187  0.0260  0.0607
 2348W        W18822  15.573   6.077  13.366  0.0581 -0.0244 -0.1806
 2349W        W18823  13.888   3.246   5.277 -0.3112  0.2852  0.1169
 2350W        W18824   0.244  11.696  13.477 -0.0307  0.0138 -0.0328
 2351W        W18825   3.973   5.619  14.479  0.1411  0.2188  0.1325
 2352W        W18826   4.509  13.085   3.516 -0.0744  0.0957  0.1512
 2353W        W18827   0.774   1.441   1.687  0.2239  0.1326  0.1303
 2354W        W18828  15.611   3.316  13.143  0.1189 -0.0402 -0.0451
 2355W        W18829  10.057   3.936   3.083  0.1585  0.3007 -0.1086
 2356W        W18830  13.424   3.856  15.254  0.1731  0.1056 -0.1905
 2357W        W18831  11.614   4.567   5.770 -0.1341 -0.2215 -0.2088
 2358W        W18832  17.726   3.420  10.510 -0.0225 -0.1522 -0.0309
 2359W        W18833   0.258   7.477   1.178  0.2101  0.1936 -0.3890
 2360W        W18834   9.388  10.928  15.121 -0.0575 -0.0789  0.2014
 2361W        W18835  12.566   5.535  12.930  0.2292 -0.0972  0.1935
 2362W        W18836   9.476   2.761   1.419  0.0676 -0.2581  0.0352
 2363W        W18837  10.988   6.072  11.813 -0.3623  0.4937  0.0994
 2364W        W18838   5.280   5.200  13.800 -0.3679  0.2073 -0.1479
 2365W        W18839  13.376  16.380   3.625  0.0805 -0.2721  0.3724
 2366W        W18840  14.474  10.795  12.558 -0.1804 -0.2395  0.2438
 2367W        W18841   6.355  12.973   3.994  0.2066  0.1043 -0.0458
 2368W        W18842  10.535   4.231   2.368  0.1250 -0.1703  0.0613
 2369W        W18843  16.843  13.456   3.717  0.1318  0.2105 -0.0708
 2370W        W18844   5.027  10.215   5.199 -0.1354 -0.1071 -0.0241
 2371W        W18845  17.147  11.592  11.013  0.2833  0.0573  0.0687
 2372W        W18846   3.562   0.001   4.769 -0.0961  0.1030 -0.1493
 2373W        W18847   8.821  11.551   2.066  0.0523  0.4448 -0.0986
 2374W        W18848  17.662   6.436   2.778  0.3348  0.1376 -0.1740
 2375W        W18849  17.807   4.932   4.290  0.0865 -0.0430  0.2298
 2376W        W18850   6.759   3.527   4.078  0.2317 -0.2584 -0.3182
 2377W        W18851   8.090   6.293   4.491  0.0132 -0.2282  0.1340
 2378W        W18852  16.790   1.496   3.483  0.3355 -0.3621 -0.0294
 2379W        W18853   1.488  16.345  15.681 -0.1576 -0.0642 -0.0861
 2380W        W18854  17.705  17.662   0.152 -0.1214 -0.2436  0.1343
 2381W        W18855   8.172  15.467  11.153 -0.0348  0.0203 -0.0393
 2382W        W18856  10.938   2.114   0.523  0.2508  0.1698 -0.2867
 2383W        W18857   1.172  12.658  11.001 -0.1404 -0.3566  0.1367
 2384W        W18858   4.773   3.089   2.961  0.2266 -0.1800 -0.1063
 2385W        W18859   3.238   2.215  14.588 -0.4065  0.3180 -0.0980
 2386W        W18860  13.745   5.174  12.611 -0.2763 -0.2793  0.0442
 2387W        W18861   8.379  16.518   2.420 -0.2251  0.0134  0.0411
 2388W        W18862   2.405  14.053   0.862  0.0025  0.1559 -0.1440
 2389W        W18863   0.978  13.042  15.159  0.0965 -0.0128 -0.5082
 2390W        W18864   5.999   5.456   2.521  0.0851 -0.3119 -0.1755
 2391W        W18865   6.771   6.144   2.556 -0.2212  0.0286  0.1017
 2392W        W18866   1.361   1.463  11.671  0.2639 -0.0635  0.0261
 2393W        W18867   3.814   2.923  12.472  0.1840 -0.1298 -0.3364
 2394W        W18868  13.629  17.094   2.435  0.1905 -0.3870 -0.0265
 2395W        W18869  13.424  18.666  15.218  0.1682  0.2671  0.3332
 2396W        W18870  12.903  13.462   0.250 -0.0345 -0.0044  0.0348
 2397W        W18871   4.999   1.189   0.468 -0.1754  0.2285  0.0980
 2398W        W18872   8.038   7.230  12.564 -0.0976 -0.0744 -0.2594
 2399W        W18873  18.019   0.881  14.760  0.0441  0.1528 -0.3342
 2400W        W18874  13.067   6.411   1.789  0.1140 -0.0944 -0.3007
 2401W        W18875   4.874   2.348   4.602 -0.0215 -0.0156  0.0774
 2402W        W18876   7.349  11.869  12.496 -0.3502 -0.0258 -0.0306
 2403W        W18877  12.353   6.210  13.977  0.1625 -0.2111 -0.1909
 2404W        W18878  10.672   4.230  14.621 -0.2039 -0.1839  0.0923
 2405W        W18879   8.878  15.903  11.610 -0.3190 -0.2361  0.1192
 2406W        W18880   0.282  12.914  13.556 -0.0129 -0.0657  0.1926
 2407W        W18881   3.338  17.518   2.181 -0.3145 -0.1505  0.0760
 2408W        W18882   7.200  16.761   3.299 -0.2739 -0.1207  0.1213
 2409W        W18883  12.450  10.038   0.361 -0.0594  0.0417  0.0475
 2410W        W18884   4.804  12.245   2.331  0.0311  0.0826  0.2300
 2411W        W18885   5.248   4.466  12.253 -0.1650 -0.0018  0.2168
 2412W        W18886   7.519   7.377   2.065  0.0588 -0.0473 -0.2013
 2413W        W18887  13.343   1.159   0.651  0.3190 -0.1193  0.1275
 2414W        W18888  18.596   8.677   3.583 -0.0205 -0.1190 -0.0379
 2415W        W18889  14.069  10.314   1.864  0.1613  0.0223  0.3416
 2416W        W18890   7.351   6.273   3.783 -0.0654 -0.0791  0.0066
 2417W        W18891   7.228  10.838   2.438  0.2850  0.2824  0.0983
 2418W        W18892  15.004   5.678   3.000 -0.3340 -0.0151 -0.0124
 2419W        W18893   9.756  12.308  14.800  0.3748 -0.0439 -0.0287
 2420W        W18894  15.977  18.288   5.504 -0.0893  0.0167 -0.1768
 2421W        W18895   2.850  17.218   5.417  0.1277 -0.1637 -0.0806
 2422W        W18896   6.327  15.190   5.316  0.2550 -0.2451  0.2461
 2423W        W18897   7.331  10.924  14.623 -0.1068  0.2151 -0.0595
 2424W        W18898  13.972  17.825  14.801  0.3706 -0.3081  0.2102
 2425W        W18899   6.563  11.938   1.935  0.1284 -0.0233  0.1355
 2426W        W18900  17.113   8.149  13.333 -0.2133  0.1572  0.1476
 2427W        W18901   6.275  10.978   0.204 -0.0152  0.2464 -0.1793
 2428W        W18902  18.742   0.200  11.515 -0.0677  0.1187  0.1912
 2429W        W18903   8.251  10.359  12.403  0.1556 -0.0201 -0.0878
 2430W        W18904   9.411   4.851  12.747 -0.0154 -0.3575  0.0235
 2431W        W18905   2.853   0.988  12.931 -0.1208 -0.1472  0.3957
 2432W        W18906  14.061   6.364   0.511 -0.0458  0.1069 -0.0571
 2433W        W18907   5.915   4.758   5.462  0.1469 -0.1287  0.0935
 2434W        W18908   7.397   8.036   1.862 -0.0791 -0.2333  0.1885
 2435W        W18909  13.656  14.273  12.254  0.1014 -0.0979  0.3088
 2436W        W18910   5.230  12.779  13.023 -0.3189 -0.4739 -0.1949
 2437W        W18911   7.939  11.119  14.496  0.1769 -0.0530  0.2836
 2438W        W18912  16.025  11.913   0.605 -0.0856 -0.2251 -0.0511
 2439W        W18913  16.842   9.598   0.965 -0.2170 -0.0987  0.0253
 2440W        W18914   9.562  17.423  11.262  0.1584 -0.0815 -0.1068
 2441W        W18915   4.037   6.278  13.902 -0.4501  0.0987  0.0893
 2442W        W18916  10.858  11.876  13.467  0.0681  0.2909  0.0348
 2443W        W18917   0.313   5.818  10.692 -0.1376  0.0312 -0.0148
 2444W        W18918   1.174   6.213   5.881  0.1925  0.0535 -0.0761
 2445W        W18919  17.328  13.132   0.617  0.2811  0.1590  0.0711
 2446W        W18920  11.012  12.793   2.359 -0.0319 -0.0383 -0.1238
 2447W        W18921   3.302   8.988   5.061 -0.1747  0.3122  0.1665
 2448W        W18922  18.752   0.123  14.674 -0.0440 -0.5056  0.3515
 2449W        W18923   2.352  14.709   4.567 -0.0464  0.1261  0.1867
 2450W        W18924   8.651   3.262   4.558 -0.1028 -0.3269 -0.0630
 2451W        W18925  15.829  15.542  14.950 -0.0219  0.0239  0.0195
 2452W        W18926   8.809   0.347  12.697 -0.3176  0.0673  0.0779
 2453W        W18927  16.676   3.263   0.861  0.0983  0.0124 -0.0624
 2454W        W18928  12.660   6.324   0.921  0.1284 -0.0404 -0.0066
 2455W        W18929  15.063   9.002   4.138 -0.0303 -0.0476  0.1501
 2456W        W18930   4.530  14.408   2.973 -0.3034  0.1000 -0.0854
 2457W        W18931   1.513   5.495   4.750 -0.1271  0.2692  0.1105
 2458W        W18932   2.848  15.326  13.373 -0.0125  0.1747  0.2190
 2459W        W18933   6.988  18.176   1.885  0.2923 -0.0051  0.0951
 2460W        W18934  18.825   4.962   2.634  0.0167  0.2384 -0.0705
 2461W        W18935  10.530  11.433   1.495 -0.2538 -0.2822 -0.0395
 2462W        W18936  12.988   8.189   2.893  0.1756  0.3789  0.0881
 2463W        W18937   5.386  16.386   3.317 -0.0896 -0.1261 -0.0530
 2464W        W18938  12.813   2.144  15.022  0.5537 -0.0967  0.0759
 2465W        W18939  14.854   2.757   0.619 -0.1520 -0.0318  0.0084
 2466W        W18940   8.467   6.068   4.669  0.2432 -0.1033  0.1869
 2467W        W18941  16.106   0.944  13.963 -0.2115 -0.0746 -0.1659
 2468W        W18942   1.486  17.083   1.860 -0.2314  0.0765 -0.0964
 2469W        W18943   1.509  14.188   2.662 -0.1471 -0.2423 -0.0697
 2470W        W18944   0.917   5.042   2.600 -0.1345 -0.3067 -0.0045
 2471W        W18945  18.306   4.773  15.227  0.4017  0.2922  0.1051
 2472W        W18946   6.528  16.104   1.436  0.2102 -0.0254  0.0377
 2473W        W18947   3.531  17.816   1.750  0.1576  0.2313 -0.1410
 2474W        W18948   7.286   0.263   4.845 -0.0643  0.2317  0.2416
 2475W        W18949  14.570  15.112   5.342 -0.0359 -0.0005 -0.2264
 2476W        W18950   1.901  15.780   1.890  0.2816 -0.0197  0.0426
 2477W        W18951   5.017  18.067   3.624  0.1646 -0.0658  0.0988
 2478W        W18952   4.139  15.586   4.682 -0.0114  0.0139  0.2535
 2479W        W18953  12.320  16.011   2.954 -0.1988 -0.1306 -0.0581
 2480W        W18954  16.735   1.414  13.551  0.1102  0.0894 -0.0100
 2481W        W18955  17.810   8.591  11.146  0.0773 -0.0603  0.1498
 2482W        W18956   6.112  12.422  13.260  0.1728  0.2251  0.2990
 2483W        W18957  13.800  12.039  12.361 -0.2062  0.2773 -0.1230
 2484W        W18958   5.930  14.414   4.151 -0.2931  0.2431  0.3357
 2485W        W18959  10.520   1.853  12.498  0.3237  0.1715 -0.0357
 2486W        W18960  15.071   5.844  14.463  0.1567  0.3189 -0.3379
 2487W        W18961  16.076  15.022   1.168  0.0350  0.1400 -0.3110
 2488W        W18962   1.561   8.579   3.017 -0.2021  0.0329 -0.0165
 2489W        W18963  15.286   8.465   1.960  0.1768 -0.0111  0.0056
 2490W        W18964   8.063  16.043  10.907  0.0225  0.0228  0.2319
 2491W        W18965  15.291   5.057  11.910  0.0383  0.0686  0.0545
 2492W        W18966   5.359   0.605  12.194  0.3350 -0.3277 -0.3969
 2493W        W18967  17.809  16.637  12.156  0.0228 -0.1638 -0.0880
 2494W        W18968   6.975   3.610   4.656  0.2648 -0.3431  0.1404
 2495W        W18969   1.362  18.342  14.525  0.1064  0.0898 -0.0960
 2496W        W18970   0.696  18.783   1.302 -0.1563  0.1983  0.0212
 2497W        W18971   3.488   8.902   2.232 -0.2797 -0.3678  0.2604
 2498W        W18972   4.147  18.430  11.863 -0.0074  0.3427  0.3964
 2499W        W18973  15.134   0.440  13.102  0.0816  0.2246 -0.2838
 2500W        W18974   9.103  17.350   2.793  0.0664  0.1501 -0.1652
 2501W        W18975   9.457   5.985  11.885 -0.1283 -0.2127 -0.1100
 2502W        W18976   5.835  18.494   5.795 -0.0702  0.0897 -0.4400
 2503W        W18977   3.722  14.163  14.864  0.2232  0.0551 -0.0662
 2504W        W18978   4.824  18.461   3.956 -0.4121  0.1995  0.3213
 2505W        W18979   0.127  13.770   4.797 -0.3101 -0.0593  0.0886
 2506W        W18980   6.189   5.854   4.059  0.1564 -0.1168  0.1735
 2507W        W18981  12.862   7.544   4.902  0.1093  0.0738 -0.0765
 2508W        W18982   9.875   1.185   0.683 -0.0759  0.3836  0.1909
 2509W        W18983   6.285   1.545  15.464  0.2291  0.2372  0.2829
 2510W        W18984  12.153   3.293   4.421 -0.0415  0.2482 -0.3246
 2511W        W18985   2.274   2.461  14.025  0.3162 -0.0110 -0.1138
 2512W        W18986  17.614   2.681   1.066  0.3076 -0.4334 -0.0457
 2513W        W18987   1.052   6.410   0.730  0.4721  0.0645 -0.0725
 2514W        W18988  15.706  15.996   1.026 -0.2302  0.1686 -0.2320
 2515W        W18989   4.341   5.146  12.341  0.2983  0.0540  0.0515
 2516W        W18990   2.859  13.303  13.703  0.1488 -0.0910 -0.0899
 2517W        W18991  10.161  18.342   3.735 -0.0591 -0.3837 -0.2494
 2518W        W18992  12.604  12.713   5.276  0.0090 -0.0504 -0.0902
 2519W        W18993  10.893  16.238  14.299  0.2438  0.2207  0.0241
 2520W        W18994  16.894  17.836   3.223  0.2639 -0.1293  0.1062
 2521W        W18995   6.871  16.403  14.504  0.0109 -0.1500  0.1708
 2522W        W18996  14.317   3.417  11.389  0.0844  0.4268  0.0558
 2523W        W18997   5.089   4.014  12.057 -0.0425 -0.3372  0.1231
 2524W        W18998   6.939   3.391   0.150  0.1132  0.1053 -0.0264
 2525W        W18999  10.000  11.460   5.376  0.1108 -0.1112  0.0507
 2526W        W19000   1.858   5.639  12.264 -0.0427  0.3125  0.3263
 2527W        W19001   5.704  13.593  13.674  0.0773  0.0269  0.0100
 2528W        W19002  18.278   2.172   4.092  0.3099 -0.1975  0.0159
 2529W        W19003  18.452   1.041  12.245  0.0872  0.1794 -0.2537
 2530W        W19004  16.604  18.711  14.042  0.0126  0.0803 -0.0745
 2531W        W19005   1.471   4.566  12.621 -0.1649  0.2049  0.2503
 2532W        W19006   5.598  14.911  15.461 -0.1137  0.1187  0.2307
 2533W        W19007  14.683  10.182   1.249  0.0027 -0.1528  0.2405
 2534W        W19008  17.788   3.141   3.871  0.0028 -0.1081  0.0028
 2535W        W19009   2.564   4.678  15.612  0.0791 -0.4299  0.1708
 2536W        W19010  10.559   7.008   3.071 -0.4287 -0.1200  0.0544
 2537W        W19011  11.098   8.823  13.872  0.1823 -0.0110 -0.1827
 2538W        W19012  18.004   3.540  13.094 -0.0751 -0.3251 -0.0636
 2539W        W19013  17.998   5.675   3.073  0.1809 -0.2016 -0.2223
 2540W        W19014   9.019  14.774  11.420  0.0549 -0.1804  0.0593
 2541W        W19015   1.037   3.697   1.034 -0.0969 -0.0563 -0.1808
 2542W        W19016   6.742  14.438   0.508  0.0277 -0.0018  0.0366
 2543W        W19017  16.618   5.037   0.106 -0.1694  0.1253 -0.0254
 2544W        W19018   3.036   2.004  12.631  0.2255 -0.0556 -0.2589
 2545W        W19019  16.253  15.257  12.730  0.3590  0.3582 -0.3825
 2546W        W19020   2.849   2.849  11.375 -0.1666  0.2185  0.3198
 2547W        W19021   0.486  14.565   4.781 -0.0319 -0.0199  0.2936
 2548W        W19022  18.160  10.666  12.997  0.0248 -0.1313  0.1987
 2549W        W19023  15.086  15.045  14.730 -0.0564  0.1456 -0.0936
 2550W        W19024   0.452  13.617  14.896 -0.2027  0.1724 -0.0455
 2551W        W19025  17.420  13.979  12.364  0.1707  0.0639  0.0996
 2552W        W19026  18.038   6.605   3.011  0.0259  0.3495 -0.0621
 2553W        W19027   1.651   8.797   1.641  0.3135 -0.0540  0.1708
 2554W        W19028   5.279  13.008   4.777 -0.0140 -0.2804  0.0806
 2555W        W19029   4.442  16.891  13.130 -0.0150 -0.1022 -0.2889
 2556W        W19030  18.452   5.372   1.228  0.2513  0.1410 -0.1557
 2557W        W19031  11.021  17.420   4.520 -0.3960  0.1189  0.3723
 2558W        W19032  10.432  15.103   0.318  0.0127 -0.1430 -0.0969
 2559W        W19033   0.618   0.462  13.562  0.1372  0.1234  0.3156
 2560W        W19034  14.447   0.078  13.673 -0.1963  0.0009 -0.3307
 2561W        W19035   1.080   9.257   5.411  0.0074 -0.0515 -0.1514
 2562W        W19036  16.117   6.016  12.953 -0.1943  0.2866  0.2318
 2563W        W19037  14.040   4.842   0.560  0.1581 -0.0051  0.0205
 2564W        W19038   2.844   9.280   0.837  0.0039 -0.0876  0.0731
 2565W        W19039   1.513   1.718   3.580  0.0339  0.1600  0.1216
 2566W        W19040   6.886  10.552  12.595  0.1376  0.4919  0.0839
 2567W        W19041  13.675  15.622  15.331  0.2444 -0.2028 -0.0516
 2568W        W19042  15.090   3.680   0.373  0.0268 -0.0227 -0.1575
 2569W        W19043  11.949   2.539  15.307  0.0606  0.4277  0.1456
 2570W        W19044   4.971  17.959  15.522  0.0213  0.4460 -0.2759
 2571W        W19045   7.703   0.160   3.352  0.0718 -0.4178  0.1662
 2572W        W19046  10.395   4.971   4.049 -0.2955  0.2111  0.4011
 2573W        W19047   6.285   2.882  15.418 -0.1208  0.1254  0.3820
 2574W        W19048   3.112   8.780  12.749  0.0070  0.1724  0.0963
 2575W        W19049   9.870   3.514  12.103  0.4949  0.0076 -0.1185
 2576W        W19050  16.600   8.864   3.085  0.0065 -0.3165 -0.3459
 2577W        W19051   3.467   1.853  14.225  0.2200 -0.0220  0.2529
 2578W        W19052  13.862  18.696  11.430  0.1358 -0.1455  0.1003
 2579W        W19053   6.611  10.175  14.606  0.0555  0.0139  0.2065
 2580W        W19054   8.184  14.529  12.450  0.0812 -0.0055  0.2367
 2581W        W19055  17.578  11.889   4.407  0.3107 -0.2800 -0.0906
 2582W        W19056   2.353  11.434  10.674 -0.0612 -0.1521  0.1382
 2583W        W19057  14.334  18.495  13.369 -0.0590  0.0226  0.0250
 2584W        W19058   9.271   4.194  14.803 -0.2324 -0.3603  0.0028
 2585W        W19059   3.537  16.437  13.296 -0.0586 -0.0556  0.0489
 2586W        W19060   5.317   0.933   1.451  0.2662  0.0222  0.0400
 2587W        W19061  16.948  18.839  10.417  0.2216  0.0138 -0.2381
 2588W        W19062   1.891  18.437   3.784 -0.1634  0.0115 -0.4095
 2589W        W19063   5.474  10.530   3.953 -0.1241  0.0052 -0.1288
 2590W        W19064  17.684   2.489  10.246  0.3818 -0.0811  0.0820
 2591W        W19065   5.759   3.491  11.949  0.1519 -0.1387  0.2118
 2592W        W19066   8.952  13.333   9.956 -0.2982  0.1309 -0.0363
 2593W        W19067   1.507   4.862   5.439 -0.2520  0.3499  0.2425
 2594W        W19068  15.086  14.488   4.752  0.0331  0.0371 -0.2560
 2595W        W19069   8.225  18.400   2.606  0.2820 -0.4489  0.0367
 2596W        W19070   0.369   2.482   9.476  0.1942  0.2135 -0.0861
 2597W        W19071  15.468   0.213   0.275 -0.0367 -0.1920  0.4864
 2598W        W19072   0.026  17.752   1.572 -0.1774 -0.1410  0.2992
 2599W        W19073   1.440   7.321   0.976 -0.1223 -0.2239 -0.0021
 2600W        W19074  14.444  10.101  13.959  0.0528  0.2970  0.1573
 2601W        W19075   1.209  13.610   4.058  0.0189  0.1702  0.0335
 2602W        W19076  10.066   7.706  11.453 -0.2234  0.1570  0.0124
 2603W        W19077  16.443  13.594  10.372 -0.1723 -0.0038 -0.1851
 2604W        W19078   5.056   4.161   2.540 -0.1154 -0.1738  0.4344
 2605W        W19079   5.805   5.979  14.087 -0.1190 -0.0740 -0.0942
 2606W        W19080   9.251   8.797  12.889  0.0090 -0.2421  0.0992
 2607W        W19081   9.650   0.314  13.452 -0.0355  0.1706 -0.0636
 2608W        W19082   3.437   7.359   3.607 -0.1231  0.4084  0.3235
 2609W        W19083  17.338   0.051   2.470  0.2859 -0.0698  0.0225
 2610W        W19084  15.707   2.727  11.955 -0.1720 -0.2170 -0.1761
 2611W        W19085   9.799  15.984  11.420 -0.1293  0.2143  0.0714
 2612W        W19086   8.538   4.255  12.765 -0.0711 -0.2257 -0.1485
 2613W        W19087  10.442   6.501   2.994 -0.2083  0.0491 -0.1523
 2614W        W19088   6.885  11.751  14.566  0.1421  0.1701 -0.4536
 2615W        W19089  10.340  11.855   3.899  0.1413 -0.2478  0.2178
 2616W        W19090  13.642   2.832  10.731  0.0254 -0.3930 -0.0522
 2617W        W19091   4.438   4.306   1.102 -0.4432 -0.2737  0.1640
 2618W        W19092  18.214   3.458   3.164  0.1344 -0.0491  0.1238
 2619W        W19093   3.585  16.962   4.914 -0.1805  0.0712  0.2976
 2620W        W19094  11.485   0.113   0.810 -0.0533 -0.2551 -0.1283
 2621W        W19095  14.848   6.634   2.165  0.0189  0.1054 -0.0877
 2622W        W19096   4.465  14.539   4.092  0.0519 -0.0922  0.0110
 2623W        W19097  12.446  17.721   0.338  0.0442  0.0042 -0.0317
 2624W        W19098   1.388  17.353  14.856 -0.1243 -0.0598  0.0589
 2625W        W19099   2.091   1.471  10.283  0.3677  0.1002 -0.5861
 2626W        W19100  13.093  13.007   3.758  0.0318  0.0537  0.3451
 2627W        W19101  18.505   5.921  12.850  0.3813  0.1202  0.0261
 2628W        W19102   2.571  10.483  12.195  0.0613  0.1198 -0.1366
 2629W        W19103  13.057  17.855   5.072  0.0844 -0.1208  0.2948
 2630W        W19104   4.760  11.673   1.696  0.1508  0.0871  0.2991
 2631W        W19105  15.442   1.092  14.291 -0.0369 -0.3443  0.1689
 2632W        W19106   4.136  16.732  11.268  0.2041  0.0693 -0.1679
 2633W        W19107   5.111  12.690   1.144 -0.2705 -0.0289  0.0092
 2634W        W19108   0.019   6.186   4.326  0.2073 -0.2287  0.1173
 2635W        W19109   4.500   5.461  14.796  0.1064 -0.0207 -0.0466
 2636W        W19110   9.451  11.476  13.742  0.0011 -0.0041  0.0387
 2637W        W19111  15.969   8.347   0.662 -0.1828  0.1822  0.2022
 2638W        W19112   9.707  18.227   5.859  0.0749 -0.3047 -0.0593
 2639W        W19113  13.267   6.706  12.663  0.2127  0.0207 -0.1840
 2640W        W19114   4.552  14.160  11.204  0.3629  0.0234  0.1173
 2641W        W19115   1.611   8.015   2.987  0.1107 -0.3444  0.1010
 2642W        W19116   4.510   4.372  12.856 -0.2387 -0.0603  0.1999
 2643W        W19117  11.510   4.065  11.712 -0.0805 -0.2921 -0.1840
 2644W        W19118  15.822   9.049   4.633  0.1654  0.2912  0.0989
 2645W        W19119   2.861   2.780  15.342  0.0047 -0.2673 -0.0335
 2646W        W19120   4.591   0.308   1.477  0.1031 -0.0683 -0.3937
 2647W        W19121   4.521   0.882  13.874 -0.1383 -0.1165  0.1686
 2648W        W19122   2.189  10.552   2.086 -0.0270  0.1363 -0.2660
 2649W        W19123  18.206   8.638   4.237  0.0209  0.1256 -0.0454
 2650W        W19124   0.425   1.100  11.677  0.1724 -0.0147  0.0037
 2651W        W19125   3.641  12.480  14.634 -0.0564  0.1985  0.0804
 2652W        W19126  11.242   8.100   4.842  0.1623  0.3189  0.2215
 2653W        W19127  10.312   9.763   3.520 -0.1259  0.0587  0.1348
 2654W        W19128   8.534   2.962   5.013 -0.0965  0.1698 -0.2514
 2655W        W19129   7.745   9.463  11.507  0.3671  0.3277  0.0194
 2656W        W19130   6.345   6.545  11.527  0.2162 -0.3651  0.1432
 2657W        W19131  12.941   1.284   1.594  0.0364  0.4513  0.3071
 2658W        W19132   3.132   1.884  13.700 -0.6030 -0.2111  0.0533
 2659W        W19133   8.696   4.309  12.160 -0.0134 -0.1175 -0.3443
 2660W        W19134  15.253  14.700  15.146 -0.2555  0.0994 -0.1321
 2661W        W19135  17.501  15.651  13.019  0.0118  0.0573  0.0907
 2662W        W19136   5.421   0.846   2.887 -0.4060 -0.1397 -0.1054
 2663W        W19137   7.095   7.157   0.856 -0.0266 -0.0344  0.1703
 2664W        W19138   8.311   3.429  12.800 -0.1311 -0.3820  0.1324
 2665W        W19139  15.636  16.233  12.500 -0.1553  0.1286  0.0574
 2666W        W19140  11.601  16.746   4.067 -0.1249 -0.0013  0.0290
 2667W        W19141  15.901  17.371   2.854 -0.0801 -0.0849 -0.1969
 2668W        W19142   4.179   4.052  11.605  0.6187 -0.0992  0.3841
 2669W        W19143  11.120   7.011   2.206  0.0373  0.1084  0.1156
 2670W        W19144  11.301   4.069   1.593  0.2345 -0.5467 -0.1939
 2671W        W19145   5.787   8.907  13.878  0.0250 -0.2643 -0.0059
 2672W        W19146   5.780  16.012   2.457  0.1149  0.0584  0.0076
 2673W        W19147  18.803   8.364   4.435 -0.1079 -0.1434 -0.1794
 2674W        W19148   1.033   6.517   5.046  0.1401 -0.4403 -0.0875
 2675W        W19149  11.935  11.446  12.402  0.0527 -0.0813 -0.0656
 2676W        W19150   1.820   3.921   3.857  0.1488 -0.2443  0.0167
 2677W        W19151   2.379  17.676  10.960 -0.0873 -0.2911  0.0366
 2678W        W19152   1.740   1.886   4.401 -0.1034  0.1346  0.0748
 2679W        W19153   7.706  16.357   6.028 -0.2246 -0.2893  0.1287
 2680W        W19154  14.483   0.127   3.699  0.0722  0.0654 -0.2979
 2681W        W19155   0.364   5.811  14.441  0.1281  0.2844 -0.0997
 2682W        W19156   4.424  15.381  11.738  0.1836  0.0592 -0.0326
 2683W        W19157   5.382   3.601   0.850 -0.1515  0.1317  0.0743
 2684W        W19158   5.014  16.273   4.967  0.1890  0.2384  0.3331
 2685W        W19159  13.219  17.340  14.102 -0.1315 -0.0514 -0.2900
 2686W        W19160   8.888  15.634  15.290 -0.0653  0.1415  0.0930
 2687W        W19161  16.088   2.439  10.199  0.2983 -0.0168  0.4533
 2688W        W19162   4.132  12.834   2.314 -0.1096  0.3179 -0.1449
 2689W        W19163   5.500  11.766   1.155  0.0200  0.1433  0.0544
 2690W        W19164  14.283   4.888  14.409  0.2126  0.0684  0.3595
 2691W        W19165   5.265  15.796   4.774 -0.1981  0.0357 -0.2535
 2692W        W19166   7.626   5.443   4.560 -0.1457 -0.0405  0.1145
 2693W        W19167   4.817  17.284  11.506 -0.0871  0.2366 -0.2242
 2694W        W19168   4.511  13.330  13.083 -0.3584 -0.2388 -0.2991
 2695W        W19169   1.172   0.595   0.275 -0.0301  0.2427  0.0091
 2696W        W19170  13.637  11.130  13.028 -0.0595  0.3090  0.0467
 2697W        W19171   4.694  14.535   1.338  0.2578  0.0468  0.0095
 2698W        W19172  11.884  11.068  15.425 -0.1671 -0.4166 -0.0736
 2699W        W19173   8.874  13.505   2.627 -0.0538  0.1171 -0.2783
 2700W        W19174  16.623  17.987   0.839  0.1973  0.0573 -0.0342
 2701W        W19175  11.920  11.956  12.074 -0.0674 -0.0518 -0.3833
 2702W        W19176   1.015   4.283   3.623  0.0712  0.2955  0.0731
 2703W        W19177  11.117  11.454  14.863 -0.1688 -0.1865 -0.1867
 2704W        W19178  16.882   7.571  10.861 -0.0805  0.4908  0.3222
 2705W        W19179   1.093  12.766   4.190 -0.1068  0.1963  0.1755
 2706W        W19180   4.246  12.339   0.975  0.0667 -0.1916 -0.1755
 2707W        W19181  12.305  18.402  14.355 -0.0277  0.0750 -0.1337
 2708W        W19182  18.791  17.023  10.437  0.2242 -0.2870 -0.0588
 2709W        W19183  15.583  14.440  13.550 -0.1688  0.0178 -0.1209
 2710W        W19184  13.390  18.353   1.471  0.0464 -0.0162  0.1423
 2711W        W19185   7.788   7.226  12.012  0.2461 -0.2951 -0.1327
 2712W        W19186  10.183  17.803  15.253 -0.2488  0.3045 -0.0021
 2713W        W19187  12.340   4.679  12.992 -0.0858 -0.0288  0.1927
 2714W        W19188  12.689  13.013   0.282  0.0346 -0.0551  0.3156
 2715W        W19189   7.159   9.811   5.812 -0.0006 -0.2994 -0.2479
 2716W        W19190  13.504   3.966   2.988 -0.1811  0.1191  0.1578
 2717W        W19191  15.287  15.820  13.570 -0.1701  0.4685 -0.0932
 2718W        W19192  15.817   9.196  10.879 -0.2412 -0.0498 -0.2996
 2719W        W19193   2.945  12.219  15.191 -0.0428  0.1272  0.1616
 2720W        W19194   6.100   0.663  12.614  0.0976  0.0141  0.1160
 2721W        W19195   1.786   5.744  13.913  0.0962  0.0931  0.0260
 2722W        W19196  17.903   9.344  15.087 -0.2479  0.0061 -0.0844
 2723W        W19197   9.815   9.095  15.280  0.1559  0.1124 -0.3512
 2724W        W19198   7.611  15.444   1.288  0.4645 -0.1124 -0.2676
 2725W        W19199   9.550  10.431  12.554 -0.1996 -0.4548 -0.1918
 2726W        W19200  12.098  10.866   4.256 -0.1306 -0.0464  0.2586
 2727W        W19201   4.554   0.718  12.620  0.0134 -0.1661 -0.0097
 2728W        W19202   5.332   2.648  12.249  0.0669 -0.0578  0.1836
 2729W        W19203   0.238   4.842   4.673  0.2461  0.1182 -0.0006
 2730W        W19204   0.898   4.401   1.695 -0.1672  0.3091 -0.0140
 2731W        W19205   8.938  15.386  13.929  0.2965  0.2130  0.0252
 2732W        W19206  11.578  11.211   1.877 -0.0955  0.0289  0.0288
 2733W        W19207   3.241  18.765  13.713  0.0322  0.1467 -0.0134
 2734W        W19208  14.140   5.534  12.865 -0.0552 -0.0722 -0.0202
 2735W        W19209   6.581   2.647   4.652 -0.3914 -0.2072 -0.2004
 2736W        W19210  14.819   7.256   0.220  0.1104 -0.2333 -0.3513
 2737W        W19211   3.894  16.066   5.357  0.1924 -0.0166 -0.3099
 2738W        W19212   0.129  10.871   4.133 -0.1402  0.0544 -0.3301
 2739W        W19213   2.602   4.381  13.248  0.2282  0.2266 -0.0906
 2740W        W19214   8.907  17.916   4.801 -0.2340 -0.0945  0.0657
 2741W        W19215  12.102   6.508   5.943  0.3575  0.1264 -0.0248
 2742W        W19216   7.347   5.342  13.691  0.0330  0.0282 -0.0729
 2743W        W19217   3.948   5.385  15.591 -0.2005 -0.0203 -0.1168
 2744W        W19218   7.258   2.222  13.975  0.0354  0.1839  0.0231
 2745W        W19219  18.710  12.691  13.828  0.2132 -0.0993 -0.0652
 2746W        W19220  18.318   3.346  12.734  0.2933  0.3042 -0.0643
 2747W        W19221   8.200  18.783  11.412  0.2478 -0.0514  0.0704
 2748W        W19222   6.878   5.777  11.688  0.2384 -0.0228  0.0002
 2749W        W19223   8.424   6.527   2.948 -0.3744 -0.0053  0.0819
 2750W        W19224   9.288   0.500  14.477 -0.0413  0.3822  0.3178
 2751W        W19225  16.919  14.855   0.513 -0.0421 -0.0725 -0.0909
 2752W        W19226  17.833  14.576   2.244  0.3646  0.0342 -0.2424
 2753W        W19227   6.251  16.079  13.306  0.1029  0.1534 -0.0938
 2754W        W19228  11.029  15.096  11.784  0.1389  0.0301  0.1610
 2755W        W19229   1.982   4.831   4.150 -0.0111  0.2467  0.5792
 2756W        W19230   2.725   2.991  12.750 -0.0897 -0.1247  0.4051
 2757W        W19231   2.729   5.067   1.982  0.2184 -0.0572 -0.0972
 2758W        W19232   8.836   3.469  12.179  0.0591 -0.1376 -0.0600
 2759W        W19233  12.236  13.334   0.213  0.0082  0.1708 -0.2699
 2760W        W19234  16.982   2.937   0.478 -0.2181 -0.0838 -0.0408
 2761W        W19235   9.676   3.605   4.547  0.2046  0.0816 -0.3211
 2762W        W19236  15.737  13.207  11.564  0.0073 -0.0634 -0.0617
 2763W        W19237   4.928   6.211   2.061 -0.2617 -0.0867  0.2067
 2764W        W19238  10.631  18.040  14.430 -0.1589  0.2338  0.0218
 2765W        W19239  15.781   6.940  12.974 -0.1563 -0.1025  0.4234
 2766W        W19240   5.311   2.965   1.293  0.3140  0.2120 -0.2344
 2767W        W19241   4.363  12.215  13.482  0.0041 -0.2568 -0.0764
 2768W        W19242   7.362   0.764   3.346  0.1152  0.0870  0.2267
 2769W        W19243  11.962   5.998   0.204  0.1119  0.2774 -0.1597
 2770W        W19244   1.861   6.533  10.656 -0.0636 -0.1007  0.1282
 2771W        W19245  13.865   0.138   0.500  0.2612 -0.0260 -0.2460
 2772W        W19246   5.562   6.267  11.440  0.1266  0.1674 -0.3049
 2773W        W19247   7.913  10.242  11.939  0.0267 -0.0495  0.1086
 2774W        W19248  13.773  17.707   3.420 -0.1243  0.2907  0.2252
 2775W        W19249  14.972   1.217  10.506  0.0318 -0.0985  0.1905
 2776W        W19250   5.952   2.995  11.798  0.2438 -0.0526  0.2417
 2777W        W19251  11.444   9.289   0.592  0.4748 -0.1988 -0.0048
 2778W        W19252  13.304   0.398   1.486  0.0512  0.0127 -0.2206
 2779W        W19253  13.635   3.033   4.862 -0.0527 -0.1701 -0.2029
 2780W        W19254   1.955   4.385  14.158  0.2739  0.0937  0.3946
 2781W        W19255  14.737  16.472  11.846 -0.1574  0.3640  0.0228
 2782W        W19256  14.242   1.678   1.609 -0.1483 -0.3700 -0.1528
 2783W        W19257   4.228   1.455   0.188  0.0052  0.1441 -0.1334
 2784W        W19258   4.193   5.889  14.787  0.2781  0.5079  0.1842
 2785W        W19259   6.308   8.668  14.649 -0.1411  0.1099 -0.0836
 2786W        W19260   2.049  16.179   0.433  0.0465 -0.0919 -0.0821
 2787W        W19261  16.131   2.835   4.623  0.2390 -0.0057  0.0996
 2788W        W19262  17.851  16.924  10.470 -0.0983 -0.4484  0.1958
 2789W        W19263  11.506   4.751  12.981  0.2386 -0.0052 -0.0087
 2790W        W19264   5.821  17.779  14.583  0.2760  0.0468  0.1117
 2791W        W19265   9.944   4.770   4.091 -0.2933  0.1011 -0.1589
 2792W        W19266   9.085  11.084   1.915 -0.4218  0.1274  0.2585
 2793W        W19267  17.815  16.100   1.395  0.3718  0.1811  0.0789
 2794W        W19268  18.589   3.468  14.767  0.3992  0.0316 -0.0233
 2795W        W19269   7.941   3.715   6.362  0.1179  0.0337  0.2404
 2796W        W19270  17.807   3.276  15.481  0.3132 -0.0240  0.0312
 2797W        W19271  18.265  13.227   3.693  0.1719  0.0715  0.3487
 2798W        W19272   2.651   8.347   1.889  0.0587  0.0714 -0.0442
 2799W        W19273   7.341   4.246  15.623 -0.0189  0.0800 -0.2082
 2800W        W19274  16.753  18.248   1.293  0.2826  0.0175 -0.0548
 2801W        W19275   3.102  11.259   4.358 -0.3245  0.3048 -0.0503
 2802W        W19276  18.579  15.447  11.478  0.1327 -0.1334 -0.0834
 2803W        W19277   0.184  14.057   2.859 -0.0601  0.0561  0.4970
 2804W        W19278  16.993   7.142   0.878  0.3018  0.3410  0.0227
 2805W        W19279   2.553   4.922  13.504 -0.0177  0.0856 -0.0005
 2806W        W19280  12.686  16.701  13.466  0.2551  0.1311  0.2590
 2807W        W19281   4.551  15.724  15.163  0.0299  0.0293  0.1789
 2808W        W19282   1.607   1.988  11.766 -0.3031 -0.0006  0.3121
 2809W        W19283  18.079   6.501   3.572 -0.2440  0.1512  0.0191
 2810W        W19284  13.046   4.678   5.942 -0.1937 -0.2699  0.3390
 2811W        W19285   5.802   7.799   4.537 -0.1338 -0.0077  0.0389
 2812W        W19286  18.159   0.299   9.115 -0.0279  0.2104 -0.2765
 2813W        W19287   1.723   4.564   1.871 -0.1215 -0.0372  0.1492
 2814W        W19288  17.565  16.011  12.169  0.5762 -0.1375 -0.1294
 2815W        W19289  15.314  13.496  11.393  0.1442 -0.0046 -0.2748
 2816W        W19290  12.418  15.984  11.487 -0.0623 -0.0631  0.1381
 2817W        W19291   6.978   2.830   0.481  0.0297  0.2121 -0.0861
 2818W        W19292  10.170   6.922   3.906 -0.1599 -0.0400 -0.0688
 2819W        W19293   5.744   4.200  11.384  0.1808 -0.1754 -0.2384
 2820W        W19294  16.527   4.363  14.229 -0.3304  0.0207  0.2115
 2821W        W19295  13.944  12.143  11.844 -0.1419 -0.0421 -0.0485
 2822W        W19296   6.018   4.125  11.758 -0.1803 -0.0482 -0.2053
 2823W        W19297   9.096   6.999   1.095  0.0875  0.1365  0.0953
 2824W        W19298  11.186  11.227   4.138 -0.0651  0.0075 -0.1722
 2825W        W19299   4.739  10.559   2.951  0.2389 -0.0418 -0.1123
 2826W        W19300  13.038  18.536   2.519  0.2058  0.0730 -0.1111
 2827W        W19301  16.944  16.933  12.366 -0.0939 -0.3109 -0.1914
 2828W        W19302  17.025  15.961  12.889  0.1055 -0.1375  0.0739
 2829W        W19303   4.732  13.621   1.117  0.3199 -0.3836 -0.1212
 2830W        W19304  15.397   9.969  14.607  0.0155  0.0240  0.3016
 2831W        W19305   5.720   3.396   0.495  0.4719 -0.1610 -0.1371
 2832W        W19306  16.924  17.983  15.419  0.1308  0.1011 -0.3149
 2833W        W19307   2.883  13.720   2.154  0.0254 -0.1451 -0.0810
 2834W        W19308  18.837   3.588   5.263 -0.0452  0.0569  0.1317
 2835W        W19309   6.198  11.242   2.207 -0.0449  0.2617  0.2800
 2836W        W19310  18.038   2.316  14.632 -0.1329 -0.0110 -0.0966
 2837W        W19311  10.515  15.010  12.870  0.0546 -0.2747  0.0239
 2838W        W19312  11.068  13.255   2.424  0.1158 -0.0648  0.1477
 2839W        W19313  12.113  11.209   0.134  0.1857  0.0217 -0.1764
 2840W        W19314  10.582  12.214  13.276  0.0044  0.0050  0.1559
 2841W        W19315   0.815  18.152  13.111  0.1476  0.1212 -0.0099
 2842W        W19316   9.978  18.084  11.774  0.3238  0.2021 -0.0741
 2843W        W19317   5.505  12.897   2.309 -0.1168  0.3612  0.1733
 2844W        W19318   8.000   5.796   4.553 -0.2188 -0.0027 -0.1461
 2845W        W19319  17.635  10.330   5.135 -0.0538 -0.1630  0.3836
 2846W        W19320  15.574  18.553   5.703 -0.1476  0.2245  0.0214
 2847W        W19321  15.961  18.064  15.311  0.1363 -0.3083 -0.2242
 2848W        W19322  10.568  13.601   0.578  0.2565  0.0353 -0.0856
 2849W        W19323  11.045  18.580  12.324  0.0167  0.0816 -0.2911
 2850W        W19324   1.450  15.420   5.172  0.0767 -0.0798 -0.2810
 2851W        W19325  14.884   4.679   4.235 -0.3444  0.0270  0.1634
 2852W        W19326   2.370  18.564   0.127 -0.0154  0.1254 -0.0505
 2853W        W19327   8.547  12.724   0.062  0.0304  0.3967  0.0507
 2854W        W19328   3.611  15.590  12.922 -0.0486 -0.1652 -0.3659
 2855W        W19329   4.267   5.371   1.255 -0.1868  0.1923  0.0445
 2856W        W19330  18.216   7.441  14.632 -0.0138  0.0215 -0.1743
 2857W        W19331  16.561   8.836  11.014 -0.1781  0.2278 -0.3640
 2858W        W19332   9.929   1.028  14.997 -0.1624 -0.2751 -0.0273
 2859W        W19333  18.707   3.596  14.246 -0.0202  0.2564 -0.2158
 2860W        W19334  14.816   8.466   5.293 -0.0789 -0.0225 -0.0265
 2861W        W19335  15.261  15.085   0.611 -0.3525 -0.2059 -0.1964
 2862W        W19336  16.327   0.559  10.249 -0.2024  0.3500 -0.0088
 2863W        W19337   8.143   4.243  15.206  0.2295 -0.1638 -0.0495
 2864W        W19338   8.958   1.955   3.879 -0.0786 -0.3345  0.0264
 2865W        W19339  10.778  16.383  13.399 -0.0413 -0.1926  0.1557
 2866W        W19340   0.420   4.688   2.519  0.3230 -0.0285  0.2421
 2867W        W19341  12.735  14.587  13.991 -0.2330  0.0789  0.2558
 2868W        W19342  10.036  13.752   3.040 -0.1524  0.0790 -0.0536
 2869W        W19343  10.147  16.039  13.926 -0.1431 -0.0028  0.0403
 2870W        W19344  17.016  10.611  10.607  0.1337  0.1996  0.1848
 2871W        W19345  13.457  17.671  10.435 -0.1237  0.2111 -0.0127
 2872W        W19346  13.069   9.497  12.945  0.0073 -0.0216 -0.0436
 2873W        W19347   8.932  16.913  11.656  0.0172 -0.1212 -0.2106
 2874W        W19348   0.124  18.812  10.946 -0.0827 -0.2278  0.0562
 2875W        W19349   3.480   0.816   5.248 -0.3700 -0.1900  0.0262
 2876W        W19350   3.118   1.426  14.073  0.0795  0.3115  0.1099
 2877W        W19351  14.366   3.680   5.032  0.1338 -0.1927 -0.1232
 2878W        W19352   5.101  17.810  13.975  0.6514  0.2439 -0.0658
 2879W        W19353   8.533   0.987  13.447  0.0782  0.0006 -0.2145
 2880W        W19354   3.205  11.561  13.407  0.1457  0.0386 -0.3157
 2881W        W19355   1.979  16.770  13.219  0.0752  0.0392 -0.0272
 2882W        W19356  12.889   4.211   1.890  0.0597 -0.5935 -0.1615
 2883W        W19357  12.500   3.045  15.130  0.0016  0.0194  0.0464
 2884W        W19358  13.921  18.740  10.867  0.1187 -0.0521  0.0429
 2885W        W19359  16.385   6.707  15.163 -0.0635 -0.2634  0.2685
 2886W        W19360   9.915   2.889  14.377 -0.1402  0.3799  0.1717
 2887W        W19361  16.672  10.606   4.212 -0.0065 -0.1743 -0.0320
 2888W        W19362  12.752   0.858  13.514  0.2259 -0.1913  0.0899
 2889W        W19363  16.352   9.444  14.663  0.1733  0.1693  0.4369
 2890W        W19364  15.671   1.336  10.657  0.1027  0.1983  0.0989
 2891W        W19365  11.814   6.705  12.308 -0.3465 -0.1327 -0.3087
 2892W        W19366  11.741  17.992   3.774 -0.1813 -0.0578 -0.1480
 2893W        W19367   5.758  17.484  12.151 -0.1251  0.3092  0.0612
 2894W        W19368   5.710   3.444  11.064  0.1130 -0.0143  0.0317
 2895W        W19369   0.260  15.675   3.899 -0.1041  0.1913 -0.2336
 2896W        W19370   5.785  13.744  11.807  0.0440 -0.2411 -0.1949
 2897W        W19371  16.390  11.128   4.292 -0.3129  0.2504 -0.0608
 2898W        W19372   0.717   5.553   3.705 -0.1092  0.0863 -0.5579
 2899W        W19373   6.778  15.783  13.837 -0.3929 -0.0010  0.0704
 2900W        W19374   9.402   8.947   2.876 -0.0634 -0.4671  0.3141
 2901W        W19375   8.566   3.092   0.637  0.1755 -0.1832  0.1314
 2902W        W19376   1.312   7.636   1.991 -0.0319 -0.1433 -0.1753
 2903W        W19377   9.183  14.040   3.284 -0.1458 -0.5187 -0.3611
 2904W        W19378  17.389  17.830   0.891 -0.3567  0.1581  0.0789
 2905W        W19379   0.649   4.770  12.302  0.0638 -0.3156  0.5463
 2906W        W19380   9.077   6.070   3.710 -0.2128 -0.1822  0.0682
 2907W        W19381   7.622  17.413  12.985 -0.2009 -0.1219 -0.1217
 2908W        W19382   9.403   7.003  11.542 -0.4285 -0.2927 -0.3226
 2909W        W19383  11.226   9.329  15.643 -0.0470  0.1992 -0.0690
 2910W        W19384   8.605   2.493   1.306  0.2182  0.2630  0.0918
 2911W        W19385   8.067  14.611   5.092 -0.0074 -0.0021 -0.1923
 2912W        W19386   3.357  17.174   2.569  0.1001 -0.0370 -0.1573
 2913W        W19387  17.991  16.136   3.601 -0.2288 -0.2318 -0.0050
 2914W        W19388   1.009   1.637  15.324  0.3975 -0.0712  0.0311
 2915W        W19389  10.248   8.833   5.279  0.0886 -0.0917 -0.0326
 2916W        W19390   7.959   0.646  12.247  0.1934 -0.0302  0.1216
 2917W        W19391  11.170   2.238   6.238  0.0316  0.0340  0.0815
 2918W        W19392  15.268  10.160  15.123  0.2465 -0.0463  0.0431
 2919W        W19393   6.910  11.245  11.821  0.0236 -0.0643 -0.1333
 2920W        W19394   4.682   3.439   3.272 -0.0605  0.0947  0.1729
 2921W        W19395  17.834   3.112   2.930 -0.1139 -0.0347  0.0583
 2922W        W19396   0.202  14.202   0.408 -0.0225 -0.2321 -0.0227
 2923W        W19397  17.197   3.906  10.552  0.0473  0.2534 -0.1288
 2924W        W19398  11.360  10.886  11.752  0.3299  0.0210  0.0331
 2925W        W19399  15.212   4.544  15.444 -0.0193 -0.0371  0.0361
 2926W        W19400  14.373   6.412   0.048 -0.0344  0.2486  0.2889
 2927W        W19401  14.302   9.289  10.900 -0.2923  0.1875 -0.3977
 2928W        W19402  14.033   3.670   1.153 -0.0051  0.0170  0.2551
 2929W        W19403  18.492  11.072  14.325  0.1296 -0.0920  0.0097
 2930W        W19404  11.390  16.914   0.131  0.1944  0.0095  0.2312
 2931W        W19405  10.829  17.626  12.908  0.2309  0.1595  0.0556
 2932W        W19406   6.846  18.603   2.863 -0.0712  0.0454 -0.0451
 2933W        W19407  18.429  17.221  13.801 -0.0658  0.0882 -0.2302
 2934W        W19408   9.983  12.150  11.984 -0.0252  0.1484  0.0859
 2935W        W19409   9.854  16.155  10.913  0.1436  0.2463 -0.1187
 2936W        W19410  15.387  14.740  11.226 -0.1151 -0.0560 -0.1158
 2937W        W19411   1.719   9.819   1.661 -0.3211 -0.3022  0.0549
 2938W        W19412  14.849   8.778   2.076  0.4881 -0.1588 -0.0385
 2939W        W19413  10.845   5.884  11.208 -0.3576 -0.0850 -0.0216
 2940W        W19414  11.267   5.665  13.165 -0.3286  0.0290  0.1478
 2941W        W19415  10.769  10.189  13.822 -0.1183 -0.1240  0.2185
 2942W        W19416  11.799   4.621  11.693  0.2390  0.3123  0.1231
 2943W        W19417   3.953   9.492  14.990 -0.4329 -0.0232  0.1014
 2944W        W19418  15.568  15.002   2.881 -0.0800  0.0626 -0.0806
 2945W        W19419  14.890  13.283   0.304 -0.0145  0.0836 -0.1859
 2946W        W19420  12.814   6.681  12.845 -0.0496  0.0004 -0.1042
 2947W        W19421   0.251  16.956  14.800 -0.0912  0.0060  0.1388
 2948W        W19422  13.595   5.418  13.112 -0.2329  0.0623  0.5338
 2949W        W19423   2.849  18.620   0.379 -0.1507  0.0722  0.1013
 2950W        W19424   8.677  14.839   3.358  0.1701  0.2115 -0.0611
 2951W        W19425  13.407   9.102  14.850 -0.1976 -0.4139  0.0267
 2952W        W19426   1.533  13.358   1.954 -0.4957  0.2101  0.0573
 2953W        W19427   4.392  11.646   2.852 -0.2054  0.1435 -0.1680
 2954W        W19428   4.114  16.230   2.515 -0.3062  0.1724  0.2827
 2955W        W19429  17.130  16.545   1.802  0.0406 -0.0953 -0.2206
 2956W        W19430  18.454  16.807  10.757 -0.1675  0.2411 -0.2567
 2957W        W19431  18.526   7.491  11.051 -0.0450  0.0587 -0.1760
 2958W        W19432  12.291   7.710  12.379 -0.0402  0.2018  0.0927
 2959W        W19433   6.640   1.161  15.321  0.0174  0.0027 -0.0920
 2960W        W19434   3.398  12.903  14.251  0.1064  0.1662  0.0106
 2961W        W19435   1.561  17.538  11.483  0.2115  0.1011 -0.1574
 2962W        W19436   4.562  10.832  14.796  0.2388  0.1376 -0.0637
 2963W        W19437   9.229   0.068  14.895 -0.2172  0.1159  0.0544
 2964W        W19438   5.978  10.589  13.822 -0.0420 -0.1857  0.3166
 2965W        W19439   5.544   0.042  12.637  0.0596 -0.0616  0.0320
 2966W        W19440   7.672  15.024  14.323 -0.0057  0.1143  0.2167
 2967W        W19441   2.543   8.921  11.261 -0.0519 -0.0236 -0.3001
 2968W        W19442  10.415  13.529   4.412 -0.2965 -0.2262  0.3070
 2969W        W19443  10.348  17.699  14.125  0.3006  0.0617  0.1037
 2970W        W19444   3.567  15.938  13.472  0.1784  0.1631  0.2417
 2971W        W19445   2.011   6.411  15.507 -0.1708 -0.0607  0.2111
 2972W        W19446   1.503  13.550   4.709  0.2562 -0.1028  0.2261
 2973W        W19447  11.473   1.297  12.306 -0.0816  0.2347 -0.1570
 2974W        W19448   1.281   3.200  10.719  0.0511 -0.3882 -0.2560
 2975W        W19449   4.001  14.975  11.421 -0.2482 -0.1139  0.2541
 2976W        W19450   6.497  16.731   2.767  0.0525 -0.0284  0.0592
 2977W        W19451   9.781  17.103  11.980 -0.1717 -0.2280 -0.0546
 2978W        W19452   1.507   1.219   3.696 -0.0310 -0.3502 -0.2073
 2979W        W19453   9.107   9.944   4.324 -0.2477 -0.4443 -0.0411
 2980W        W19454  11.579  14.367   2.710  0.0353 -0.0241  0.1675
 2981W        W19455   0.757   6.138   1.962 -0.1855  0.1277  0.0320
 2982W        W19456   3.005  17.636   1.229 -0.3017 -0.2957  0.0703
 2983W        W19457   5.525  18.662   1.907  0.0110 -0.3631  0.1056
 2984W        W19458  15.767   0.148   5.672  0.0210 -0.3052 -0.1487
 2985W        W19459   1.118  12.329  13.489 -0.3050  0.0091 -0.1678
 2986W        W19460   8.574   2.375   4.129  0.2320  0.0860  0.1790
 2987W        W19461  13.247   8.343   5.219 -0.1091  0.0634 -0.1959
 2988W        W19462  16.773   1.586   1.993  0.2128 -0.1043  0.0240
 2989W        W19463   5.869   4.452  13.914  0.0705 -0.2562  0.1810
 2990W        W19464  15.392  14.069   5.076  0.0905  0.4472 -0.1903
 2991W        W19465   8.274  18.377   3.062 -0.1204  0.0337 -0.0408
 2992W        W19466  13.348   4.097   1.990 -0.0840 -0.2210 -0.3528
 2993W        W19467  18.444   6.459  12.913 -0.0758  0.2004 -0.1560
 2994W        W19468   1.257  18.577  13.889  0.2039 -0.0520 -0.0358
 2995W        W19469  11.486  15.069  12.739  0.0915 -0.0608 -0.0113
 2996W        W19470   5.014   8.167  10.916 -0.1463 -0.3486 -0.0137
 2997W        W19471   6.894  10.558   2.135 -0.1966  0.2556 -0.4602
 2998W        W19472   3.872   1.997  13.578  0.0600  0.0657 -0.0103
 2999W        W19473   0.741  14.233   1.525  0.3052  0.1985 -0.0739
 3000W        W19474   0.767  13.589  15.617  0.0054 -0.0051 -0.2083
 3001W        W19475  11.460  14.861   5.624 -0.1931 -0.0564  0.2604
 3002W        W19476  13.146  10.464  10.943  0.2494 -0.1030 -0.2059
 3003W        W19477  12.113   3.745   0.935  0.0617  0.0683  0.1260
 3004W        W19478   3.375   7.455   2.628  0.1576  0.1321  0.1115
 3005W        W19479  10.417  16.509   2.658  0.1215  0.1084  0.0555
 3006W        W19480  10.866  11.953  15.642  0.2279  0.3756 -0.0708
 3007W        W19481  14.609   7.263   4.471 -0.2030  0.2814  0.0477
 3008W        W19482   3.934   6.327  12.285  0.0354 -0.0584  0.3077
 3009W        W19483  13.628  17.513   2.921  0.0793  0.0049 -0.0094
 3010W        W19484  11.136   4.901  14.393 -0.1247 -0.1618 -0.3058
 3011W        W19485   9.663  17.762   0.595  0.2591 -0.2908 -0.0468
 3012W        W19486  13.652  17.299  15.399 -0.1020  0.4445  0.4613
 3013W        W19487  16.431   3.442  13.028 -0.1106 -0.0139  0.0633
 3014W        W19488  10.029   7.804   1.226 -0.0788  0.1161  0.1199
 3015W        W19489  16.492  13.175   0.109 -0.0164 -0.1341  0.2341
 3016W        W19490  17.159   7.117  14.693  0.3160 -0.1256  0.1224
 3017W        W19491   7.383  10.561  12.679  0.3934 -0.2005  0.0174
 3018W        W19492  12.347   5.285  12.260 -0.0177  0.1640  0.2605
 3019W        W19493   2.338  16.005   2.634  0.0807 -0.0015  0.3235
 3020W        W19494  14.598   7.618   3.067 -0.0038 -0.2984  0.0353
 3021W        W19495  13.046  13.194   1.395 -0.1897 -0.0484 -0.0047
 3022W        W19496   3.246  15.272  10.265  0.1414  0.1716  0.2405
 3023W        W19497   8.136  14.190  10.610  0.1795 -0.2454 -0.0124
 3024W        W19498   1.917   3.389   1.257 -0.1124 -0.5561 -0.0711
 3025W        W19499  16.795  15.245   2.857  0.0376 -0.2780 -0.1412
 3026W        W19500   5.952   9.455   2.459 -0.1874  0.0770  0.1265
 3027W        W19501   0.842  16.386  13.927 -0.2699  0.2942 -0.2073
 3028W        W19502  10.299   7.345   1.044 -0.0772  0.1783  0.0073
 3029W        W19503  16.988  17.790   1.336 -0.1476 -0.3040  0.1145
 3030W        W19504   5.431  18.819  15.036  0.2117 -0.2164 -0.3685
 3031W        W19505  18.118   2.545  13.254  0.3781 -0.0164  0.2543
 3032W        W19506  10.588   0.858   0.974  0.0548  0.1958  0.2420
 3033W        W19507  12.359   1.240   2.508  0.2532 -0.0662 -0.1955
 3034W        W19508   7.929  16.051  13.030  0.0934  0.2557  0.1105
 3035W        W19509  13.085   3.092   3.941 -0.0174  0.1727  0.2500
 3036W        W19510  11.346  16.091  14.504 -0.2344  0.1854  0.0601
 3037W        W19511   6.903   4.567   2.391 -0.0324  0.1217 -0.0964
 3038W        W19512  18.592   4.917   4.004 -0.1492 -0.0803 -0.2070
 3039W        W19513  16.798   4.705   4.204  0.0286 -0.0029 -0.2400
 3040W        W19514  13.867  14.528  11.371 -0.1917  0.1177 -0.1616
 3041W        W19515   9.474   1.877  12.959 -0.2250 -0.1704  0.1853
 3042W        W19516   0.493  13.721  12.745  0.0768 -0.0169  0.0290
 3043W        W19517   5.066  16.379   1.307 -0.3020  0.3669 -0.3179
 3044W        W19518  14.655  14.663  13.153  0.1848 -0.2771  0.0256
 3045W        W19519  18.311   7.383  10.041 -0.1336  0.0728  0.3789
 3046W        W19520   5.118   2.412   3.599  0.1118 -0.2624 -0.1093
 3047W        W19521  10.307  10.455  13.164 -0.0103 -0.2184  0.2994
 3048W        W19522   0.984   3.373   3.812 -0.0857  0.1371 -0.0186
 3049W        W19523  17.791  17.889   0.604  0.2053  0.3318 -0.1251
 3050W        W19524  15.105   2.354  14.496 -0.1163 -0.2815  0.1718
 3051W        W19525  17.433   8.378  11.360 -0.2074 -0.1398 -0.1648
 3052W        W19526  11.028   9.021   2.166  0.1811  0.0112  0.0186
 3053W        W19527   6.562   4.253  14.697  0.1875 -0.0536  0.1044
 3054W        W19528   6.282  17.554   3.279  0.2447 -0.2444 -0.2103
 3055W        W19529   3.408  10.894  12.860  0.0390 -0.2943 -0.0992
 3056W        W19530   8.816   6.934  15.640 -0.1125  0.0318 -0.1463
 3057W        W19531  14.351   2.618  12.505 -0.0088  0.0744 -0.2492
 3058W        W19532   1.711  12.573   4.835 -0.1199 -0.1696 -0.2618
 3059W        W19533   2.160   3.382  13.824  0.0740  0.1755  0.0164
 3060W        W19534   7.126  12.401   0.878  0.1369 -0.1031 -0.2184
 3061W        W19535  13.927   9.970   1.011 -0.2256  0.2779 -0.1152
 3062W        W19536  11.060   1.478  13.318 -0.1505  0.0074 -0.0262
 3063W        W19537   9.505   1.076   2.440  0.2995  0.1550 -0.0562
 3064W        W19538   0.014  17.538   4.780  0.0555  0.2679  0.0797
 3065W        W19539   4.919  17.312  14.436  0.0903 -0.1266 -0.0993
 3066W        W19540   3.874  11.050   3.944 -0.2173 -0.1343  0.1614
 3067W        W19541  13.776   6.051  13.011 -0.1619  0.0889 -0.0218
 3068W        W19542  16.021  13.635  12.667 -0.0658 -0.1605  0.1770
 3069W        W19543   3.068  17.078  14.735  0.1270  0.2347  0.4607
 3070W        W19544   1.080  14.918  13.871 -0.1172 -0.0198 -0.0908
 3071W        W19545  12.305  12.916  15.489 -0.2240  0.2449 -0.0628
 3072W        W19546  14.882  11.062  12.371 -0.0820  0.0968  0.2256
 3073W        W19547  16.879   2.993  15.224  0.2847 -0.0883 -0.0421
 3074W        W19548  16.108   4.966   4.761 -0.1772  0.0224 -0.1230
 3075W        W19549  10.095  10.336  12.592  0.1408 -0.0110  0.5039
 3076W        W19550  15.403   1.957   0.218  0.1030 -0.0650  0.0666
 3077W        W19551  13.324  12.654  14.322  0.1237 -0.4441  0.1082
 3078W        W19552  12.870   0.843   4.328  0.0320  0.1208  0.2009
 3079W        W19553   9.249  17.241   3.949 -0.1242  0.2720  0.0088
 3080W        W19554   3.564  10.430  13.154  0.0364 -0.0513  0.3836
 3081W        W19555   8.850  18.635  14.765 -0.0244  0.3565 -0.0445
 3082W        W19556  10.850  17.383   4.979 -0.0261  0.0867  0.3003
 3083W        W19557   6.878  11.792   3.422  0.1796 -0.2495 -0.0225
 3084W        W19558  17.620  12.842  13.138 -0.0967  0.1419 -0.1165
 3085W        W19559   5.909  16.870  14.838  0.0209  0.0640  0.0730
 3086W        W19560   3.347   5.444   5.717 -0.1280  0.0182  0.0789
 3087W        W19561   1.750   3.095   4.699  0.1897 -0.2558  0.2632
 3088W        W19562   2.909   4.550   3.857  0.1610 -0.2487  0.0678
 3089W        W19563   8.469   2.088  12.663  0.4040 -0.4238  0.0969
 3090W        W19564  14.018   1.653  11.592 -0.1961  0.2831  0.0803
 3091W        W19565  12.923   3.616   2.799 -0.1133 -0.0359 -0.1660
 3092W        W19566   3.607   3.773   4.352  0.0310 -0.0930  0.3198
 3093W        W19567   5.431   7.976   1.121  0.5125 -0.1856 -0.0338
 3094W        W19568  12.479  11.419   4.473 -0.0917  0.1199  0.0598
 3095W        W19569  11.646  18.364   5.504  0.1899  0.0264 -0.0466
 3096W        W19570   3.782   4.158   1.681 -0.1734  0.3309 -0.2349
 3097W        W19571   3.783   4.452   2.750  0.0772 -0.2762 -0.1046
 3098W        W19572  17.990  14.305   4.215 -0.1313 -0.1208 -0.0719
 3099W        W19573  16.797   9.872  15.675 -0.2509 -0.0784 -0.2071
 3100W        W19574  15.080  12.850  11.300  0.4045  0.2171 -0.0523
 3101W        W19575   2.954   5.672   4.570  0.3880 -0.1177 -0.0871
 3102W        W19576  16.570   8.787   0.811  0.0813 -0.1183 -0.1562
 3103W        W19577   5.952   3.651   0.077  0.1837  0.1761 -0.0477
 3104W        W19578  14.967  10.293  14.596  0.1116  0.6001  0.2545
 3105W        W19579   1.291  13.172  10.301  0.5052  0.1418 -0.0031
 3106W        W19580   2.119  13.137  15.060 -0.2713  0.2449 -0.0186
 3107W        W19581   9.625  10.504   0.296 -0.1402 -0.1319 -0.1832
 3108W        W19582  12.787  16.853  15.615 -0.3082  0.2498  0.1192
 3109W        W19583  17.223   9.782  15.340 -0.1626  0.1029 -0.1065
 3110W        W19584   6.515  16.639   4.536 -0.0782 -0.3085 -0.3748
 3111W        W19585  18.517   5.098   2.179 -0.0843  0.0445  0.2332
 3112W        W19586   8.582   1.486   0.406 -0.1791 -0.1900  0.0459
 3113W        W19587   6.645  16.498   3.602 -0.2435 -0.0591 -0.2454
 3114W        W19588  13.346  14.400   1.883 -0.0154 -0.0860  0.4065
 3115W        W19589   1.641  13.061   3.401 -0.1161 -0.2107 -0.0832
 3116W        W19590   2.185   7.111  12.951 -0.1462 -0.2227  0.1603
 3117W        W19591  11.453   7.543  12.592 -0.1616  0.1361 -0.0674
 3118W        W19592   2.261  10.837   0.863  0.0880 -0.2759  0.0063
 3119W        W19593   8.303  11.392   3.856 -0.2612 -0.0787  0.0995
 3120W        W19594  16.172   2.989  13.191 -0.1430  0.2295 -0.3470
 3121W        W19595  17.020  13.662  12.628  0.1967 -0.1505  0.0543
 3122W        W19596   5.250   3.321   0.405 -0.1461  0.0966  0.1389
 3123W        W19597  14.252   8.857   0.120  0.1540 -0.0935 -0.2744
 3124W        W19598   2.419  10.351  10.851 -0.1894 -0.2920 -0.1265
 3125W        W19599  18.643   4.067   0.892 -0.0175  0.2508 -0.2486
 3126W        W19600  16.875  15.871   2.532 -0.3646 -0.1263  0.0539
 3127W        W19601   4.473  11.136  14.054  0.1370  0.0163  0.1024
 3128W        W19602  11.427   7.161   3.439 -0.0180  0.2531  0.0247
 3129W        W19603  14.184   2.151  14.194 -0.3455  0.0504  0.0794
 3130W        W19604   0.013   5.147  13.181 -0.0754 -0.0941 -0.2116
 3131W        W19605  18.224  15.828  12.900 -0.0390  0.0706  0.0441
 3132W        W19606  11.826   4.584   0.173  0.0143  0.1559  0.4431
 3133W        W19607  17.226  16.022  11.850 -0.1343  0.1148  0.2238
 3134W        W19608   8.039  14.507  13.310 -0.1363 -0.3301  0.0954
 3135W        W19609   7.491  13.605  13.452  0.0332 -0.1464 -0.1672
 3136W        W19610  17.935   5.366   4.484 -0.3283 -0.3385 -0.1531
 3137W        W19611  14.546  11.819   3.607 -0.2092  0.2286 -0.1517
 3138W        W19612  16.901   5.048   1.415  0.3059 -0.0490  0.1918
 3139W        W19613   0.960  11.399  13.813 -0.1338 -0.1524  0.0541
 3140W        W19614   3.690  18.313  14.517 -0.0296  0.0892  0.3672
 3141W        W19615  14.797  12.868   5.742 -0.0575  0.4096  0.0770
 3142W        W19616   0.381  14.087  14.972  0.1828 -0.2958 -0.0649
 3143W        W19617   6.064  16.508   4.788 -0.2498 -0.2714  0.0852
 3144W        W19618  11.372   1.171   0.804 -0.0558  0.0150  0.1582
 3145W        W19619  14.652   9.247   3.093  0.0312  0.0177 -0.3024
 3146W        W19620   0.394   1.898   3.787  0.0117  0.1093 -0.2112
 3147W        W19621  11.281   6.688   2.582 -0.5364  0.3767  0.2182
 3148W        W19622  14.650  10.539  11.021 -0.2387  0.2710 -0.0832
 3149W        W19623  17.663   6.813  13.524  0.3342 -0.2556  0.2263
 3150W        W19624   5.586  10.619  14.865  0.0580  0.0255 -0.0754
 3151W        W19625  13.642   0.716  10.907  0.1043 -0.1254  0.0827
 3152W        W19626   8.294  16.900   0.635  0.1185  0.1591  0.2295
 3153W        W19627   1.949  15.564   5.213 -0.2080  0.0017  0.1009
 3154W        W19628   8.251   2.322   4.591  0.2159  0.2633  0.1558
 3155W        W19629  12.954  18.080   1.524 -0.1988 -0.0149  0.1538
 3156W        W19630  17.884   2.024   9.264 -0.1835  0.0100  0.1023
 3157W        W19631  14.087  12.315   2.167 -0.1972  0.1252 -0.0888
 3158W        W19632   2.966   7.871   4.358  0.1605 -0.1059 -0.0450
 3159W        W19633  15.715   4.698  10.754  0.1063  0.2242 -0.0157
 3160W        W19634  17.707   9.456   1.774  0.2761  0.2203 -0.2922
 3161W        W19635  15.716  11.467  14.233 -0.0107 -0.1057 -0.0655
 3162W        W19636   3.362   6.584  13.626  0.0152 -0.1203  0.0762
 3163W        W19637   5.454   2.704   3.252 -0.0881  0.1408 -0.0355
 3164W        W19638   6.774   4.924   0.743  0.1296 -0.1777  0.3224
 3165W        W19639   6.442  12.724   3.538 -0.0599  0.0068 -0.0099
 3166W        W19640  17.913   8.146   0.087 -0.0226 -0.3271 -0.2698
 3167W        W19641   7.208   0.386  13.579 -0.1898  0.3729  0.1437
 3168W        W19642   8.071   4.446   2.413 -0.3935 -0.0998 -0.2054
 3169W        W19643   2.627  16.348   1.611 -0.2571  0.0372  0.1459
 3170W        W19644   4.131  16.191  12.812 -0.1622 -0.0595 -0.0156
 3171W        W19645  17.897   1.090  15.432 -0.1110  0.0163 -0.1471
 3172W        W19646   0.614  13.925   1.880  0.1846 -0.0907  0.0639
 3173W        W19647   3.852  11.037  11.467 -0.1422  0.2189 -0.0500
 3174W        W19648   0.446   3.211   2.969  0.3884 -0.0831 -0.0407
 3175W        W19649  18.579  14.501  11.907 -0.1605 -0.0308  0.1854
 3176W        W19650  15.924   0.133  12.366  0.0557 -0.2955 -0.1479
 3177W        W19651  17.497  13.369  12.656  0.3212 -0.0071  0.4484
 3178W        W19652   1.128   3.651  11.045  0.1325 -0.0687  0.2657
 3179W        W19653  10.476  15.901   2.329 -0.2511  0.0096 -0.1998
 3180W        W19654  16.834   2.159  13.409 -0.2476 -0.0292 -0.0293
 3181W        W19655   0.433  12.326  11.570 -0.1186  0.2567 -0.1130
 3182W        W19656  11.871  18.420  15.670 -0.1903  0.0787 -0.1475
 3183W        W19657  16.565  12.095   4.242 -0.2654  0.0703  0.0848
 3184W        W19658  11.651   7.702   2.375  0.3328 -0.2526  0.1015
 3185W        W19659   6.823   5.551   4.194  0.2184 -0.1957 -0.3913
 3186W        W19660   2.829  12.226   2.851 -0.2212  0.2072  0.4820
 3187W        W19661  13.031  11.350   1.598  0.1692  0.0356 -0.1246
 3188W        W19662  13.083  13.934  12.370  0.0207 -0.2281  0.2041
 3189W        W19663  14.790  17.312   0.624 -0.0484  0.2683 -0.1078
 3190W        W19664   2.965   0.438   1.954  0.2177  0.2911 -0.1211
 3191W        W19665  17.123  10.585   4.032 -0.1845 -0.3851  0.1633
 3192W        W19666  17.312   5.414  11.200  0.1494 -0.1072  0.1465
 3193W        W19667   3.019   6.185  13.810  0.0702 -0.0847  0.0703
 3194W        W19668  15.013  15.414   3.535  0.0542 -0.2273 -0.0940
 3195W        W19669  14.607  18.339   2.348  0.0825 -0.2324  0.3375
 3196W        W19670   3.321   3.685   3.113 -0.2243  0.1853  0.2612
 3197W        W19671   2.583   6.197   2.595 -0.1998  0.3006 -0.2715
 3198W        W19672  16.108   0.608   1.058 -0.0532  0.1332  0.2210
 3199W        W19673  12.083  15.258   3.612 -0.3227 -0.0251 -0.1925
 3200W        W19674   4.194   7.115  14.284 -0.0475 -0.1948 -0.3350
 3201W        W19675   4.810   4.598  10.307 -0.2643  0.2876  0.0422
 3202W        W19676   3.659   0.998  12.282  0.0656 -0.1922 -0.0730
 3203W        W19677  11.674   6.051   3.369 -0.1765  0.2764  0.0886
 3204W        W19678  12.371  12.698   3.038 -0.0501  0.1030 -0.2694
 3205W        W19679  15.997   3.240  12.207  0.0475 -0.2443  0.0836
 3206W        W19680  17.508   7.264  13.326 -0.1931 -0.1850 -0.0691
 3207W        W19681  14.225  12.339  12.245  0.0352 -0.1254  0.0730
 3208W        W19682   7.955   6.697   2.960  0.0611 -0.1939 -0.4035
 3209W        W19683   9.650   1.597   5.285  0.0632 -0.3396  0.0768
 3210W        W19684  16.445  17.947  15.599 -0.1218  0.0213  0.1663
 3211W        W19685   5.803   9.870  12.099  0.6177  0.1040 -0.0298
 3212W        W19686  13.365  13.163   0.985  0.1490 -0.3598 -0.0506
 3213W        W19687  13.058  14.802  13.671 -0.0242  0.0730 -0.2917
 3214W        W19688  10.087   8.045   0.104 -0.2301  0.1481  0.1261
 3215W        W19689  14.232   7.813  11.579  0.1536  0.1769 -0.1914
 3216W        W19690  16.409   5.933  13.433  0.1793 -0.0922 -0.1771
 3217W        W19691   3.850  12.872  11.550  0.1227  0.1542 -0.1730
 3218W        W19692  17.109  13.262  12.325  0.1632 -0.0689  0.2129
 3219W        W19693   6.568  14.580   1.424  0.0671  0.3028  0.0716
 3220W        W19694  11.908   1.145   0.748 -0.0118  0.2087  0.0338
 3221W        W19695   5.895   7.411  15.276 -0.2293  0.0941  0.1054
 3222W        W19696   9.630   8.973   4.753 -0.0131 -0.3632 -0.1387
 3223W        W19697  12.682   9.338  11.450 -0.1254 -0.1242 -0.0543
 3224W        W19698   5.085   4.775  14.506  0.0929  0.3373 -0.2228
 3225W        W19699  14.701  12.478   0.833 -0.1931  0.1550  0.1175
 3226W        W19700   1.227   1.320   4.269 -0.2657 -0.1514  0.0850
 3227W        W19701  17.879   7.526  12.995 -0.1089  0.1635  0.0787
 3228W        W19702   5.832  11.669   4.989  0.1215  0.2368  0.3238
 3229W        W19703   4.001  13.912   1.755 -0.1841  0.0526 -0.2417
 3230W        W19704   7.306  13.146   1.785 -0.0271 -0.0693  0.3073
 3231W        W19705   8.439  16.661   3.015  0.0674  0.0917  0.4258
 3232W        W19706  11.619  18.761   2.220 -0.0914 -0.0260 -0.2882
 3233W        W19707  13.002   6.182   0.483 -0.2279  0.2147  0.2059
 3234W        W19708   8.223   8.619   5.851  0.1673 -0.0766 -0.2901
 3235W        W19709   8.089   3.204   5.180  0.1884  0.0820 -0.1928
 3236W        W19710   1.404   0.324  13.627  0.0350  0.0380  0.1275
 3237W        W19711  12.107   1.744  11.708 -0.2239  0.0554 -0.0276
 3238W        W19712   2.484  18.151  11.375 -0.0654  0.3189  0.1417
 3239W        W19713  11.242   3.598   4.874  0.0871 -0.0367 -0.1566
 3240W        W19714   8.595   6.796   5.228 -0.4843 -0.1061 -0.0721
 3241W        W19715  18.405   0.631   2.544  0.1064  0.2296 -0.0768
 3242W        W19716   2.829   6.658  11.763 -0.0402 -0.0389 -0.3656
 3243W        W19717  12.443   5.943  13.449 -0.3858 -0.0932 -0.1703
 3244W        W19718  11.155   6.212  14.403  0.1986 -0.3308  0.3228
 3245W        W19719  13.660  10.161  12.759  0.2878  0.0929 -0.0664
 3246W        W19720   6.233   9.130  14.081  0.2308  0.0275 -0.0316
 3247W        W19721  13.469   3.478   2.757 -0.2429  0.0187 -0.0017
 3248W        W19722  17.920  11.233  14.659  0.0158 -0.1689 -0.0592
 3249W        W19723  16.918   7.839   2.073  0.0185 -0.1851  0.0266
 3250W        W19724   4.235  13.622  13.757  0.0291 -0.1460  0.0623
 3251W        W19725   5.166  15.607   1.203 -0.1198  0.3468 -0.1752
 3252W        W19726   6.945  16.322   1.659 -0.1186 -0.2024 -0.1870
 3253W        W19727   6.367   8.449   3.487  0.0294  0.0665 -0.2692
 3254W        W19728   2.122  14.796  11.149 -0.0010 -0.3078 -0.0219
 3255W        W19729   4.090   0.336   1.118  0.0977 -0.0724 -0.0616
 3256W        W19730   7.816   3.545  13.642 -0.0313 -0.0994 -0.0802
 3257W        W19731  18.300   5.114  13.152  0.5097  0.2797  0.0737
 3258W        W19732   9.000  18.391  13.448  0.0078  0.0254  0.1697
 3259W        W19733   1.150  12.848   3.664 -0.2389 -0.0811  0.2855
 3260W        W19734   8.443  11.144  13.828  0.0435  0.5318  0.1696
 3261W        W19735  13.223  16.307   5.343  0.2647 -0.0369 -0.1776
 3262W        W19736  12.180  13.115   2.807 -0.0359 -0.0308  0.1620
 3263W        W19737  12.758  15.132  11.223 -0.3233  0.0513  0.0921
 3264W        W19738  18.816  13.368  12.826 -0.0754  0.3734  0.3678
 3265W        W19739   7.912  12.333   1.977 -0.2959  0.1056 -0.2040
 3266W        W19740  16.168  10.308  15.245 -0.1497  0.2854  0.0236
 3267W        W19741   6.389   2.230  12.585  0.3382 -0.3585 -0.0570
 3268W        W19742   6.373  10.132  10.933 -0.0118  0.2927  0.2220
 3269W        W19743  12.690  16.081  14.013 -0.2026 -0.2941 -0.0846
 3270W        W19744  14.706  11.193   2.088  0.0658 -0.0844 -0.1792
 3271W        W19745  11.468  12.966   2.652 -0.2699  0.0538  0.0276
 3272W        W19746   6.520   0.946   4.464 -0.0969 -0.1100  0.2632
 3273W        W19747  16.579   7.174   1.141  0.1885 -0.0446  0.0712
 3274W        W19748   0.284  15.391  14.798  0.0061  0.1533  0.0986
 3275W        W19749   6.971   7.549  14.301  0.0923  0.1529 -0.2361
 3276W        W19750  13.931  15.364   0.998  0.0929 -0.1981  0.1004
 3277W        W19751  11.344   5.666   4.766 -0.6109  0.0978  0.2198
 3278W        W19752   9.788   6.250  12.706 -0.1922 -0.1898 -0.0368
 3279W        W19753   2.060  15.911   3.065  0.1345  0.1229  0.2167
 3280W        W19754   5.176   1.216  13.160 -0.0531 -0.0199  0.2026
 3281W        W19755  12.535   4.040  11.819  0.1139 -0.1136  0.3562
 3282W        W19756   1.644  12.697   2.237  0.0013  0.3413 -0.0476
 3283W        W19757  15.871   6.829  11.398 -0.2721 -0.1470 -0.2025
 3284W        W19758   2.628   6.308  11.434 -0.1859  0.1183 -0.0412
 3285W        W19759  11.904  12.881  12.768 -0.4425  0.2504 -0.2494
 3286W        W19760   9.912  10.622   0.735  0.1757  0.3398 -0.1350
 3287W        W19761  10.124   1.510  14.984  0.0993 -0.0673  0.0240
 3288W        W19762  18.195   3.380   3.799  0.1100 -0.0755 -0.2479
 3289W        W19763  12.493   5.462   0.312  0.0596  0.3290 -0.0011
 3290W        W19764   7.116   8.221   0.970 -0.2851  0.1413 -0.0110
 3291W        W19765  17.516   2.099  14.529 -0.0276 -0.2649  0.3122
 3292W        W19766  14.115  11.110  11.821  0.0294 -0.1417 -0.2464
 3293W        W19767  17.318   4.879   4.242 -0.0392  0.0682  0.0485
 3294W        W19768  17.940   8.047  13.858 -0.2933  0.1177 -0.0049
 3295W        W19769  16.500  13.593  15.575  0.0316  0.0290  0.1835
 3296W        W19770   4.436  11.421   3.293 -0.0729  0.0818 -0.1770
 3297W        W19771  17.175  10.772  15.158  0.0312  0.4856 -0.1991
 3298W        W19772  15.912   1.049  12.358  0.1399  0.0363 -0.0607
 3299W        W19773  12.828  11.327   2.441  0.2031  0.1424 -0.1463
 3300W        W19774   1.394   4.586  14.461  0.1361  0.0227  0.0859
 3301W        W19775   2.243  17.478   2.055 -0.2222 -0.0502  0.1221
 3302W        W19776   8.504   0.694   1.487 -0.1654  0.2015  0.2525
 3303W        W19777  18.196   5.356  10.975 -0.1025 -0.2432  0.1059
 3304W        W19778  18.050   1.285   3.882  0.1775  0.0034 -0.2737
 3305W        W19779  16.733   8.398   4.244 -0.0077 -0.1769 -0.1378
 3306W        W19780   2.745  10.889   4.750 -0.0507 -0.2187  0.1829
 3307W        W19781   2.496  15.671   0.677  0.0328  0.1591  0.3252
 3308W        W19782   6.350  11.212  11.879 -0.0866  0.1555  0.2620
 3309W        W19783   3.319  15.833   4.525  0.0190  0.4055 -0.1460
 3310W        W19784  10.446   5.947   5.551 -0.0538  0.3972  0.1573
 3311W        W19785  17.681   7.962  12.822 -0.0315 -0.0699  0.5243
 3312W        W19786   9.678  11.575   0.862  0.2933  0.3648 -0.0807
 3313W        W19787  15.728   9.908  13.681 -0.0765 -0.2603  0.0455
 3314W        W19788   7.615  11.013   1.719  0.0644 -0.0396 -0.0903
 3315W        W19789   8.217   8.591  14.624  0.3348 -0.2058 -0.1942
 3316W        W19790   5.527   4.599  12.633 -0.1761  0.1517 -0.1312
 3317W        W19791   4.977  14.262  13.665  0.2518 -0.0084  0.2758
 3318W        W19792   7.138   3.407   3.607  0.0592 -0.2422 -0.3319
 3319W        W19793   5.115  12.133  14.504 -0.0725  0.2908 -0.0686
 3320W        W19794   0.279   9.963   1.570 -0.0533 -0.0263  0.1351
 3321W        W19795   6.596  18.832   1.644 -0.0157 -0.1213 -0.1952
 3322W        W19796  13.269   5.177  12.716  0.2247  0.3599 -0.2704
 3323W        W19797  11.720  18.043   0.722  0.1339 -0.3964  0.2423
 3324W        W19798  12.164  13.091   3.469  0.3557  0.0507 -0.2649
 3325W        W19799   6.250   6.067   0.260  0.0367 -0.1695 -0.2444
 3326W        W19800  10.703   6.522   1.287 -0.1369  0.2021  0.1616
 3327W        W19801  12.783   5.793   9.839  0.1908  0.0137 -0.0057
 3328W        W19802  17.103  10.669  11.108  0.1211  0.3763 -0.3508
 3329W        W19803  16.884   6.060   5.221 -0.2283 -0.1201 -0.2532
 3330W        W19804  15.670   4.062  12.343 -0.0953 -0.1223  0.0053
 3331W        W19805   2.845   0.038  12.904 -0.1699 -0.0385 -0.0389
 3332W        W19806   1.014   7.569   0.137 -0.1025  0.1765  0.0531
 3333W        W19807  10.029  12.056   0.916  0.1061  0.1154  0.0873
 3334W        W19808   6.294  17.468   3.800  0.0860 -0.0964  0.0917
 3335W        W19809   0.646  13.430  11.461  0.2735 -0.0040  0.0447
 3336W        W19810  11.478  10.400  14.671 -0.1928 -0.3414 -0.0256
 3337W        W19811   4.631   1.008   2.257 -0.0327  0.1928 -0.0489
 3338W        W19812   1.766   4.109  10.888  0.1928  0.3307 -0.2718
 3339W        W19813   3.416  16.661   2.686 -0.0968  0.0219  0.1008
 3340W        W19814   9.582  10.728   4.409 -0.0363 -0.1803  0.2694
 3341W        W19815   5.594   7.864  14.987 -0.0499  0.1622  0.1005
 3342W        W19816   4.908   0.082   1.130 -0.2022 -0.1616 -0.1122
 3343W        W19817  18.243   3.417   2.553 -0.2870 -0.2731 -0.1952
 3344W        W19818   6.144   0.836   2.537 -0.0683  0.0887  0.3635
 3345W        W19819  11.440  17.018  10.259  0.0506  0.1825  0.1518
 3346W        W19820   2.456  13.471   2.180 -0.0902  0.1634 -0.0868
 3347W        W19821  14.299   8.492  11.971  0.3126  0.2017 -0.1215
 3348W        W19822  15.095   8.869   5.292 -0.0627 -0.4659  0.3312
 3349W        W19823   9.327   8.291   1.097 -0.1584 -0.0648 -0.0319
 3350W        W19824   1.975   9.863  14.652  0.3079 -0.2443  0.3130
 3351W        W19825  15.501   3.457  13.736 -0.0318  0.1568 -0.1122
 3352W        W19826  10.591  13.666  13.478 -0.0882 -0.0574 -0.1063
 3353W        W19827   4.393   1.721   4.973 -0.1716  0.2995  0.5761
 3354W        W19828   9.054   6.630   2.812 -0.3066  0.0655 -0.2024
 3355W        W19829   4.223   9.799  12.088 -0.0382 -0.2143  0.3356
 3356W        W19830   5.245   8.593   4.557  0.1986  0.0063  0.0556
 3357W        W19831   2.846   8.387   1.183 -0.1674  0.0364  0.1167
 3358W        W19832  12.900   2.120  13.116 -0.0030 -0.5334  0.3661
 3359W        W19833  16.016   3.111  11.740  0.0319  0.1157  0.1854
 3360W        W19834  10.291   1.389   0.818 -0.2159  0.4742 -0.0738
 3361W        W19835   1.839   6.883   0.184  0.1661 -0.5016  0.2439
 3362W        W19836  12.763  18.384  12.179  0.0177 -0.2067 -0.1609
 3363W        W19837  13.442   6.856   3.836 -0.2880 -0.2701  0.0487
 3364W        W19838  14.987  15.177   0.209 -0.0920 -0.1192 -0.1973
 3365W        W19839  12.613   4.895  12.068 -0.0643 -0.0281  0.2872
 3366W        W19840  11.976   8.762   1.614 -0.1066 -0.0276 -0.0775
 3367W        W19841   5.149   4.112  11.514  0.0499 -0.1112  0.0356
 3368W        W19842  12.328   8.696  13.967 -0.0595 -0.0214  0.0545
 3369W        W19843  10.504  14.538  13.489 -0.3512 -0.1750  0.1172
 3370W        W19844  10.469  13.525   3.234  0.0173  0.0386 -0.2494
 3371W        W19845   5.506  12.596   4.438 -0.0231  0.0004  0.1124
 3372W        W19846   8.755   2.441  12.484 -0.1342  0.0432 -0.0672
 3373W        W19847   6.184  18.334  13.746 -0.0846 -0.2797  0.3799
 3374W        W19848  18.710   7.061   2.071  0.2086 -0.1267  0.0871
 3375W        W19849   9.087  16.125  14.977 -0.0934 -0.4090  0.1758
 3376W        W19850   5.390   1.561   4.976  0.1736 -0.3352  0.2872
 3377W        W19851   6.404  17.160   4.257 -0.1206  0.1550 -0.2394
 3378W        W19852   2.219   7.065   2.165  0.4646  0.0133  0.1150
 3379W        W19853  18.082   7.661  11.804 -0.1548  0.0857 -0.2493
 3380W        W19854   2.117   0.929   4.364 -0.1819 -0.2997  0.0645
 3381W        W19855   9.799   4.847  11.933  0.0146 -0.3178 -0.0525
 3382W        W19856  11.219   5.751  12.192  0.2245 -0.3942  0.1014
 3383W        W19857  13.148  12.510   4.588 -0.1151 -0.2831 -0.0514
 3384W        W19858  11.959   4.296  12.974  0.0961 -0.2122 -0.0326
 3385W        W19859  13.698  18.555  11.893 -0.6326 -0.0394  0.1540
 3386W        W19860  14.730   9.250   2.311 -0.3876  0.1415  0.1730
 3387W        W19861   2.938   3.707   1.412 -0.2855  0.0812  0.2012
 3388W        W19862   6.055  11.693   3.626  0.2650 -0.2586  0.0685
 3389W        W19863   0.997  12.940  10.621  0.0399 -0.1810 -0.2598
 3390W        W19864   1.898  17.920  14.063 -0.1245 -0.2392  0.0789
 3391W        W19865  12.670   4.895   4.004 -0.0616 -0.1277 -0.1050
 3392W        W19866  17.467   9.809  13.140  0.1715  0.1325 -0.1037
 3393W        W19867  13.290  14.635  13.241 -0.1367  0.1827  0.2162
 3394W        W19868  13.232  13.363  12.265  0.1944  0.0177  0.3596
 3395W        W19869  16.456  16.331  11.799  0.0096  0.0934 -0.1257
 3396W        W19870  11.470   1.512   3.772  0.0263 -0.0957 -0.1266
 3397W        W19871  17.830   4.558  15.065 -0.5092  0.0148  0.2680
 3398W        W19872   7.126   8.896  13.876 -0.2301 -0.1373 -0.3602
 3399W        W19873  17.409  11.299   9.980  0.0218 -0.3939  0.1686
 3400W        W19874   3.139  14.311   2.727 -0.0578  0.0066  0.2213
 3401W        W19875  16.949   2.134  10.678 -0.1254 -0.1412  0.4888
 3402W        W19876  12.292   3.386  13.751 -0.0337 -0.2162  0.1131
 3403W        W19877  10.092  10.082  13.402 -0.2065  0.1430 -0.0414
 3404W        W19878  15.412  10.557  11.796  0.0737 -0.0386 -0.2458
 3405W        W19879  11.749  10.946   1.486  0.2834  0.0188  0.2683
 3406W        W19880  15.699  12.543  11.010 -0.1746  0.0677  0.2389
 3407W        W19881   6.215   6.830   1.465 -0.2079  0.1801 -0.1994
 3408W        W19882  13.598  16.034   5.230 -0.0718  0.0754  0.0809
 3409W        W19883  13.917   6.145  13.840  0.4131  0.1129  0.0132
 3410W        W19884   4.189  14.203  14.140 -0.0957 -0.1859 -0.1979
 3411W        W19885  11.853  12.796   3.141  0.1758 -0.2205  0.2583
 3412W        W19886   1.253  13.852  15.544  0.0125 -0.1277  0.1697
 3413W        W19887   9.528  11.095  15.560 -0.2629  0.0710  0.0617
 3414W        W19888   5.870   4.727  12.956  0.0133 -0.0067  0.2595
 3415W        W19889  16.302   6.374   1.395 -0.1275  0.5664  0.0902
 3416W        W19890   7.075  17.485  15.459  0.2723  0.4051  0.0213
 3417W        W19891  15.947  17.799   3.904 -0.2567  0.2256 -0.1371
 3418W        W19892   1.951  10.517  11.112 -0.2111 -0.0339  0.0484
 3419W        W19893  10.454  11.870   0.602  0.3093 -0.0074  0.2422
 3420W        W19894   5.343   0.792   0.456  0.0771 -0.0401  0.0489
 3421W        W19895   1.737   0.782   3.011  0.1396 -0.3524  0.3950
 3422W        W19896  14.343  14.110  13.285 -0.0298  0.0199 -0.2379
 3423W        W19897  17.143  11.447  11.942  0.0489  0.0435  0.1511
 3424W        W19898   0.622  14.396   0.197 -0.4406 -0.1695 -0.1626
 3425W        W19899  10.070  12.032  11.375 -0.0753 -0.0045  0.0885
 3426W        W19900  11.883   6.078  13.693 -0.0930  0.1268 -0.1353
 3427W        W19901  10.218  18.044   1.457  0.0929  0.0739 -0.2105
 3428W        W19902  17.764  18.123   4.263 -0.1015 -0.1619  0.1129
 3429W        W19903  15.963  16.429   0.546  0.0263  0.0504  0.2233
 3430W        W19904  13.740   6.112   2.844  0.1986  0.1120 -0.5320
 3431W        W19905  12.637   5.621   4.744 -0.3235  0.3860 -0.0136
 3432W        W19906   9.137   5.161  14.687  0.5830 -0.1188  0.3719
 3433W        W19907   0.901   0.067  13.688 -0.1011 -0.1324  0.1001
 3434W        W19908   0.674   8.317  13.630 -0.0310  0.0343 -0.2422
 3435W        W19909  14.551   4.964   0.370 -0.1609 -0.2200 -0.2508
 3436W        W19910  13.672   0.508   0.174  0.2104 -0.5202  0.1162
 3437W        W19911  18.682   3.452  11.792  0.1052  0.2829 -0.1355
 3438W        W19912  14.234   7.185   5.136 -0.1401 -0.0724 -0.0630
 3439W        W19913  15.842   9.305   4.114  0.0533 -0.1537 -0.0081
 3440W        W19914  15.404   9.267   3.833 -0.2387  0.0926  0.0756
 3441W        W19915  13.693   6.288  11.445 -0.1304  0.0434 -0.0070
 3442W        W19916  13.571   0.853  15.475  0.2143 -0.2271 -0.1454
 3443W        W19917   7.512  13.647   5.165 -0.1878 -0.0616  0.3063
 3444W        W19918  14.731  11.732  12.258 -0.0046 -0.0507  0.1456
 3445W        W19919   5.530   1.814  11.633 -0.4547 -0.1232 -0.3949
 3446W        W19920  18.751  17.655   0.747  0.2811  0.0934  0.0790
 3447W        W19921   7.502   1.416  15.308 -0.1895 -0.1461 -0.1909
 3448W        W19922  14.155   3.077   1.434 -0.3336 -0.3704  0.0364
 3449W        W19923   5.808   3.792  12.874  0.2315 -0.1328 -0.0714
 3450W        W19924  14.616  12.390   4.573  0.0078 -0.1661 -0.0120
 3451W        W19925  10.601   4.231  12.170 -0.4005 -0.0697 -0.0501
 3452W        W19926   8.228   8.264   4.484  0.0362  0.3529 -0.2635
 3453W        W19927  16.037   7.979  12.019  0.1890 -0.0443  0.0827
 3454W        W19928  14.915   3.442   0.768  0.3150  0.1321  0.1003
 3455W        W19929   7.708   2.481  15.180 -0.0701  0.1121  0.0557
 3456W        W19930   2.431  13.334   3.875 -0.1487 -0.1341  0.0289
 3457W        W19931  11.438   2.558  13.586  0.0174 -0.0881 -0.2984
 3458W        W19932  12.693   7.715   0.734 -0.2948 -0.2696 -0.0837
 3459W        W19933   6.969   8.466  14.231  0.4485 -0.2460  0.1005
 3460W        W19934  14.233   5.842   2.583  0.1574  0.2513 -0.1787
 3461W        W19935  13.089   3.719  12.253 -0.0155  0.3589 -0.6012
 3462W        W19936  13.413   4.274   0.983  0.2104 -0.0535  0.1092
 3463W        W19937  17.753  16.134  12.857  0.2162  0.2240 -0.3712
 3464W        W19938   5.747  15.079   4.976 -0.0831 -0.2419 -0.1358
 3465W        W19939   1.046   7.974  12.518 -0.1151 -0.1773  0.3016
 3466W        W19940  16.579   8.625  13.855 -0.3582  0.1832 -0.0539
 3467W        W19941  14.011   4.372   0.687  0.0404  0.1254 -0.0601
 3468W        W19942   4.755  11.742   2.173  0.0575  0.5330 -0.1485
 3469W        W19943  10.233   5.109   0.868  0.0650  0.0349 -0.1077
 3470W        W19944   7.161  17.219   4.651  0.1744 -0.0799  0.2426
 3471W        W19945   8.750  16.929   3.795 -0.1607 -0.1904 -0.0159
 3472W        W19946  17.828   8.515   4.624 -0.0442 -0.0360 -0.0839
 3473W        W19947   7.708  13.665  12.933 -0.0078  0.0670 -0.2349
 3474W        W19948   9.671   3.787   1.772  0.3828 -0.0034  0.0148
 3475W        W19949   9.868  13.716  11.120  0.3299  0.1604 -0.0346
 3476W        W19950   0.906  18.339   4.147  0.1098  0.0171 -0.0596
 3477W        W19951  12.879  13.501  11.527 -0.1310 -0.0528  0.1182
 3478W        W19952  15.272   6.455  11.316 -0.1341 -0.1326  0.2098
 3479W        W19953   3.678  15.470   4.323  0.0686  0.1210  0.1937
 3480W        W19954  16.659   2.238   1.661  0.0497 -0.4813  0.4122
 3481W        W19955  18.296   3.422  10.635 -0.3902  0.1922 -0.1115
 3482W        W19956   4.415  17.206  12.573 -0.1866 -0.1248 -0.0503
 3483W        W19957   1.406   0.600  12.047  0.0149 -0.2065 -0.1592
 3484W        W19958  14.040   7.393  14.276  0.1351  0.0516  0.1710
 3485W        W19959  18.285   1.456  10.813 -0.1254 -0.0368  0.0820
 3486W        W19960   2.486   1.867  12.415 -0.1790 -0.0406 -0.0873
 3487W        W19961   1.305   3.151  11.276 -0.1191  0.1825  0.0482
 3488W        W19962   5.335   9.056  12.572 -0.0050 -0.0104  0.1025
 3489W        W19963   0.861   9.276   2.169 -0.0737 -0.1642  0.1618
 3490W        W19964   9.980   8.423  13.693 -0.0385 -0.0922  0.1464
 3491W        W19965   2.171  12.094  12.151  0.1193 -0.1810 -0.1423
 3492W        W19966   6.590   1.058   1.640  0.0089  0.0536 -0.0936
 3493W        W19967   7.630   5.900  14.499  0.1918 -0.1886 -0.0243
 3494W        W19968  15.473   3.463  11.378  0.0142  0.1279  0.1240
 3495W        W19969   3.228   5.287   2.062  0.1162 -0.2134  0.1867
 3496W        W19970  13.420   7.020   0.689 -0.1450 -0.4252 -0.2401
 3497W        W19971  17.306  17.073   4.370 -0.0553 -0.1071  0.2690
 3498W        W19972  14.349   9.657  14.900  0.1389 -0.2609 -0.2864
 3499W        W19973   1.220   2.138  15.317 -0.1020  0.2963 -0.0846
 3500W        W19974  14.517   4.538   4.696 -0.1700  0.2614 -0.0815
 3501W        W19975  13.460  17.343   1.139 -0.0527  0.1490  0.3902
 3502W        W19976   3.677  17.884  14.174  0.1121  0.1081 -0.1441
 3503W        W19977   9.056  17.560  15.256 -0.0011 -0.3108  0.1959
 3504W        W19978  14.585  11.011  11.546 -0.2208  0.1890  0.2252
 3505W        W19979  12.407  11.426   4.951  0.0287 -0.1129  0.0812
 3506W        W19980   8.553   4.931   1.382 -0.1418  0.1192  0.1117
 3507W        W19981   2.758   9.064  12.257  0.3568 -0.1316 -0.2304
 3508W        W19982   1.611   6.574   3.929  0.4254 -0.1351  0.2057
 3509W        W19983  13.753   6.739   2.343 -0.1074 -0.0537  0.1203
 3510W        W19984   3.876  10.085   1.084 -0.1440 -0.0850 -0.3307
 3511W        W19985   1.350   3.468  15.484  0.0080  0.1012  0.0377
 3512W        W19986   0.672   9.098   4.962  0.1712  0.0596 -0.0282
 3513W        W19987   4.355   7.532  13.551  0.2299 -0.3956 -0.0651
 3514W        W19988  15.248  12.178   3.104  0.0543 -0.1386 -0.2422
 3515W        W19989  12.107  14.949  15.510 -0.0154 -0.4868 -0.1075
 3516W        W19990  16.498  14.387  13.245 -0.2200  0.0369 -0.0219
 3517W        W19991   0.895  10.759   4.395 -0.2913  0.2327 -0.3858
 3518W        W19992   9.336   0.914   1.980 -0.0994 -0.1339 -0.0980
 3519W        W19993   4.088   8.131  11.929 -0.2459 -0.2462 -0.0300
 3520W        W19994   0.246   0.933   4.687  0.2229  0.0672  0.0489
 3521W        W19995  11.014   9.948  11.469  0.0166  0.0040  0.1537
 3522W        W19996   3.805   1.246  15.096  0.1020  0.3720  0.1110
 3523W        W19997   3.735  13.987   4.339  0.3596 -0.2884  0.0996
 3524W        W19998   3.851   3.673   1.400 -0.2045  0.1513 -0.1091
 3525W        W19999  16.225   5.373   1.473  0.0427  0.0964 -0.0125
 3526W        W20000   6.621  15.983  14.614  0.1057 -0.0822  0.3289
 3527W        W20001   2.786   4.716   2.520  0.1545 -0.2848 -0.2581
 3528W        W20002   3.734   0.443  12.968 -0.0016  0.0070 -0.0788
 3529W        W20003   4.410   1.391   1.100  0.0999  0.4356 -0.2835
 3530W        W20004  12.056   3.357   4.945 -0.4660  0.0014  0.1685
 3531W        W20005   7.464   8.520  12.517 -0.0237  0.2082  0.2569
 3532W        W20006  18.464  15.106  12.253  0.2305 -0.2169 -0.1712
 3533W        W20007   9.160   1.481  12.830  0.4121  0.1830 -0.0582
 3534W        W20008   4.429  13.713   1.949  0.0180  0.4519 -0.0911
 3535W        W20009   4.805   5.020   5.060  0.0222  0.0483 -0.0838
 3536W        W20010   3.957  12.413   1.457  0.4967  0.0565 -0.1020
 3537W        W20011  14.351  18.774   2.388 -0.2162 -0.1014  0.2645
 3538W        W20012   8.205   9.689  15.537  0.0394 -0.0309  0.0668
 3539W        W20013   0.960  17.355   4.313 -0.2076  0.0006  0.1474
 3540W        W20014   2.585   4.202  15.455  0.2833 -0.1274  0.1486
 3541W        W20015   8.621   6.203  13.611 -0.0713  0.0880 -0.2134
 3542W        W20016  14.977   3.651  14.997  0.3425 -0.2408 -0.2212
 3543W        W20017   5.656  12.181   2.941  0.0420  0.0795 -0.2889
 3544W        W20018   1.563   4.843  12.237  0.0935 -0.2435 -0.2576
 3545W        W20019   2.172  10.379   4.625  0.3876 -0.2973 -0.1377
 3546W        W20020  11.471   4.518   1.121 -0.0160 -0.0360  0.1739
 3547W        W20021  13.505  16.227   0.159 -0.0125  0.2602 -0.2520
 3548W        W20022   8.936   8.904   2.411  0.1757  0.0300  0.0625
 3549W        W20023  17.309   6.526   1.934  0.0566  0.0862  0.2199
 3550W        W20024   9.230   7.437   1.393 -0.0684 -0.0981 -0.0421
 3551W        W20025   7.542   3.697  14.940  0.3261 -0.1055  0.1287
 3552W        W20026   3.191  16.692  11.234  0.2127 -0.1180 -0.4511
 3553W        W20027  16.139  15.563   1.447  0.1895 -0.3036  0.2498
 3554W        W20028   4.676   4.723   4.318  0.1347  0.0664 -0.0399
 3555W        W20029   7.334   2.969   3.284  0.0642  0.4128 -0.2030
 3556W        W20030  14.479   1.283   3.495  0.0929  0.1674  0.3224
 3557W        W20031   5.681  10.911  10.993  0.0020 -0.2402  0.1724
 3558W        W20032  17.495   6.259  14.092  0.2187  0.2409 -0.2105
 3559W        W20033  12.366   6.664   0.764  0.1576  0.0917 -0.0926
 3560W        W20034  10.331  10.320   3.125  0.0770  0.4108 -0.0483
 3561W        W20035  18.152  17.774   5.746 -0.1309 -0.2401 -0.0617
 3562W        W20036   6.637   3.157  10.865 -0.0452  0.3642  0.2269
 3563W        W20037  15.694   2.664   4.770  0.0334  0.3114 -0.0698
 3564W        W20038  14.755  11.057   4.553  0.0701 -0.2875 -0.2084
 3565W        W20039   2.304  17.069   4.569 -0.2849 -0.0615 -0.0822
 3566W        W20040   9.852  12.726   3.380  0.3243  0.1702 -0.0196
 3567W        W20041   4.841   3.995  12.957  0.0999  0.0529 -0.2248
 3568W        W20042  11.719   9.758  15.561  0.2643 -0.0237  0.1257
 3569W        W20043  16.457   3.321   3.302 -0.0744 -0.0215 -0.1480
 3570W        W20044  18.263   0.199  14.550 -0.0283 -0.0411  0.1383
 3571W        W20045   4.290   3.307  11.362  0.0410  0.2293  0.0500
 3572W        W20046  12.780   0.273  12.232 -0.2190 -0.0192  0.2794
 3573W        W20047   5.423  17.473  13.147  0.3454 -0.2250 -0.3750
 3574W        W20048   2.188  17.907   0.890  0.0808  0.0836 -0.1716
 3575W        W20049  16.388   3.347   4.621 -0.1465  0.1256 -0.0913
 3576W        W20050  14.394  17.772  12.505  0.0173 -0.1977  0.1065
 3577W        W20051   8.872  11.047   5.556  0.1041  0.3590 -0.0010
 3578W        W20052  15.037  11.798   1.854 -0.4494 -0.0056 -0.2342
 3579W        W20053  11.843   3.085  11.887  0.0223  0.0058 -0.1768
 3580W        W20054  15.941  16.325   1.788  0.0025  0.3858  0.1484
 3581W        W20055  13.942   9.602   1.381  0.2132  0.1754  0.0825
 3582W        W20056   2.936   9.523  10.687  0.0367  0.3097  0.2756
 3583W        W20057  13.442  14.886   4.621 -0.0682  0.1807 -0.2051
 3584W        W20058   7.830   6.192   3.725 -0.1148 -0.0420 -0.0642
 3585W        W20059   8.481  17.247  12.350  0.2506 -0.1866  0.4043
 3586W        W20060   1.801   5.269  11.913  0.2077  0.5145 -0.0886
 3587W        W20061  10.360   0.270  11.786 -0.0724 -0.0916 -0.0068
 3588W        W20062   9.888  14.332  13.377 -0.3340  0.3978  0.0349
 3589W        W20063   2.673   0.567  12.706  0.0626 -0.1178 -0.0969
 3590W        W20064  10.456  16.215  15.310 -0.1115 -0.3109 -0.1828
 3591W        W20065  16.293   7.805  12.976 -0.1695  0.0758  0.0067
 3592W        W20066  18.592  13.218   3.275 -0.0287 -0.0339  0.1364
 3593W        W20067   4.103   4.090  14.822  0.1938 -0.0273  0.0982
 3594W        W20068   0.217   1.639   0.647  0.3595 -0.1815  0.5053
 3595W        W20069  17.456   7.801  10.743 -0.5496  0.1503 -0.1608
 3596W        W20070  14.880  16.459  13.086  0.0654 -0.1825  0.2731
 3597W        W20071  13.093  18.128  12.440 -0.1739  0.0625  0.1712
 3598W        W20072   9.980  12.034   4.624 -0.2256 -0.2427  0.0332
 3599W        W20073   8.369   7.906   5.357 -0.2118  0.3734 -0.2198
 3600W        W20074  17.358  17.939   4.581 -0.1593 -0.0939  0.0926
 3601W        W20075   7.413   3.862   2.348 -0.0682 -0.0193  0.0170
 3602W        W20076  18.402   9.242   3.127 -0.0663 -0.2879 -0.0534
 3603W        W20077   3.906   4.531  11.824  0.2481  0.0403 -0.0134
 3604W        W20078   4.897   1.628   4.883  0.0073 -0.2219 -0.3964
 3605W        W20079   2.160  12.192   1.012 -0.0040  0.0335 -0.0119
 3606W        W20080  17.151   0.214   0.182  0.3919 -0.0308  0.0359
 3607W        W20081  18.676  17.702  12.176  0.3051  0.1680 -0.2678
 3608W        W20082  12.892   7.944  14.101 -0.0878  0.2444 -0.0504
 3609W        W20083   7.941   5.906  14.939 -0.1458  0.0811  0.0359
 3610W        W20084  14.025  12.003  15.238 -0.1417 -0.1914 -0.2804
 3611W        W20085   0.523   7.265  11.567  0.0589  0.0817 -0.2715
 3612W        W20086  14.407  11.808   0.041 -0.2476 -0.2607  0.0364
 3613W        W20087  12.409   7.426   2.481  0.0798  0.1410  0.4057
 3614W        W20088   7.082   1.395  14.603 -0.1835 -0.0275  0.2891
 3615W        W20089  10.899  14.948  14.087  0.0190 -0.3214 -0.1218
 3616W        W20090   0.257  16.865   0.872 -0.0317 -0.1173  0.1550
 3617W        W20091   2.889   7.769  12.564  0.0718  0.3339  0.1523
 3618W        W20092  14.806  12.752  12.564  0.1347  0.0150 -0.1615
 3619W        W20093   7.517  18.674   0.157 -0.1611  0.3021  0.2446
 3620W        W20094  13.410  17.534   4.911  0.0411  0.1010  0.0420
 3621W        W20095   9.658   8.964   3.556  0.0477  0.0276 -0.1407
 3622W        W20096  13.170  12.590   5.093  0.2921 -0.0413  0.1128
 3623W        W20097  12.286   1.833  14.240  0.1577  0.0961  0.4124
 3624W        W20098   3.474  16.310  11.406  0.0536 -0.2036 -0.3387
 3625W        W20099  12.333   7.789   1.149 -0.2120  0.0338  0.0110
 3626W        W20100   5.603   9.230  15.197  0.1228 -0.1864 -0.1925
 3627W        W20101   8.314  12.887   2.757 -0.0649 -0.5309  0.0981
 3628W        W20102   6.536   1.431   3.798 -0.0378 -0.4426  0.2913
 3629W        W20103  10.834  13.489   3.576  0.0864  0.0465 -0.2851
 3630W        W20104   9.042  13.493  14.411 -0.3217 -0.1339  0.2677
 3631W        W20105   4.718  11.442  11.570  0.2050 -0.0556 -0.1097
 3632W        W20106  17.682   9.664   2.776  0.2109 -0.0877 -0.3660
 3633W        W20107   1.273  16.433   0.838  0.1666  0.0024 -0.1227
 3634W        W20108   5.293  18.190   0.159 -0.0206 -0.0110 -0.0699
 3635W        W20109   4.228  15.038   1.927  0.2978  0.2480 -0.3252
 3636W        W20110   6.241   3.177   2.279 -0.2844 -0.0687 -0.0936
 3637W        W20111  12.042  14.938   1.197 -0.2872 -0.0436 -0.0568
 3638W        W20112   8.239   1.376  11.169  0.2278 -0.1527  0.2497
 3639W        W20113   6.094  17.324  13.765  0.0393 -0.3498  0.1284
 3640W        W20114  12.681   8.358  13.812 -0.0238  0.1169 -0.4350
 3641W        W20115   9.612   2.355  13.628  0.0368  0.1827  0.2711
 3642W        W20116   7.628   0.036  11.048 -0.2292  0.0333  0.0071
 3643W        W20117  16.336  17.079   4.905  0.1358 -0.2655  0.0329
 3644W        W20118   6.683   8.746   1.212  0.0318 -0.1046  0.0886
 3645W        W20119   2.063  13.876   1.201 -0.1422  0.0943 -0.2148
 3646W        W20120  14.441   8.929   0.721 -0.1310  0.1231 -0.1136
 3647W        W20121  10.550   8.836  10.512  0.6533 -0.2178 -0.0053
 3648W        W20122   4.506  11.753   4.084  0.0517 -0.0440 -0.1825
 3649W        W20123  18.252  17.693   0.602 -0.0641 -0.0568 -0.1881
 3650W        W20124   4.502  15.939  12.635  0.2850 -0.1234 -0.1025
 3651W        W20125   4.530  17.530   0.073  0.2048  0.4905  0.0789
 3652W        W20126   6.563   5.208   1.397  0.3295 -0.1718  0.1610
 3653W        W20127  13.668   4.441   1.973  0.0185  0.0522  0.0040
 3654W        W20128   4.478  14.272  13.700 -0.2390 -0.1201 -0.1137
 3655W        W20129  12.208   6.198   1.707 -0.0358 -0.0857  0.0307
 3656W        W20130   0.596  14.539  15.309  0.2044  0.2177  0.2668
 3657W        W20131  17.814   9.784  14.728  0.1941 -0.2726 -0.0898
 3658W        W20132  14.195  11.263   2.239  0.2616  0.0015 -0.3537
 3659W        W20133   3.497  11.835  12.318 -0.0466  0.0003 -0.0966
 3660W        W20134  11.703   0.085  11.184  0.0588  0.0598  0.2838
 3661W        W20135   6.086  10.550  11.051 -0.2696 -0.0600 -0.0261
 3662W        W20136  14.420  10.117  14.500 -0.2685  0.0510  0.0005
 3663W        W20137  15.652   6.837  10.604 -0.0143  0.0651 -0.0562
 3664W        W20138  14.788  15.981   0.465  0.0943 -0.1690  0.3003
 3665W        W20139  16.993   7.106  12.042 -0.1411  0.0344 -0.1400
 3666W        W20140  13.278   5.941   1.958  0.1552 -0.1209  0.3482
 3667W        W20141   8.084  12.447   3.282  0.2183 -0.1383  0.2894
 3668W        W20142  16.449  16.377  10.812 -0.1308 -0.0258  0.1728
 3669W        W20143  12.973  14.800   2.666  0.4362  0.1157  0.2649
 3670W        W20144   8.815  14.304  11.594 -0.1965 -0.1060  0.1734
 3671W        W20145  10.100   4.499  11.283  0.3601  0.2122  0.1852
 3672W        W20146   5.200  13.986   1.527 -0.2643  0.5527  0.0181
 3673W        W20147   6.314   3.758   2.112 -0.0386 -0.2755 -0.2760
 3674W        W20148  13.230  17.793   1.784  0.0527  0.2776 -0.1218
 3675W        W20149  17.359   6.278  15.616  0.1485  0.1839 -0.2444
 3676W        W20150   1.278  17.513   2.758  0.2226  0.0672 -0.0676
 3677W        W20151  18.118   2.509   4.604 -0.2113  0.0399  0.0052
 3678W        W20152   6.687   0.187  11.631 -0.0580 -0.0485 -0.0462
 3679W        W20153   0.414  13.737   2.322  0.0938 -0.0129 -0.0829
 3680W        W20154  14.506  17.164   1.857  0.0230  0.0594  0.0485
 3681W        W20155  13.428  16.253  13.397 -0.2690  0.3119  0.2528
 3682W        W20156   8.063  15.662   0.580 -0.1897 -0.0838 -0.0381
 3683W        W20157  15.650   3.685  15.431 -0.2728  0.0373  0.1464
 3684W        W20158  17.322  18.264  11.384  0.4352 -0.0479 -0.1132
 3685W        W20159  10.928   5.645   4.491  0.2456 -0.0046 -0.0052
 3686W        W20160  15.733   1.746  11.727 -0.2930 -0.0555  0.1190
 3687W        W20161  14.072   8.777   1.451 -0.0496  0.0130  0.2093
 3688W        W20162   7.290   8.841   3.983  0.0106 -0.0094 -0.0596
 3689W        W20163  17.233   3.508   0.835 -0.1440  0.1251 -0.0248
 3690W        W20164  12.813   9.113  12.296 -0.0295 -0.4390  0.1258
 3691W        W20165   6.960   0.211   1.322 -0.0687  0.2597  0.1457
 3692W        W20166   4.345   3.618  14.645 -0.0363  0.1095 -0.0637
 3693W        W20167  17.937   5.534  13.489 -0.0220  0.0719 -0.1915
 3694W        W20168  14.952   9.973  14.159 -0.1526  0.1911 -0.0285
 3695W        W20169  17.185  12.299   4.636  0.2474 -0.0558 -0.0906
 3696W        W20170   8.864   3.836  11.805  0.4102  0.0874  0.0448
 3697W        W20171   3.012   1.949   1.252 -0.0300  0.3005 -0.0454
 3698W        W20172  11.353  10.745  15.490  0.2112 -0.1820 -0.1292
 3699W        W20173   1.890   8.316   2.677 -0.1441  0.2140  0.0923
 3700W        W20174   6.668   6.961   0.066  0.1651 -0.1866  0.1674
 3701W        W20175  13.844  12.276   1.645 -0.0831 -0.0661 -0.0794
 3702W        W20176  14.551   1.720  10.950 -0.0489 -0.0602  0.0210
 3703W        W20177   1.408   3.030   1.886 -0.2885 -0.1369 -0.0722
 3704W        W20178   7.718   8.459   0.750 -0.1441  0.1945  0.0190
 3705W        W20179  10.145  10.839  14.420  0.1086 -0.0140 -0.1036
 3706W        W20180  10.896  11.941   3.958  0.1816 -0.1362  0.0500
 3707W        W20181   6.284   4.627  15.590 -0.1974 -0.2162  0.4716
 3708W        W20182   6.879  17.186  11.758 -0.1467  0.2491 -0.3203
 3709W        W20183  12.488  14.012   3.889 -0.2836  0.4959  0.2218
 3710W        W20184   0.397   6.429   4.488 -0.1193  0.2503 -0.0810
 3711W        W20185  18.386  16.642  14.447  0.1811  0.0066 -0.2755
 3712W        W20186  17.176  13.567   0.411 -0.0821  0.0827  0.0982
 3713W        W20187  18.029   3.746  12.591 -0.2911  0.0125  0.2340
 3714W        W20188  16.584  17.576   1.083 -0.0836  0.0513 -0.2875
 3715W        W20189   5.977   6.414  13.905 -0.0382  0.0648 -0.2663
 3716W        W20190  10.969   2.846  11.459  0.2110  0.0807 -0.2496
 3717W        W20191   4.327   3.588   2.801  0.1994  0.2949  0.2694
 3718W        W20192  14.608  17.424   3.320  0.1771 -0.0974  0.3870
 3719W        W20193   4.535   1.220   0.609  0.2061 -0.2107 -0.0968
 3720W        W20194   8.802   4.822   0.258 -0.2765  0.2923 -0.0852
 3721W        W20195  18.583  11.596  11.414 -0.2649 -0.2302 -0.0607
 3722W        W20196  13.513   6.666  11.028  0.4457 -0.0225 -0.0344
 3723W        W20197   6.939  18.506  11.482  0.0521 -0.0922  0.1727
 3724W        W20198   4.848   6.349  11.454 -0.2757 -0.0517 -0.3510
 3725W        W20199  17.148   2.798  10.210 -0.0253 -0.1649  0.0888
 3726W        W20200   8.037   9.554   2.650  0.2023 -0.2028  0.2260
 3727W        W20201   1.867  14.887   2.309  0.1667 -0.0449 -0.0723
 3728W        W20202  15.758  12.804  12.824  0.0310  0.0810 -0.0365
 3729W        W20203   0.741  16.469  13.386 -0.5515 -0.1931  0.1191
 3730W        W20204  13.748  17.873   1.631 -0.0653 -0.0557 -0.0908
 3731W        W20205   4.292   0.794   4.627  0.8312  0.0433  0.1788
 3732W        W20206   9.936   0.071  11.011 -0.3261 -0.1771 -0.0360
 3733W        W20207  13.142   8.565   4.210 -0.1834  0.2594  0.2002
 3734W        W20208   5.942  12.292   0.148  0.5716 -0.0316  0.1317
 3735W        W20209  17.591  13.618   2.313 -0.0877  0.1228  0.1140
 3736W        W20210   0.282  17.430  10.220 -0.0781 -0.1631 -0.1823
 3737W        W20211   4.194  13.931  14.685 -0.2227  0.0971  0.0086
 3738W        W20212  13.646   8.401  14.130  0.1735  0.1594 -0.0574
 3739W        W20213   1.931   7.874   1.134 -0.3438  0.2895 -0.0303
 3740W        W20214  12.373   9.345   2.893 -0.0987  0.3150 -0.2101
 3741W        W20215   0.411  11.924  15.089  0.2443 -0.1079 -0.0076
 3742W        W20216   5.894   5.940   3.165 -0.1447  0.1195 -0.2602
 3743W        W20217  17.349   7.858   5.680  0.0573 -0.2896 -0.1911
 3744W        W20218   8.140   9.916  13.808  0.0239  0.0212  0.1054
 3745W        W20219   4.015  10.962   3.273 -0.1062 -0.0224  0.2902
 3746W        W20220  12.672   5.991   3.220 -0.0004 -0.0127  0.2516
 3747W        W20221  14.885  10.215   0.793 -0.0052 -0.0404 -0.2970
 3748W        W20222   4.996  13.812   5.067  0.2028 -0.1880 -0.0137
 3749W        W20223  13.112  16.450   1.346  0.1539 -0.0861 -0.3983
 3750W        W20224  14.606  17.040   5.036  0.0714  0.2676 -0.2681
 3751W        W20225  13.988  14.833   1.125  0.0763  0.1497 -0.0390
 3752W        W20226  17.264   7.785  13.738  0.0350  0.3514  0.0080
 3753W        W20227   7.046   3.989  12.092 -0.2491 -0.1896 -0.3668
 3754W        W20228  17.333  14.100   2.731 -0.0819  0.2729  0.0511
 3755W        W20229   8.113  17.984   1.720  0.0274 -0.1453  0.0493
 3756W        W20230  12.163  11.225  11.519 -0.1594 -0.2514 -0.0647
 3757W        W20231   1.049   2.582   3.101 -0.0132 -0.0258  0.4774
 3758W        W20232   2.016  11.878   4.526  0.0364 -0.1427  0.1047
 3759W        W20233  17.061   6.813   3.521 -0.2018 -0.2766  0.3592
 3760W        W20234   5.907  17.478  13.276 -0.1702 -0.2187 -0.0225
 3761W        W20235  13.669   5.266   4.575 -0.1006  0.0696  0.3162
 3762W        W20236   8.684   3.848   1.712 -0.4261  0.1123 -0.0467
 3763W        W20237   9.521   9.242  11.915 -0.0366  0.0769 -0.0462
 3764W        W20238  15.496   1.554   4.688  0.0744 -0.1713 -0.1084
 3765W        W20239  18.475   8.755  10.812 -0.2215 -0.0735 -0.0004
 3766W        W20240  17.813   3.753   3.849 -0.1107  0.0170  0.0238
 3767W        W20241  12.638   9.174   2.193 -0.0952  0.4583  0.2329
 3768W        W20242  14.831   0.041  13.169  0.2798 -0.5904  0.0433
 3769W        W20243   1.500  13.741   1.213  0.0907 -0.0984 -0.1339
 3770W        W20244   4.773   8.315   4.318  0.0309 -0.2106  0.4236
 3771W        W20245   3.754   7.116   1.217 -0.0091  0.2937 -0.3217
 3772W        W20246  13.082  11.019   5.306 -0.1331 -0.0049  0.1471
 3773W        W20247   1.886  10.571  12.712  0.2140 -0.0913  0.0653
 3774W        W20248  12.046  15.712   4.291  0.1797 -0.1661  0.0866
 3775W        W20249   4.360  15.443  12.629 -0.1378  0.0712  0.0357
 3776W        W20250  16.833   6.443   0.588 -0.1857  0.0479 -0.0387
 3777W        W20251   2.314  13.366   1.591 -0.3619  0.0898  0.0986
 3778W        W20252  15.881   2.252  11.060 -0.0090  0.1865 -0.1438
 3779W        W20253  15.941   1.185   4.048  0.0890  0.0949  0.2095
 3780W        W20254   4.821  15.383  15.487  0.0497 -0.2523  0.0315
 3781W        W20255   2.923   6.421   0.863  0.1325  0.0563 -0.0902
 3782W        W20256  17.352   6.905  11.671  0.0998  0.2221  0.2263
 3783W        W20257  16.183  12.380   2.128 -0.4539 -0.1461  0.0803
 3784W        W20258  18.267  11.911   0.470  0.2379  0.0393 -0.0084
 3785W        W20259   4.886  16.928  11.883 -0.1150 -0.2748  0.0645
 3786W        W20260   9.318   6.537   3.649 -0.0313  0.0066 -0.0273
 3787W        W20261  11.515   9.867   2.167  0.2467 -0.0436 -0.1611
 3788W        W20262  15.385   3.638   0.858 -0.0153 -0.0230 -0.3295
 3789W        W20263  17.666  15.779  11.055  0.3070 -0.0190  0.0857
 3790W        W20264  14.738   7.334  15.400 -0.0962  0.1779 -0.4878
 3791W        W20265  13.947   1.291  14.145  0.0981 -0.0329 -0.1519
 3792W        W20266   2.936   8.786   3.410 -0.1198  0.3254 -0.3649
 3793W        W20267   2.923   2.584   1.392  0.1826 -0.3272  0.1028
 3794W        W20268   0.659  12.867  12.471 -0.0678  0.1737 -0.1438
 3795W        W20269  14.965  18.319   2.021  0.2836 -0.3030 -0.1696
 3796W        W20270   6.535  12.808   0.738 -0.1158  0.0321  0.0723
 3797W        W20271   3.086   6.240  11.206  0.1212  0.1991  0.0010
 3798W        W20272   6.116   7.358  14.219  0.1365 -0.3020  0.0969
 3799W        W20273   7.989  18.397   2.088 -0.0956 -0.1348 -0.3247
 3800W        W20274   0.488  13.383   0.340  0.0190 -0.1157  0.0024
 3801W        W20275   1.925   0.149  10.138 -0.1099  0.0794 -0.0865
 3802W        W20276  14.540   3.646  14.108 -0.1832 -0.0070  0.1175
 3803W        W20277  16.689   7.238  13.834  0.1275 -0.1953  0.0153
 3804W        W20278   6.607   8.597  12.973 -0.2776  0.1115  0.1204
 3805W        W20279   6.185  10.710  15.350 -0.0261 -0.1525 -0.0172
 3806W        W20280  18.684  10.943   2.435 -0.2074 -0.1711 -0.1524
 3807W        W20281   3.203  15.319   1.220  0.0618 -0.0269  0.0776
 3808W        W20282   2.092   5.472   1.349  0.1890 -0.1388 -0.1732
 3809W        W20283   6.123  14.881  14.834  0.1468 -0.2046  0.0260
 3810W        W20284   5.318   3.769   3.987 -0.2166  0.0836  0.2109
 3811W        W20285  10.859  14.318   6.141  0.5966  0.1243  0.3784
 3812W        W20286   7.338   4.255   0.516  0.4305 -0.0156  0.0363
 3813W        W20287   0.599   8.054   2.657 -0.1020  0.0051  0.0923
 3814W        W20288  16.964   4.595  14.904  0.2006  0.0069  0.0222
 3815W        W20289  14.112   5.375  13.349 -0.0456  0.0993 -0.1190
 3816W        W20290  15.482  17.607   0.716  0.0329  0.0397  0.0084
 3817W        W20291   3.849   4.995  12.383 -0.0848  0.1150  0.0707
 3818W        W20292  13.060  17.309   2.810 -0.0221  0.1475  0.0912
 3819W        W20293   8.970  11.017  14.181  0.0225  0.0937 -0.1954
 3820W        W20294   2.664   5.452   0.420  0.2145  0.1771 -0.1631
 3821W        W20295  11.863  10.649   0.902 -0.0060  0.1708  0.3332
 3822W        W20296  15.450   5.901   1.602 -0.5672 -0.2491  0.1672
 3823W        W20297   5.312   6.683  11.530 -0.2544 -0.0878 -0.1241
 3824W        W20298   1.039  16.920   0.027  0.1969  0.0315  0.1199
 3825W        W20299  18.060   1.685  11.511  0.4311  0.0595 -0.0484
 3826W        W20300  10.150  14.803   4.810 -0.2673  0.0154 -0.5272
 3827W        W20301  10.462  18.809   1.021 -0.1647  0.0695  0.2786
 3828W        W20302   2.609   5.650   3.167  0.4381 -0.1753 -0.1769
 3829W        W20303   4.048  18.264   3.569  0.1098 -0.1372 -0.0247
 3830W        W20304  13.992  17.905   2.916  0.1125 -0.1337 -0.2036
 3831W        W20305   5.304  17.393   2.977 -0.0677 -0.1478  0.0401
 3832W        W20306   1.250  10.347  13.798  0.2030 -0.0967  0.3494
 3833W        W20307   7.469  17.653  13.839  0.0695 -0.1204 -0.2697
 3834W        W20308   1.979   2.442   3.844  0.1659  0.1521  0.2983
 3835W        W20309  14.359  12.628   2.605  0.1806 -0.1439  0.0925
 3836W        W20310  15.211  12.568   3.681 -0.0989  0.2134 -0.2556
 3837W        W20311  18.562  12.233  13.671 -0.0766 -0.0138  0.1334
 3838W        W20312  17.348  18.388   4.252 -0.1395  0.1288 -0.0320
 3839W        W20313   2.059   1.509  12.960 -0.1108  0.1690  0.0762
 3840W        W20314  13.459  10.599  14.154 -0.2060  0.0868  0.1573
 3841W        W20315   8.655  12.959   0.907 -0.1095  0.1586  0.3506
 3842W        W20316  11.801  12.352  15.177 -0.1520 -0.3415  0.0203
 3843W        W20317   0.938  17.646   5.013  0.1453  0.0655 -0.3219
 3844W        W20318   3.518   1.606   1.323  0.0133 -0.1016 -0.4451
 3845W        W20319  15.704  18.237  12.121 -0.0251  0.1658  0.4093
 3846W        W20320   0.746  12.580   2.751 -0.0976 -0.2905 -0.1283
 3847W        W20321  16.973  12.962   2.808  0.0234  0.2089 -0.0406
 3848W        W20322  14.712   3.116   4.285 -0.1665  0.0860 -0.3135
 3849W        W20323  13.427   1.139  12.891  0.1217  0.2876 -0.2848
 3850W        W20324   6.644  11.685  11.858  0.2242 -0.3053  0.1669
 3851W        W20325  15.054  15.191   2.907  0.0942 -0.2441  0.1430
 3852W        W20326   9.657   5.249   4.864  0.0805 -0.1449  0.0774
 3853W        W20327   2.447   5.561  11.294 -0.1429  0.0086 -0.1103
 3854W        W20328  14.719   7.489  11.572  0.1418  0.2940 -0.2777
 3855W        W20329   5.811   6.779  14.902 -0.4705  0.1012  0.1086
 3856W        W20330  14.464  14.683  14.053  0.1114  0.1134  0.1599
 3857W        W20331  11.795  13.180   1.781  0.0750 -0.1024  0.4197
 3858W        W20332  12.879   4.042  13.328 -0.2862  0.2056  0.1862
 3859W        W20333   3.680   5.963  15.668  0.0024 -0.1105 -0.0518
 3860W        W20334  15.333   0.264  13.879 -0.3741  0.0174  0.1114
 3861W        W20335  18.847   6.321  13.875  0.3532  0.1784  0.0966
 3862W        W20336   1.080  14.107   0.268 -0.2145 -0.1146 -0.4064
 3863W        W20337  11.437  16.616   1.041 -0.1854  0.1871 -0.2318
 3864W        W20338  10.809   1.601  14.468  0.1904  0.2438 -0.1562
 3865W        W20339  13.531   4.128   0.472 -0.2070 -0.1292 -0.0852
 3866W        W20340  11.806  15.217   5.052  0.3004 -0.1206  0.0031
 3867W        W20341   5.003   5.423  13.445  0.4794  0.0055  0.1110
 3868W        W20342  14.030  18.659   1.416  0.1574  0.0118  0.0487
 3869W        W20343   3.002  12.902   4.047  0.0179 -0.0107  0.1843
 3870W        W20344  15.544   3.924   0.167 -0.0580 -0.1954  0.0258
 3871W        W20345  15.988  17.707  10.396 -0.2975 -0.1213  0.2842
 3872W        W20346  11.092   2.503   3.901 -0.0730 -0.3320 -0.2315
 3873W        W20347  16.097   0.275   2.472  0.1455 -0.0765 -0.0195
 3874W        W20348  10.113  14.222  14.187  0.0012 -0.0465 -0.0073
 3875W        W20349  14.693  17.067  14.398  0.1703 -0.2987 -0.0568
 3876W        W20350   0.114  11.469  11.101  0.2968  0.2713  0.1710
 3877W        W20351  16.126   0.522   2.902 -0.1222  0.1760  0.0159
 3878W        W20352  17.790  16.751   3.264 -0.1528 -0.1086  0.1955
 3879W        W20353   5.114   9.961   5.592 -0.1545 -0.1174 -0.0206
 3880W        W20354   0.966   2.677   4.813  0.3490  0.1065 -0.6731
 3881W        W20355   5.050   9.814   3.126  0.2283 -0.2201 -0.1175
 3882W        W20356  13.025  10.276  11.871 -0.1197  0.3455  0.0657
 3883W        W20357   0.442   1.384  10.679  0.1117  0.0399 -0.1204
 3884W        W20358   4.334   8.146  14.713  0.1718 -0.0491  0.2262
 3885W        W20359   7.158  13.558  14.208 -0.0263  0.2859 -0.2269
 3886W        W20360   2.244   4.770   4.574  0.4009 -0.2743  0.2081
 3887W        W20361   7.704  13.810   0.841 -0.4440 -0.0903  0.3114
 3888W        W20362  18.657   7.633   1.374 -0.2600  0.2846 -0.3775
 3889W        W20363  12.481   8.358   2.198  0.1220 -0.2137  0.0023
 3890W        W20364   4.941   1.945   4.019 -0.0503 -0.1088  0.0190
 3891W        W20365  16.226   8.417   3.933 -0.2400 -0.3618  0.0014
 3892W        W20366  11.361  18.087  13.355  0.0031 -0.0523 -0.2496
 3893W        W20367  16.972  17.203   2.456 -0.2367 -0.2461  0.0254
 3894W        W20368   7.345  17.209   0.998  0.2209  0.1192  0.1683
 3895W        W20369  11.962   9.423  12.097  0.0542 -0.0782  0.0322
 3896W        W20370  12.344   6.401   5.376  0.0088 -0.1118 -0.0870
 3897W        W20371  13.066  13.864  14.612  0.0188 -0.1789  0.2203
 3898W        W20372  11.518  10.706  12.271  0.0005  0.0075 -0.3215
 3899W        W20373   3.327  14.525   5.534  0.1060  0.1828  0.0949
 3900W        W20374   2.018   5.182  13.447 -0.0157  0.2219  0.3462
 3901W        W20375   4.835  17.316  15.379  0.2459 -0.0120  0.0543
 3902W        W20376   6.417  14.383   0.085 -0.2961 -0.1935  0.1618
 3903W        W20377   0.787   1.119   2.491 -0.0062 -0.0027  0.3691
 3904W        W20378   5.526   3.391   4.851  0.0495 -0.1839  0.0677
 3905W        W20379  16.487   5.966   0.284  0.0500  0.0135  0.0604
 3906W        W20380   8.547   9.406  12.227  0.0581 -0.0868 -0.2330
 3907W        W20381   0.890   4.021  11.422  0.0013 -0.1078 -0.1474
 3908W        W20382  17.815  13.214   0.582  0.3169 -0.1881 -0.1192
 3909W        W20383  11.009   1.116  12.273  0.0034 -0.3412 -0.2345
 3910W        W20384   1.174  18.756   1.350 -0.1385 -0.0105 -0.0093
 3911W        W20385  12.504   0.913  11.351 -0.0726  0.4807  0.0994
 3912W        W20386   6.391  10.904  13.727  0.1998 -0.1387  0.3208
 3913W        W20387  14.697  16.439   3.125  0.1194 -0.2587  0.1058
 3914W        W20388  11.056   7.157  15.654 -0.1243 -0.0453  0.3065
 3915W        W20389   9.310  15.837  14.093  0.1171  0.2840 -0.4775
 3916W        W20390  11.760   3.440   1.867  0.2460  0.1988 -0.2762
 3917W        W20391   5.050   8.628   3.711 -0.2139 -0.0203  0.2271
 3918W        W20392  14.531  11.187  14.972 -0.0503 -0.0517 -0.1622
 3919W        W20393   9.691   5.182   4.324  0.1287 -0.3563 -0.0918
 3920W        W20394  12.237   3.898   3.081 -0.1587  0.1118  0.1191
 3921W        W20395  17.053  15.849   3.972  0.1062 -0.1104 -0.1560
 3922W        W20396  16.551  13.313  12.623 -0.1607 -0.2295 -0.0882
 3923W        W20397   8.046   1.938  11.281  0.2512 -0.0328  0.2856
 3924W        W20398  14.635  12.915  11.148 -0.1020  0.2475  0.3762
 3925W        W20399  17.344   5.806   3.830 -0.2570 -0.2285 -0.1736
 3926W        W20400  12.777  15.975   2.295 -0.0244  0.0896  0.0418
 3927W        W20401  12.977  12.081   1.981  0.1956  0.1646 -0.2658
 3928W        W20402  16.422   4.592   0.087  0.2779  0.0549  0.0422
 3929W        W20403  10.778  10.650   3.545  0.1481  0.2252  0.1286
 3930W        W20404   3.374   6.362   0.056  0.2662  0.1680  0.0032
 3931W        W20405  15.529   9.099  12.644 -0.3028  0.1828  0.0037
 3932W        W20406   7.195  13.455  12.825 -0.1011  0.0465 -0.0634
 3933W        W20407  17.065   7.643  15.554  0.1922  0.1536  0.0454
 3934W        W20408  14.897   5.057  14.784  0.2331 -0.0762 -0.0497
 3935W        W20409   4.167  12.061  11.188  0.1555  0.0408 -0.0001
 3936W        W20410   1.184  11.161  14.903  0.2307 -0.2126  0.4369
 3937W        W20411  15.050   6.440   0.739  0.0294 -0.4156 -0.0741
 3938W        W20412   5.563   8.379  10.817 -0.1145 -0.0898 -0.0096
 3939W        W20413  17.759  17.758  13.536  0.1243 -0.0036  0.0644
 3940W        W20414   1.550  10.263   2.792 -0.2352  0.0088  0.0823
 3941W        W20415   6.163   6.398  14.385  0.1015  0.1097  0.3423
 3942W        W20416  17.504  17.053  13.262 -0.0665  0.0121 -0.1396
 3943W        W20417   8.062   1.343   1.575  0.3107 -0.1982 -0.0778
 3944W        W20418   6.689   3.098  12.019  0.0877  0.1668  0.0404
 3945W        W20419   3.226  11.979  14.278 -0.2791 -0.0600  0.3222
 3946W        W20420   0.815   3.547  10.122 -0.2023  0.1416  0.0283
 3947W        W20421   3.983   2.621   4.875 -0.0926  0.1052  0.1577
 3948W        W20422   3.900   1.796   3.081 -0.1786  0.2148  0.0525
 3949W        W20423   1.405  18.119   4.654  0.1365 -0.2355  0.1155
 3950W        W20424  16.198  16.841   5.353 -0.1971  0.1132 -0.0176
 3951W        W20425   6.386   9.049   1.453  0.0972 -0.2155  0.2708
 3952W        W20426   2.567   9.574  13.246 -0.0709  0.1243  0.1444
 3953W        W20427   4.108  18.525  14.618 -0.0459 -0.0790  0.0987
 3954W        W20428   4.932  10.052  11.664  0.1081 -0.1619  0.3025
 3955W        W20429  10.453   1.359   3.273 -0.6857 -0.1688 -0.0606
 3956W        W20430  12.731   8.068   0.269  0.0029 -0.2128  0.0358
 3957W        W20431  17.705   4.790  11.546 -0.1918  0.2855  0.1146
 3958W        W20432  12.760  14.352  14.831  0.2427  0.0594 -0.3646
 3959W        W20433  18.062   0.423  14.061 -0.0513  0.0396  0.0602
 3960W        W20434   1.282  16.176   4.141  0.1018 -0.0536  0.4187
 3961W        W20435  16.733   1.139  12.625  0.4776  0.1599  0.4419
 3962W        W20436   7.923  15.701   3.813 -0.0475 -0.0488 -0.1131
 3963W        W20437  13.077  18.430   5.003  0.1155 -0.2158  0.1665
 3964W        W20438   0.765   2.095  15.198 -0.2707  0.1523 -0.2204
 3965W        W20439  18.123   8.544  15.583  0.1521  0.3244  0.5610
 3966W        W20440   7.531   0.659  12.735  0.0403 -0.0932 -0.0405
 3967W        W20441  10.980  11.835  14.507 -0.0107  0.1315  0.1729
 3968W        W20442  13.641  15.661   4.098  0.4489 -0.3831 -0.1678
 3969W        W20443   4.559  14.979   1.095  0.0853 -0.2378 -0.3290
 3970W        W20444  18.022   4.330   2.393  0.2653 -0.2241 -0.3157
 3971W        W20445   8.180   5.906   2.291  0.1505  0.1423 -0.0092
 3972W        W20446  16.391  17.786  14.088  0.0402 -0.4299  0.1046
 3973W        W20447  16.729  10.059  12.442  0.0820 -0.0089 -0.1070
 3974W        W20448   7.609   1.036   1.075  0.1926 -0.2499  0.0864
 3975W        W20449   9.978   8.809  15.625  0.0224  0.0402 -0.0951
 3976W        W20450   1.497  10.207   4.619  0.0189 -0.1645 -0.2126
 3977W        W20451   4.207   9.548  15.469 -0.1269  0.0401  0.0399
 3978W        W20452   2.121   2.162   0.217 -0.1033 -0.2839  0.0848
 3979W        W20453  14.878   9.218   4.612 -0.1068 -0.2141  0.1414
 3980W        W20454   5.908   3.536   5.168  0.0186  0.2364 -0.1731
 3981W        W20455   6.238  13.381  14.454 -0.2660  0.0236 -0.0203
 3982W        W20456   7.790   6.397  11.315 -0.0263 -0.0786  0.2595
 3983W        W20457   8.926  10.118   2.577  0.1884  0.0006  0.1900
 3984W        W20458   1.050  12.696   1.452 -0.1213  0.0908  0.1487
 3985W        W20459  18.626   1.735  11.025  0.0152 -0.1767 -0.0854
 3986W        W20460   7.187  12.974  10.870  0.1844 -0.1047  0.3599
 3987W        W20461   3.541  18.361  12.759  0.0249  0.0609  0.2129
 3988W        W20462  10.690  14.449   0.317  0.2453  0.0083 -0.1684
 3989W        W20463   5.796  17.702   3.009 -0.0362  0.0227 -0.1093
 3990W        W20464   7.407   2.858   5.216  0.2763  0.1670  0.0424
 3991W        W20465   8.872   5.546  13.937  0.2392 -0.0426  0.0189
 3992W        W20466  14.643  14.436  11.794  0.3876 -0.0193  0.0081
 3993W        W20467   3.867   7.371   0.775  0.3703 -0.1686  0.0964
 3994W        W20468   8.584  13.437   0.616 -0.1689 -0.1855 -0.0355
 3995W        W20469  14.028   7.581  13.286 -0.0754 -0.2392 -0.0118
 3996W        W20470   3.906   4.584   3.246 -0.0882  0.0593  0.0048
 3997W        W20471   0.393  16.352  11.622  0.0854 -0.2859  0.0383
 3998W        W20472   9.285  16.404   5.395 -0.0033  0.2289 -0.2958
 3999W        W20473   4.265   4.222  12.075  0.1773  0.1086  0.3052
 4000W        W20474  12.388   1.606   1.510 -0.1724  0.1184  0.2766
 4001W        W20475   5.995   6.801  12.948  0.1144 -0.0019  0.0009
 4002W        W20476   7.759   5.466   0.074  0.0081 -0.0289  0.2835
 4003W        W20477   4.047  12.089  11.642 -0.1251  0.0563 -0.2128
 4004W        W20478  12.647   2.861   1.739  0.1346  0.1016 -0.0891
 4005W        W20479  15.142   1.446  10.873 -0.2514 -0.0522  0.0090
 4006W        W20480  12.676  13.590  12.419  0.2457  0.1423 -0.3035
 4007W        W20481  12.924  13.801  13.376  0.1611  0.0906  0.0441
 4008W        W20482  13.495  17.703  13.760  0.2130 -0.0012 -0.0818
 4009W        W20483   1.124   9.886  13.935  0.0492  0.2278 -0.0924
 4010W        W20484   5.484  12.413   1.505 -0.1733  0.0813 -0.4715
 4011W        W20485   3.417  17.109  12.566 -0.0050  0.0805  0.0385
 4012W        W20486   6.885  16.770   4.261  0.1179 -0.1267  0.0668
 4013W        W20487   7.269  13.807   1.749 -0.1304  0.1054  0.4502
 4014W        W20488  13.532   4.901  13.022 -0.2660 -0.1646  0.2141
 4015W        W20489  17.738  17.612  12.703  0.0280 -0.0899  0.0837
 4016W        W20490   8.798  10.897   5.016  0.0389  0.1045 -0.0641
 4017W        W20491   0.740   1.700  14.289 -0.3328  0.1517 -0.2632
 4018W        W20492   9.849  16.976  11.456  0.2221  0.2901  0.2444
 4019W        W20493   1.079   7.223  10.759  0.1975  0.0593 -0.1073
 4020W        W20494  10.856  14.533   3.713  0.0001 -0.1714  0.1860
 4021W        W20495  18.281  18.351   3.637 -0.0611  0.0361 -0.2226
 4022W        W20496   2.126   4.290  12.687  0.0752 -0.0816  0.1647
 4023W        W20497  13.103  11.468  13.729  0.2582  0.1198  0.3943
 4024W        W20498   8.761   7.467  12.702  0.1798 -0.2444 -0.2279
 4025W        W20499   4.134  17.377   2.570  0.0315  0.1721  0.1816
 4026W        W20500  15.567   6.536   0.811  0.0988  0.0841 -0.2333
 4027W        W20501  12.409  14.670  11.902 -0.1733 -0.2223 -0.3350
 4028W        W20502  11.028   0.998   1.174  0.0528 -0.1874 -0.0191
 4029W        W20503  11.364  10.988  12.640  0.1849 -0.0885  0.1366
 4030W        W20504   4.024   1.908  12.584  0.0080 -0.2631 -0.2812
 4031W        W20505   8.638   8.733   6.041 -0.1820  0.0833 -0.0539
 4032W        W20506   7.222   8.481  15.654 -0.0084  0.2441  0.2171
 4033W        W20507   1.371   1.008  13.406 -0.3282  0.1932  0.1440
 4034W        W20508  18.108  13.666   0.360 -0.0526 -0.2257  0.2846
 4035W        W20509   1.877   1.129  13.390  0.0771  0.2909  0.1372
 4036W        W20510   6.188  16.435  14.632  0.0546  0.0240  0.2943
 4037W        W20511  16.051   5.739  11.601  0.1958  0.0887  0.1983
 4038W        W20512   8.476  17.344   0.407 -0.0034 -0.1880 -0.1989
 4039W        W20513  12.455   7.707   4.612  0.0436 -0.1563  0.0935
 4040W        W20514   8.365   8.761   4.488  0.0652  0.3443  0.0126
 4041W        W20515   4.698   9.218   3.830 -0.0199 -0.0884  0.1788
 4042W        W20516   0.261   1.794  14.252 -0.1594  0.1608 -0.0508
 4043W        W20517  10.098  10.346   0.307  0.2794  0.4564 -0.1401
 4044W        W20518  14.504  11.489   4.674  0.0601  0.1347 -0.3001
 4045W        W20519  12.018  15.640   0.536  0.4291 -0.2339  0.0930
 4046W        W20520   7.103   5.315  11.716  0.1810 -0.3882 -0.0700
 4047W        W20521   4.403   2.996   0.343 -0.1135  0.3124  0.0633
 4048W        W20522  17.308   2.016  14.971  0.0820 -0.1423 -0.0737
 4049W        W20523   8.826   9.030  15.148 -0.1164  0.0251 -0.0817
 4050W        W20524  16.567   3.067   4.103 -0.3050 -0.2394  0.4470
 4051W        W20525   5.474   7.139  10.210 -0.2252  0.2539 -0.1091
 4052W        W20526  16.939  16.676   0.238 -0.0250  0.1738 -0.1014
 4053W        W20527  11.642   4.785   2.019  0.3885 -0.4559  0.1499
 4054W        W20528   5.501   0.555  13.789 -0.1408 -0.0971  0.2228
 4055W        W20529   1.450  17.665   1.309  0.0404 -0.1271 -0.0307
 4056W        W20530   6.362   4.479   4.747 -0.1702  0.0279  0.0216
 4057W        W20531  15.454   5.787  12.596  0.0150 -0.2280  0.2831
 4058W        W20532  18.444   3.666   0.636  0.0705  0.1050 -0.0632
 4059W        W20533  14.749  18.637  12.384 -0.3835 -0.2202 -0.0300
 4060W        W20534   3.006   1.885   9.825  0.0164  0.1150  0.1570
 4061W        W20535   5.731  18.077  12.917 -0.2794  0.1183  0.0032
 4062W        W20536   9.530   5.156   2.605 -0.1273  0.1270  0.0628
 4063W        W20537  13.621  16.552   3.200 -0.0587 -0.1422 -0.3764
 4064W        W20538   9.903  10.748  12.996 -0.2916  0.0999 -0.0360
 4065W        W20539   1.499  14.019  11.023  0.2199 -0.0075 -0.1334
 4066W        W20540   3.530  17.564  12.766 -0.2075 -0.1997  0.0130
 4067W        W20541  16.575  15.656   2.851  0.1311 -0.1372  0.0036
 4068W        W20542   1.541  10.375   0.299  0.2138  0.0590  0.1129
 4069W        W20543  12.025  11.083   1.123  0.0971  0.0035 -0.0610
 4070W        W20544  16.354   3.905   2.027 -0.2961  0.0685  0.3504
 4071W        W20545  12.264   4.323   2.591  0.2629  0.1350 -0.2113
 4072W        W20546  10.649   4.690  14.478 -0.0431 -0.1743  0.1715
 4073W        W20547   4.155  11.465   3.714  0.0871  0.1134 -0.1183
 4074W        W20548  18.179  12.145  14.902  0.0389  0.1112  0.1221
 4075W        W20549   1.784   1.702   0.149  0.0912  0.1586 -0.1701
 4076W        W20550   2.556   1.841  11.892  0.2883 -0.2263  0.2574
 4077W        W20551   0.939   4.832  11.791  0.0838  0.0105  0.1456
 4078W        W20552   9.473  15.130  13.205 -0.1738 -0.1348 -0.1728
 4079W        W20553   2.433  10.836  14.362  0.1715  0.0382 -0.0525
 4080W        W20554  16.456  17.780  10.144  0.2898 -0.1736 -0.2091
 4081W        W20555  17.220   2.059  14.116 -0.0390  0.1132 -0.3187
 4082W        W20556   3.552  11.061   0.793 -0.0960  0.1683 -0.0701
 4083W        W20557   8.795  15.874  13.168  0.3228  0.0148 -0.0774
 4084W        W20558   7.118   7.987   5.001  0.1480 -0.0621 -0.0768
 4085W        W20559  18.789  16.563  10.510  0.0393  0.0093 -0.2404
 4086W        W20560   2.360   0.889  14.240 -0.0037 -0.0838  0.0710
 4087W        W20561  11.845  12.760   1.248 -0.0136  0.1478  0.2844
 4088W        W20562   6.694   1.120   2.400  0.1225  0.0137  0.0227
 4089W        W20563   9.696   8.175   2.161 -0.0819 -0.0118  0.0160
 4090W        W20564   8.493   7.609   5.805 -0.2155  0.3034  0.3470
 4091W        W20565   5.556  15.956   4.205 -0.2019 -0.0708  0.2013
 4092W        W20566   3.292   0.631  15.127  0.2833  0.1227 -0.3155
 4093W        W20567  18.565  13.233  12.323 -0.2700 -0.2974 -0.1164
 4094W        W20568   9.819  11.275  13.143  0.3462  0.1527 -0.1496
 4095W        W20569  16.816   5.272  11.893 -0.0439 -0.2134  0.0179
 4096W        W20570  12.711  11.490  11.561  0.0747 -0.1363 -0.2173
 4097W        W20571   4.030  16.968  12.179 -0.1507  0.0063 -0.0336
 4098W        W20572  16.154   3.092  15.220  0.2706 -0.1834 -0.2851
 4099W        W20573   0.137   7.948   9.568 -0.0129  0.0685  0.2995
 4100W        W20574   1.674  15.344   2.426  0.0971  0.3440 -0.0155
 4101W        W20575  13.096   7.995   1.041 -0.0677 -0.4624 -0.0240
 4102W        W20576  13.636  13.411   3.182  0.2282  0.1602 -0.5072
 4103W        W20577   9.192  11.010   3.002  0.0386 -0.2010  0.2046
 4104W        W20578   3.438   5.708  13.618  0.4755 -0.0367 -0.1229
 4105W        W20579  13.005   2.458  11.166  0.0715  0.2476  0.2548
 4106W        W20580   4.373  12.922  14.631  0.0787  0.1010 -0.1593
 4107W        W20581  16.360  11.662   0.976 -0.1019  0.0720  0.0008
 4108W        W20582  16.939   1.054   3.728 -0.0900  0.1243 -0.1430
 4109W        W20583  13.257  12.614   0.966  0.1559  0.0651 -0.0976
 4110W        W20584   1.741   6.178  12.110  0.1881 -0.1208  0.0783
 4111W        W20585  18.510  10.502   2.301  0.1042  0.1958  0.0117
 4112W        W20586  17.162   3.955  14.780 -0.3003 -0.2278 -0.3886
 4113W        W20587   4.262  10.477  11.411 -0.0571 -0.2711  0.1526
 4114W        W20588  11.375   6.331  13.089  0.1256 -0.0330 -0.4348
 4115W        W20589  15.720   6.011   3.517  0.1729 -0.1401  0.3751
 4116W        W20590  12.877  12.392   2.514  0.0241 -0.1308 -0.1810
 4117W        W20591   9.334  16.591  15.107 -0.2144 -0.0241  0.0576
 4118W        W20592  11.544   0.289  11.945  0.3539 -0.1210  0.1060
 4119W        W20593  15.198   2.837  14.914 -0.0396  0.3320 -0.0454
 4120W        W20594  10.386   6.997  15.450 -0.1149 -0.1314  0.1664
 4121W        W20595   8.778  13.031   1.551 -0.1956 -0.1828 -0.1074
 4122W        W20596  18.522  15.774   0.003  0.3830 -0.0079 -0.2758
 4123W        W20597   3.899  16.494  12.426 -0.0098 -0.3656 -0.1267
 4124W        W20598   3.465   2.364  12.827  0.2115  0.3436  0.1083
 4125W        W20599   6.097   2.605  12.503  0.0808  0.0035  0.3890
 4126W        W20600   2.492   0.780  10.830  0.2228 -0.2184 -0.5305
 4127W        W20601   6.933   0.964  11.028 -0.0451  0.3004  0.0189
 4128W        W20602   8.875  14.452   3.130  0.0513 -0.0344  0.1582
 4129W        W20603  13.600  11.070  12.420 -0.0544 -0.2287  0.1251
 4130W        W20604  11.106  17.365  10.239 -0.0190 -0.0952 -0.0963
 4131W        W20605  12.738   6.929  13.787 -0.0984  0.0137 -0.0936
 4132W        W20606   1.419   2.974   2.995 -0.2168  0.1887 -0.0777
 4133W        W20607   1.444   6.727  10.922 -0.1590 -0.0800  0.1063
 4134W        W20608  18.336   5.614  13.757 -0.1464  0.1197  0.1214
 4135W        W20609   9.322  10.819   0.788  0.4104  0.3861 -0.0620
 4136W        W20610  14.056   1.136  13.625  0.0039  0.0603 -0.3033
 4137W        W20611   9.164  16.565   1.745 -0.0052  0.3128  0.0567
 4138W        W20612  15.889  18.568  15.163 -0.0561 -0.0050  0.0366
 4139W        W20613  12.227   7.038   0.361  0.1811  0.0901  0.1212
 4140W        W20614   4.095   8.859  11.275  0.1252 -0.1565  0.1759
 4141W        W20615   4.505   6.431   3.003  0.1200  0.0750 -0.1292
 4142W        W20616   6.223   3.811   3.370 -0.0586 -0.0268 -0.0226
 4143W        W20617  18.586   1.621  10.143 -0.0848  0.1574  0.1674
 4144W        W20618  11.238  15.026  13.225  0.0283  0.1957  0.1133
 4145W        W20619  15.750   2.225  10.570 -0.2677 -0.0372  0.2111
 4146W        W20620   7.916   1.085  13.585 -0.0416  0.0940 -0.2648
 4147W        W20621   8.628  11.609   1.328  0.0690 -0.1321  0.2403
 4148W        W20622  11.306   0.753   1.649 -0.0045  0.1445  0.0161
 4149W        W20623  15.139  18.177   0.047  0.2053  0.0175 -0.1678
 4150W        W20624  16.207  13.666  11.625  0.2510 -0.2951  0.1775
 4151W        W20625  11.274   8.921  14.395 -0.1249  0.1982  0.1668
 4152W        W20626   2.254   4.048  12.205  0.2815 -0.1218  0.1699
 4153W        W20627  17.002  13.297   0.047  0.3057 -0.0693 -0.0036
 4154W        W20628  16.444   5.425  13.639  0.0530 -0.2326 -0.0998
 4155W        W20629  18.111  15.577  11.216  0.2731  0.0024  0.0253
 4156W        W20630   2.230   1.677  13.998 -0.2282 -0.0068  0.0839
 4157W        W20631   0.573   8.060  13.221 -0.0271 -0.0904  0.0506
 4158W        W20632  10.604  11.363   0.519 -0.0930  0.0099 -0.1841
 4159W        W20633  12.249  17.663   2.644  0.2807  0.0670 -0.0057
 4160W        W20634   6.019  13.867   1.566 -0.3979  0.0288  0.0215
 4161W        W20635   2.263  14.290  14.045 -0.1913  0.2621  0.2210
 4162W        W20636  12.783   3.359   1.519 -0.2028 -0.1460 -0.0519
 4163W        W20637   3.814   4.030  11.929  0.1734 -0.0350  0.0515
 4164W        W20638  15.166  13.416   1.049  0.0309 -0.2393 -0.0141
 4165W        W20639  17.792  16.268   4.666 -0.4151  0.1444 -0.2082
 4166W        W20640  11.588   8.385   4.199 -0.2063  0.0206 -0.0973
 4167W        W20641  15.820   3.810   2.176 -0.1320 -0.2681 -0.0577
 4168W        W20642   5.066   8.110   3.896  0.0188  0.0718  0.0684
 4169W        W20643  15.339  12.934  13.119 -0.4400  0.0936  0.1917
 4170W        W20644   9.862  10.506  13.484  0.0463  0.0611 -0.0941
 4171W        W20645  16.547  16.414  13.999  0.1930  0.2559 -0.2006
 4172W        W20646   8.485   9.857   1.289 -0.0496  0.1984 -0.0062
 4173W        W20647   3.669  12.770   3.187  0.1430  0.1272 -0.2063
 4174W        W20648  10.190  15.415   1.900 -0.0314  0.0944 -0.1885
 4175W        W20649  18.749  10.331   1.861 -0.4873  0.2834 -0.0630
 4176W        W20650   4.171   3.550   3.269 -0.1963  0.1132 -0.1859
 4177W        W20651  11.573  10.395   1.379  0.0571 -0.0756  0.4754
 4178W        W20652  11.139   7.496   2.309  0.1378 -0.1003 -0.1985
 4179W        W20653   2.997  14.055  12.417  0.0185 -0.2503 -0.4751
 4180W        W20654  12.126   5.356   5.240 -0.1381  0.0894 -0.3103
 4181W        W20655   3.249   6.061  14.598 -0.0901  0.1954 -0.0214
 4182W        W20656  10.130  13.684  13.186  0.0544 -0.0712  0.1216
 4183W        W20657  11.393   5.183  14.678  0.2756 -0.0042  0.2756
 4184W        W20658  16.238   4.563  13.801 -0.1615 -0.1718 -0.2584
 4185W        W20659  18.565   4.134  15.513  0.1300  0.5856 -0.1749
 4186W        W20660  15.476  13.614   2.687  0.0955 -0.0548 -0.2345
 4187W        W20661  13.584  12.845   5.013 -0.2807 -0.1231  0.2321
 4188W        W20662  16.252  18.675   1.580  0.2537  0.1015 -0.0074
 4189W        W20663  16.487   0.130  13.580  0.0344 -0.0167  0.0614
 4190W        W20664  16.751  16.401  15.218 -0.0123  0.0022  0.0936
 4191W        W20665  15.012  14.178  15.294  0.0796 -0.2639  0.0411
 4192W        W20666  15.212  13.182  11.759 -0.0782  0.0754  0.1320
 4193W        W20667   6.747  11.545   0.166 -0.1944 -0.3819 -0.1176
 4194W        W20668  12.713  15.499   2.231  0.2747  0.1996 -0.1639
 4195W        W20669   5.647  16.842  11.823 -0.2113 -0.0889 -0.0539
 4196W        W20670   5.708   4.029   0.889 -0.2498  0.0808  0.1477
 4197W        W20671  13.892   7.533  11.138 -0.0484 -0.5320 -0.0046
 4198W        W20672  10.562   4.864   0.056  0.0384  0.0931 -0.0237
 4199W        W20673   5.185  13.503   4.643  0.0432 -0.2057 -0.1023
 4200W        W20674   3.514   3.174   3.812  0.0315 -0.2134 -0.0367
 4201W        W20675  15.260   3.356  10.158  0.3132  0.1591  0.3695
 4202W        W20676  13.287  11.634   1.179 -0.0287 -0.0240  0.3548
 4203W        W20677  15.786  17.977   1.151  0.2097 -0.2515  0.0690
 4204W        W20678   3.477  12.113  15.026 -0.1420  0.0706 -0.1494
 4205W        W20679   2.663   8.769   2.239 -0.0297 -0.0892  0.1163
 4206W        W20680   9.323  16.781   3.134  0.3002 -0.1059 -0.0817
 4207W        W20681   2.891   2.590  11.789  0.3000  0.0172 -0.1049
 4208W        W20682   7.945   4.966   2.320  0.1145 -0.0204  0.1695
 4209W        W20683   0.452  18.408  10.244 -0.3425  0.4044 -0.2283
 4210W        W20684   2.732  15.003   5.232  0.1590 -0.4468 -0.0785
 4211W        W20685   4.095   4.934  13.436 -0.0612 -0.3067  0.1605
 4212W        W20686   0.957  10.726  12.972 -0.0226  0.3339  0.0924
 4213W        W20687  15.339   3.333  15.077 -0.1865  0.1340 -0.3413
 4214W        W20688   6.365   7.646   4.453  0.0046 -0.1659 -0.0337
 4215W        W20689   6.895   2.913  13.811 -0.0612 -0.1169  0.3891
 4216W        W20690   9.970  16.155   2.361 -0.1366  0.1984 -0.0771
 4217W        W20691  15.924  12.428   2.802  0.1500  0.1181  0.1756
 4218W        W20692  10.021  10.501   3.499 -0.0041  0.1617 -0.0420
 4219W        W20693   3.044   6.067  11.780  0.6382 -0.0152  0.2394
 4220W        W20694   9.051   9.371  11.495  0.0974  0.0429 -0.0133
 4221W        W20695   2.030  10.903   1.745  0.0638  0.2187  0.0370
 4222W        W20696   1.011   1.122  13.793 -0.0585  0.1833 -0.1845
 4223W        W20697  12.500  13.693  15.114  0.0844  0.2587 -0.2371
 4224W        W20698  18.757  12.066  11.556  0.1200 -0.0494 -0.0498
 4225W        W20699  16.034   9.144  11.356 -0.2562 -0.1574  0.1802
 4226W        W20700   9.289   3.905   4.329 -0.1103 -0.3206  0.1058
 4227W        W20701  10.317   6.472   2.174  0.1172  0.1817 -0.0780
 4228W        W20702   6.459  16.427   4.079  0.3089 -0.1646 -0.1129
 4229W        W20703  12.281   4.082   0.580 -0.1511 -0.2690  0.2234
 4230W        W20704   7.618   9.260   0.483  0.2151 -0.0513 -0.0797
 4231W        W20705   6.158  14.745  13.408  0.3385  0.1085 -0.0966
 4232W        W20706  13.564   6.130  10.950  0.0887  0.0207 -0.1218
 4233W        W20707   6.367  18.404  14.270  0.2173  0.2794 -0.3411
 4234W        W20708  14.360   4.155   1.996  0.5367 -0.1664  0.2430
 4235W        W20709  17.241   1.704  12.052 -0.1199  0.0324  0.1530
 4236W        W20710  17.145   7.969   0.807  0.1741  0.0120 -0.0445
 4237W        W20711   9.235  17.871   4.399  0.2570  0.0947 -0.2925
 4238W        W20712  14.789   7.865  14.523  0.0673  0.0273  0.1823
 4239W        W20713   3.292  13.538   5.017 -0.1002  0.2570 -0.1205
 4240W        W20714   1.705  15.133  11.467  0.0754  0.2053  0.1185
 4241W        W20715   0.762  18.628  11.472 -0.1426  0.0624 -0.1905
 4242W        W20716   9.258  12.378  14.957 -0.2347 -0.0646 -0.0419
 4243W        W20717   1.633  17.375   2.298 -0.1767  0.2156 -0.0698
 4244W        W20718  10.305  14.572   2.388 -0.3207  0.0531 -0.0975
 4245W        W20719   2.274   1.893  14.744  0.5015  0.0861  0.1900
 4246W        W20720  16.572  12.139  15.562  0.1664  0.2605  0.4038
 4247W        W20721  12.110   5.678   0.579  0.4992  0.1528 -0.0394
 4248W        W20722   4.231   8.753   2.617  0.1242 -0.1296  0.1830
 4249W        W20723   5.095   9.127   1.575  0.0863  0.1077  0.1610
 4250W        W20724   7.566   8.183   3.181  0.1176 -0.1119 -0.0110
 4251W        W20725  15.255   7.555   0.634 -0.0344  0.1963 -0.0199
 4252W        W20726   4.739   1.633  14.798  0.3136  0.4488 -0.0746
 4253W        W20727  16.668   8.285  12.340 -0.0104  0.1240  0.0552
 4254W        W20728   6.282  13.638   2.579  0.2362 -0.1585  0.2425
 4255W        W20729   9.208   4.394   2.184 -0.0871 -0.0310  0.1897
 4256W        W20730  17.288  14.680  11.714 -0.2253 -0.0594  0.0066
 4257W        W20731   8.157   0.586  13.739  0.2673 -0.1636  0.0044
 4258W        W20732   2.907  17.036  11.001 -0.0431 -0.1678 -0.1870
 4259W        W20733   7.885  11.594   3.295 -0.1194  0.0609 -0.2223
 4260W        W20734   4.002   9.342  12.268 -0.0576  0.0073  0.0363
 4261W        W20735  16.391  16.384  14.824 -0.1549 -0.0753  0.0142
 4262W        W20736   2.024   6.110   0.712  0.1431  0.0085  0.0890
 4263W        W20737  14.198   8.746  15.258  0.2284  0.2604 -0.2082
 4264W        W20738   4.020   8.148   1.260 -0.0860 -0.0630 -0.0662
 4265W        W20739   0.550  14.850   3.341  0.1680  0.5973  0.0706
 4266W        W20740   0.533  17.600   3.970  0.3768 -0.0053  0.2134
 4267W        W20741   5.834  10.958  13.193 -0.4333  0.0474 -0.1328
 4268W        W20742  10.757   7.173   5.344  0.2523  0.2438  0.2571
 4269W        W20743  11.490   6.095  14.013  0.2865 -0.1907  0.0849
 4270W        W20744  18.205  17.573   0.026 -0.0459  0.0625  0.2732
 4271W        W20745   7.783   9.044  15.047  0.4316 -0.1900  0.1926
 4272W        W20746  14.961  17.255   1.955  0.0544 -0.0287  0.0933
 4273W        W20747  12.583   9.552  13.035  0.2784  0.1404 -0.1046
 4274W        W20748   6.407  17.011  14.690 -0.1046 -0.1106 -0.1821
 4275W        W20749  13.808  11.388   3.748  0.4031 -0.1243 -0.1747
 4276W        W20750   7.822  11.953  14.480  0.1573 -0.0820 -0.0010
 4277W        W20751  17.171   8.252  15.577 -0.1628 -0.4078  0.1243
 4278W        W20752   5.604  14.974   4.477  0.1651 -0.3081  0.2461
 4279W        W20753  13.467  11.426  13.349 -0.1807  0.1958  0.2809
 4280W        W20754   0.584   2.974  12.191  0.1552  0.0229 -0.0016
 4281W        W20755  10.855  16.083   1.632  0.0616  0.0777 -0.3040
 4282W        W20756  10.326  17.556  10.986  0.1440 -0.0079  0.3097
 4283W        W20757   0.508   2.213   4.155  0.0406  0.3133  0.0633
 4284W        W20758   3.405   9.004   3.377 -0.1064 -0.1783 -0.2075
 4285W        W20759   9.206  14.534   2.232 -0.3361  0.1484 -0.0445
 4286W        W20760  13.731   9.085  13.641 -0.2019 -0.0447  0.3135
 4287W        W20761   8.513  11.338   3.327  0.1694  0.0908  0.0393
 4288W        W20762   3.123   7.011  13.595  0.2997  0.0424  0.2322
 4289W        W20763   1.718  14.954  12.523 -0.1307  0.0332  0.0659
 4290W        W20764  14.020   1.245   1.546  0.2550 -0.0122 -0.1379
 4291W        W20765  18.366   4.963  14.770 -0.2689 -0.2804  0.2618
 4292W        W20766   7.080   8.502   3.370 -0.1024 -0.0130 -0.1668
 4293W        W20767   1.059   7.674   0.829 -0.0424  0.1893  0.1497
 4294W        W20768  16.860   1.747  13.097 -0.1903 -0.0545  0.2143
 4295W        W20769   6.157  14.172   3.022 -0.2660  0.2245  0.0816
 4296W        W20770  10.176  16.414   1.883 -0.3952  0.0153  0.0972
 4297W        W20771   4.228   8.053  14.164 -0.2314 -0.0893 -0.1070
 4298W        W20772  10.946   8.859  10.816 -0.2251  0.1937 -0.0610
 4299W        W20773   6.255  15.655  14.009  0.0139 -0.1401  0.1032
 4300W        W20774   6.605   7.420   0.816  0.0757 -0.0105 -0.3046
 4301W        W20775  13.927   6.563   4.090 -0.0341 -0.1411  0.0958
 4302W        W20776   4.889  11.313  14.923  0.1295  0.2165 -0.3263
 4303W        W20777  13.478  13.475   1.495  0.0290  0.0634  0.3151
 4304W        W20778   8.764   2.121   0.787 -0.2654  0.1925 -0.0339
 4305W        W20779   7.678   5.700  13.475  0.1279 -0.2409 -0.0555
 4306W        W20780  16.683  15.899  13.868  0.1117 -0.1722  0.2546
 4307W        W20781  17.036   2.141   1.998 -0.1318  0.0861 -0.2088
 4308W        W20782  11.048   4.967   0.013 -0.1036  0.1290 -0.0209
 4309W        W20783   6.366   3.633   5.008 -0.0938  0.3254  0.0728
 4310W        W20784   2.618   6.689  14.307 -0.0557  0.4275  0.0303
 4311W        W20785   4.902   9.492  11.060 -0.0338  0.2394  0.3571
 4312W        W20786  14.173   2.617   1.552 -0.2501 -0.0349  0.0748
 4313W        W20787   1.211  12.311  12.866 -0.3618 -0.1978 -0.0690
 4314W        W20788   9.050  10.647  12.017 -0.1185 -0.0779 -0.1058
 4315W        W20789  15.317  15.985  13.107 -0.1753 -0.0788  0.0124
 4316W        W20790   2.715  18.215  13.381  0.0895  0.0546  0.0243
 4317W        W20791   9.922   0.218  14.181  0.0703 -0.2188 -0.1136
 4318W        W20792   1.100   8.587  12.852  0.0041 -0.0644  0.2859
 4319W        W20793  15.797   1.764  14.963 -0.3304 -0.0850 -0.1813
 4320W        W20794   1.386   0.409  10.954  0.2255  0.3446 -0.1407
 4321W        W20795   1.356  13.936  11.613  0.2008  0.1661  0.3172
 4322W        W20796  10.171   2.796   4.538 -0.0470 -0.0226 -0.2522
 4323W        W20797   6.558  17.042  13.668  0.0254 -0.2103 -0.5738
 4324W        W20798  12.250  17.726   3.957  0.0336 -0.0149 -0.0212
 4325W        W20799   6.033   6.351  11.180 -0.1893 -0.1138 -0.0458
 4326W        W20800   3.036   8.854  11.756  0.2554  0.5640 -0.0809
 4327W        W20801   3.352  12.806   0.806 -0.2285  0.3183 -0.0583
 4328W        W20802   2.624   4.731  14.771  0.1439  0.0276  0.0482
 4329W        W20803  15.134   0.828  12.135  0.0316  0.0625 -0.1510
 4330W        W20804  10.835  13.118   0.429  0.1375 -0.0924  0.1662
 4331W        W20805  18.631  13.045   1.904  0.2867  0.0609  0.1072
 4332W        W20806   7.570   3.166  11.343  0.0206 -0.2377 -0.3282
 4333W        W20807  17.407  12.658   2.838 -0.4140 -0.0813  0.1651
 4334W        W20808   0.464   7.696  11.821  0.2561 -0.2000 -0.0707
 4335W        W20809  18.544  18.568  12.383  0.3824 -0.4373 -0.0150
 4336W        W20810  16.195  10.632  11.342  0.1755 -0.1506 -0.1389
 4337W        W20811  16.533   5.749  11.495  0.0061 -0.1782 -0.0149
 4338W        W20812  15.237  13.145   2.391 -0.2281  0.2089  0.3231
 4339W        W20813   0.084  16.101   0.751  0.0093  0.0867 -0.1047
 4340W        W20814  11.782  15.735  13.382 -0.0025  0.0740  0.2919
 4341W        W20815  13.352  15.628   2.993  0.0093 -0.1255 -0.0431
 4342W        W20816   1.966  18.659   0.349  0.1983  0.1709 -0.1829
 4343W        W20817   8.756   7.720   1.289  0.2202  0.4118  0.2625
 4344W        W20818  18.434   4.369   2.908  0.0069  0.1968 -0.2261
 4345W        W20819   0.186   9.177   1.174 -0.2441  0.2543 -0.0158
 4346W        W20820  12.077   2.397   4.859  0.1547  0.3329 -0.0195
 4347W        W20821  18.438   2.410  13.653 -0.2501  0.2953 -0.0268
 4348W        W20822  14.015   5.746   5.217  0.3365 -0.1452 -0.1482
 4349W        W20823  16.015   5.110  10.949  0.1009  0.1237 -0.2267
 4350W        W20824   2.576   1.674   1.841 -0.0764 -0.1538 -0.1308
 4351W        W20825   5.445  11.352   5.001 -0.1136 -0.2499  0.1898
 4352W        W20826   2.368  15.023  10.216 -0.0445 -0.3554  0.1196
 4353W        W20827  14.898   0.191   0.275  0.0479 -0.3351  0.0772
 4354W        W20828  10.758  18.591   2.071 -0.1288  0.0951 -0.2118
 4355W        W20829  16.679   4.154  15.590 -0.0908  0.1020  0.2206
 4356W        W20830  15.068  15.937   0.918 -0.2848  0.1153  0.2488
 4357W        W20831  12.143  15.826  15.046  0.1058  0.0569  0.0495
 4358W        W20832  17.326   6.736   2.399 -0.0555  0.0395  0.1142
 4359W        W20833   6.203   9.294   3.323 -0.1259  0.0805  0.1045
 4360W        W20834   3.439  14.435  10.686 -0.1394  0.2807 -0.1938
 4361W        W20835  13.992   2.605  13.660  0.0186 -0.0665 -0.2733
 4362W        W20836   8.595   2.282  15.616  0.2131 -0.0181  0.2006
 4363W        W20837   2.645   6.236  13.498 -0.4191 -0.1163 -0.1164
 4364W        W20838   7.629  12.549   3.608 -0.1084  0.4807  0.0971
 4365W        W20839   9.922   4.901   4.649 -0.3365 -0.3933  0.0930
 4366W        W20840   7.206  15.056   2.976  0.1619 -0.1256 -0.5115
 4367W        W20841   9.600   1.448  11.556  0.0597  0.1454 -0.0874
 4368W        W20842  18.100   4.769   2.106  0.1825 -0.0196 -0.3182
 4369W        W20843   1.825   4.372  12.251  0.0204  0.0161 -0.1105
 4370W        W20844   9.295   6.059   1.518  0.0643 -0.1115  0.0259
 4371W        W20845  11.445   6.215  12.106 -0.1999 -0.0554 -0.3152
 4372W        W20846  12.918   6.050  12.117  0.1718 -0.1946 -0.0470
 4373W        W20847   2.668  17.752   3.808  0.1438 -0.1706 -0.5039
 4374W        W20848  10.857   9.895   1.339 -0.1895 -0.3073 -0.0058
 4375W        W20849  13.323  16.619  14.769  0.1412  0.2579 -0.1056
 4376W        W20850   8.959  11.532  13.726  0.0560 -0.2673 -0.5010
 4377W        W20851   2.617   6.258  11.956  0.1880 -0.1347  0.1422
 4378W        W20852  13.160  12.185  15.560  0.4089 -0.1676 -0.0383
 4379W        W20853  16.853   7.435  15.152  0.0670  0.1790 -0.1593
 4380W        W20854  18.576   5.495   4.215 -0.0598 -0.1624 -0.2540
 4381W        W20855  16.993   9.245   4.570  0.1385  0.3168  0.0044
 4382W        W20856   4.644   0.427  11.567  0.2971  0.0026  0.1334
 4383W        W20857  10.550   1.212   1.306 -0.0676 -0.1212 -0.0772
 4384W        W20858   7.835  17.993   1.323 -0.4118  0.1151 -0.0832
 4385W        W20859  13.318   1.801   4.529 -0.0691  0.3009 -0.3028
 4386W        W20860   8.105   3.554  14.069  0.0974  0.2465  0.1864
 4387W        W20861  17.535   6.051  11.433  0.0196 -0.0014 -0.0506
 4388W        W20862  12.445  13.518   3.549  0.5887  0.3005 -0.0190
 4389W        W20863  13.944  11.279  13.561 -0.0141 -0.0837  0.2011
 4390W        W20864  11.720   5.781   2.329  0.2850  0.1527 -0.2019
 4391W        W20865   3.172   7.088  11.868 -0.3788  0.1573 -0.2755
 4392W        W20866  16.572   5.750  10.553 -0.2441  0.2272 -0.2057
 4393W        W20867  13.131   7.509  14.260  0.2692  0.1215 -0.0697
 4394W        W20868  15.778   6.024  11.113 -0.1721 -0.0325 -0.0456
 4395W        W20869   9.685  15.006  12.673  0.2499 -0.1007  0.0136
 4396W        W20870   6.864   1.142   4.112  0.2542 -0.2142 -0.0747
 4397W        W20871  18.090   6.108   1.657  0.0932  0.1386  0.1306
 4398W        W20872  16.050   5.359   4.413 -0.1889 -0.2036 -0.2998
 4399W        W20873  14.446   9.419   2.681  0.2608 -0.0459 -0.1212
 4400W        W20874  14.629   4.009  12.401  0.2824  0.1333  0.0876
 4401W        W20875  10.828  11.938  10.919 -0.1149 -0.0449  0.0495
 4402W        W20876  13.163   2.964   1.003 -0.0410  0.2107 -0.1216
 4403W        W20877  11.953   9.104   2.804 -0.3074 -0.0142  0.1226
 4404W        W20878  17.950   4.657   0.977  0.2398 -0.0624  0.0505
 4405W        W20879   5.913   1.911   0.251  0.3270 -0.0315 -0.2724
 4406W        W20880   7.463   3.788   0.443 -0.1782 -0.2647 -0.1873
 4407W        W20881  12.252   4.925  14.981 -0.0514  0.3290 -0.1286
 4408W        W20882  15.253   9.408   2.565  0.4402  0.1609  0.1265
 4409W        W20883   4.657  14.082   4.237 -0.1087 -0.2526 -0.0031
 4410W        W20884   3.342   9.946  13.258 -0.1914 -0.2186 -0.1089
 4411W        W20885  16.485  16.126  12.337  0.0207 -0.1340 -0.4471
 4412W        W20886  15.453   1.961  12.816 -0.0195 -0.0653 -0.0920
 4413W        W20887   4.498   3.831   4.352 -0.2486  0.1883 -0.0177
 4414W        W20888  10.073  13.612   0.716  0.0256  0.2911 -0.0439
 4415W        W20889  12.743   1.303   2.899 -0.0400 -0.0530  0.1600
 4416W        W20890  16.723  11.888   3.670 -0.1784 -0.0241 -0.0651
 4417W        W20891  11.075   1.090   4.901  0.2765  0.0124 -0.3292
 4418W        W20892  16.964  14.090   5.639 -0.2082  0.3078  0.1216
 4419W        W20893   1.204  11.527  13.393  0.2339 -0.0230 -0.1056
 4420W        W20894   2.913   6.214   3.412 -0.3956 -0.0033  0.2085
 4421W        W20895   3.961   1.051  14.510  0.1939  0.3169 -0.0527
 4422W        W20896  18.821   5.830   3.960  0.1004  0.2284 -0.0803
 4423W        W20897   3.521  11.963  13.830  0.2339  0.1075 -0.3615
 4424W        W20898   0.581   4.964   3.019 -0.3762  0.0129 -0.3644
 4425W        W20899   6.339   1.798   2.769 -0.2035  0.2532 -0.1018
 4426W        W20900   7.670  14.084   3.205  0.1749 -0.4340  0.0131
 4427W        W20901  14.240   9.849  11.032 -0.3997 -0.1336 -0.2141
 4428W        W20902  15.497  17.648  10.679 -0.0785  0.1233 -0.1429
 4429W        W20903  14.149  15.943  13.969  0.0777  0.0250 -0.0354
 4430W        W20904   3.460  13.344   1.710 -0.0423 -0.1058 -0.2104
 4431W        W20905   9.086   2.272  13.459  0.2459  0.1700 -0.2820
 4432W        W20906   7.633  12.281   3.031  0.0707 -0.0712 -0.0045
 4433W        W20907   8.342   5.275   0.925 -0.0338  0.0024  0.2198
 4434W        W20908  12.457   7.523  12.908 -0.0324  0.2391  0.0107
 4435W        W20909   6.374   5.499  12.260 -0.0602  0.0073  0.1944
 4436W        W20910  15.102  11.896   4.820 -0.3536 -0.1693  0.2462
 4437W        W20911   7.051   3.261   1.023 -0.1260  0.4248 -0.1976
 4438W        W20912  16.384   8.936   0.089  0.0013  0.2457  0.2155
 4439W        W20913  18.546   8.913   1.413  0.1175 -0.3155  0.3651
 4440W        W20914   7.097  10.724  13.082  0.1203 -0.2008  0.0440
 4441W        W20915   5.742   5.726   3.923  0.0963 -0.0908 -0.2555
 4442W        W20916   8.010  13.711  14.569 -0.0431 -0.2336  0.0328
 4443W        W20917   7.942   4.030  13.784 -0.0379 -0.1826 -0.0634
 4444W        W20918  10.229   3.603  13.955 -0.2349  0.0587  0.1399
 4445W        W20919   2.354  16.503  15.072  0.1030  0.0196 -0.0359
 4446W        W20920   4.454   3.601   3.734  0.2541  0.3147  0.0423
 4447W        W20921  10.540   2.903   0.107 -0.1991  0.0784 -0.2972
 4448W        W20922  18.328   0.746   0.122  0.0139 -0.1751 -0.2235
 4449W        W20923  10.005   8.066   5.083  0.2012  0.0964  0.1864
 4450W        W20924   4.046   0.196  15.530  0.2162  0.0617 -0.2014
 4451W        W20925   1.772  14.444  12.448 -0.1368  0.1737 -0.1136
 4452W        W20926  16.151   8.616   2.208 -0.2998 -0.1561 -0.1981
 4453W        W20927   9.150   5.137  13.755  0.2532 -0.0217 -0.5781
 4454W        W20928  15.144  14.531  11.749  0.0609  0.0351  0.1326
 4455W        W20929  14.765  15.976  12.862  0.1275 -0.0854  0.4356
 4456W        W20930  13.311   7.525   0.265  0.0278 -0.0598  0.2515
 4457W        W20931   4.148   5.717   2.058 -0.2623 -0.3026  0.0319
 4458W        W20932  13.025  14.284   4.010  0.0405  0.0069  0.1294
 4459W        W20933   7.405   4.021   3.125  0.2035  0.1490  0.0548
 4460W        W20934   1.220  12.512  15.097 -0.4863 -0.3391  0.0705
 4461W        W20935  11.988   4.008  11.498  0.3011 -0.0477 -0.3522
 4462W        W20936  16.252   6.898  12.435 -0.2458 -0.3105  0.6687
 4463W        W20937  12.315  11.827  13.543  0.0167 -0.1317  0.1106
 4464W        W20938   3.169  10.333   3.140 -0.1200 -0.0210  0.1381
 4465W        W20939  17.736   9.373   4.127  0.2270 -0.0927  0.1745
 4466W        W20940   9.605   1.922  13.996 -0.1415 -0.0989 -0.1027
 4467W        W20941   4.350  11.771  15.109  0.0766  0.1505  0.0448
 4468W        W20942   3.388  17.541  13.446 -0.0568 -0.1483  0.0631
 4469W        W20943  15.363  14.372   1.408  0.0372 -0.0097 -0.2137
 4470W        W20944  18.168  13.656  10.306 -0.0537 -0.2269  0.1761
 4471W        W20945   9.906  17.428  14.037  0.1858  0.2721  0.0671
 4472W        W20946   2.882  18.521  12.563  0.0127 -0.0008  0.0329
 4473W        W20947  15.168  18.794  13.526 -0.3380  0.1944 -0.1082
 4474W        W20948   1.325   1.096  14.273  0.0785 -0.0482  0.2187
 4475W        W20949  11.696  14.292   0.941  0.0025  0.0088 -0.0420
 4476W        W20950  17.780   0.034   0.694  0.1935 -0.2567 -0.0165
 4477W        W20951   1.073  10.043  11.925 -0.2716  0.0940 -0.0235
 4478W        W20952  15.253   0.601   2.639  0.4578 -0.1528  0.2028
 4479W        W20953  13.370   4.982   5.875  0.1165 -0.1552 -0.2665
 4480W        W20954   7.045  16.650   0.267  0.2509  0.1158  0.1975
 4481W        W20955  17.221   2.145  11.166  0.1983 -0.2262  0.0512
 4482W        W20956   1.030   7.116  11.225 -0.3331 -0.0349  0.1310
 4483W        W20957   4.983  18.453   1.874 -0.0462  0.0745  0.4631
 4484W        W20958   9.252  18.792  14.385  0.2076  0.1048  0.0119
 4485W        W20959   8.687  11.915   0.917 -0.3164 -0.0526 -0.2108
 4486W        W20960  14.274  16.358  13.688  0.0841 -0.1386 -0.3338
 4487W        W20961   3.925   8.956   0.881 -0.2124 -0.1325  0.1459
 4488W        W20962   2.224   8.075   3.056 -0.2458 -0.0794  0.1272
 4489W        W20963  16.939   3.225   9.983 -0.3759  0.1100 -0.1841
 4490W        W20964  12.182  12.237   2.996  0.3243  0.1642 -0.0451
 4491W        W20965   2.131   2.930   4.981  0.4087  0.3002  0.2703
 4492W        W20966   1.600   4.819   0.014 -0.0393 -0.0287  0.0144
 4493W        W20967   4.843   7.355   4.647  0.0179  0.1292 -0.0433
 4494W        W20968  14.715  12.639   3.510  0.2520  0.0684 -0.0429
 4495W        W20969   9.072   1.861   3.337 -0.3969 -0.2650 -0.2382
 4496W        W20970  17.316   7.868   1.623  0.0214 -0.1047 -0.1107
 4497W        W20971   8.019   6.788  14.807  0.2747 -0.0394  0.0759
 4498W        W20972  12.908   6.613   4.994  0.0948  0.3277  0.0600
 4499W        W20973  15.322  17.058   5.197 -0.3017  0.2180 -0.0920
 4500W        W20974  16.305  10.543   3.043  0.1039  0.0774  0.1956
 4501W        W20975  14.598  16.168   0.930  0.1737  0.0279  0.1915
 4502W        W20976  18.219  14.394  13.787  0.0671 -0.1233 -0.1260
 4503W        W20977   1.276  10.291   1.882  0.3410  0.1189 -0.0523
 4504W        W20978  12.122  13.306  11.161  0.0058  0.1387 -0.0453
 4505W        W20979   7.338  15.213   0.327  0.0320 -0.0311  0.0836
 4506W        W20980   2.222   3.824  14.058  0.0495  0.0490  0.4157
 4507W        W20981   5.615   8.122  11.789 -0.0629 -0.0071 -0.2561
 4508W        W20982  10.546  13.502   2.285 -0.3793  0.0627  0.0543
 4509W        W20983  14.919  16.432   0.061 -0.1506  0.1439  0.1477
 4510W        W20984   6.200  13.379  13.789 -0.3498 -0.3510 -0.0524
 4511W        W20985   8.808   1.646   5.118 -0.0856  0.0846  0.0229
 4512W        W20986  17.102  11.197  12.441 -0.0090 -0.2537  0.3050
 4513W        W20987  11.348  10.230  12.886  0.0613  0.0551 -0.0419
 4514W        W20988   4.904   5.929   0.397 -0.1818  0.1407 -0.1221
 4515W        W20989   7.678   6.328   3.284 -0.0089  0.1412  0.0097
 4516W        W20990  14.072   9.561   4.533  0.0576  0.0364  0.1067
 4517W        W20991   5.246   0.831   3.617 -0.0802 -0.1646  0.1063
 4518W        W20992   3.629   6.846  11.510 -0.2098 -0.0821  0.0560
 4519W        W20993   0.954   3.012  13.705 -0.0358  0.1627 -0.1389
 4520W        W20994  17.555   0.627  12.852  0.0658 -0.0783  0.0003
 4521W        W20995   1.520   9.808  10.759  0.0537  0.0691  0.0528
 4522W        W20996   2.328   9.579   2.536  0.0027 -0.2680  0.2906
 4523W        W20997  14.142  18.256   1.699 -0.0604  0.1278  0.2732
 4524W        W20998   6.256   5.143   5.292  0.2028 -0.0565 -0.2071
 4525W        W20999   7.755  11.808  15.366  0.2459 -0.3129 -0.0565
 4526W        W21000   3.963   0.769  12.610 -0.0905  0.2329  0.0825
 4527W        W21001  11.174   4.428  12.201 -0.2513 -0.0873  0.0876
 4528W        W21002   1.918  17.294   4.305  0.0916  0.1167  0.1165
 4529W        W21003  15.534  12.973   2.006  0.1950 -0.2024 -0.1806
 4530W        W21004   2.267   4.006   5.125  0.1325  0.2133 -0.1127
 4531W        W21005   5.366  12.382   5.166 -0.0890  0.1128 -0.3330
 4532W        W21006   1.645  13.300   1.057 -0.0633 -0.1501  0.2542
 4533W        W21007   3.623  18.444   5.690 -0.0674  0.0056  0.0254
 4534W        W21008  11.220   0.472  12.877  0.1392 -0.1548  0.1295
 4535W        W21009   5.767  10.281  13.228 -0.0314 -0.6067 -0.2686
 4536W        W21010   5.423  17.109  15.216  0.0011 -0.0253  0.1933
 4537W        W21011  18.021  10.030   4.587 -0.2080 -0.1473  0.1120
 4538W        W21012  14.868   4.880   3.752 -0.1470 -0.4096  0.1280
 4539W        W21013   6.723  10.149   0.662 -0.0416  0.4734  0.4048
 4540W        W21014   3.054   5.996   5.179  0.2438  0.0633 -0.1325
 4541W        W21015  11.519   1.357   4.288  0.0612  0.0505 -0.0073
 4542W        W21016  10.238  13.025  12.844 -0.0031  0.1637 -0.0482
 4543W        W21017  12.798   0.195   3.244 -0.1647 -0.1830 -0.0678
 4544W        W21018  15.361  16.763  14.482  0.0421  0.3602 -0.1360
 4545W        W21019   3.208   1.932   4.355 -0.0874  0.2070 -0.2634
 4546W        W21020  13.531   8.279  13.205  0.2170 -0.0187  0.1686
 4547W        W21021   8.146  12.835   0.897 -0.0800  0.0381 -0.0168
 4548W        W21022   6.479  12.369  15.479  0.1590 -0.5281 -0.2221
 4549W        W21023   2.095   2.998  12.194  0.2612  0.0613 -0.0440
 4550W        W21024  16.189   8.163  12.538 -0.1607  0.0081 -0.4288
 4551W        W21025  12.697   6.378   2.673  0.0864  0.1740 -0.0332
 4552W        W21026   0.284   7.755   3.429  0.1238  0.1285 -0.0289
 4553W        W21027   0.049  16.819  13.488  0.0178 -0.1912 -0.1387
 4554W        W21028   9.008  11.165  11.401 -0.1696  0.1819 -0.1287
 4555W        W21029  14.512  10.641   3.121  0.0677 -0.0976 -0.0521
 4556W        W21030  18.846   7.425   3.260  0.0050  0.1947 -0.1740
 4557W        W21031   7.589   0.379  11.455 -0.1232 -0.0636 -0.2433
 4558W        W21032  17.169  11.457  14.387 -0.1452  0.0831  0.0416
 4559W        W21033   2.494   9.777   5.597  0.2559 -0.2179  0.0402
 4560W        W21034  18.792  15.615  13.321  0.3384  0.2501  0.3199
 4561W        W21035   7.972  11.123   2.630 -0.2738 -0.0643  0.2682
 4562W        W21036   3.553  10.139  11.958 -0.2898 -0.3902 -0.0358
 4563W        W21037   9.921   8.701   4.365  0.1646 -0.1970  0.1175
 4564W        W21038  13.897   8.211  11.788 -0.0821 -0.0819  0.0975
 4565W        W21039  11.107  18.087   0.612 -0.3371 -0.0495 -0.1074
 4566W        W21040   7.690  16.548   5.512  0.1560 -0.3009 -0.2651
 4567W        W21041  16.110   9.872   0.434  0.2582 -0.0481  0.2242
 4568W        W21042  12.755   5.610  15.519  0.0599  0.0084 -0.0801
 4569W        W21043   8.361   8.763  15.217  0.0088  0.1751 -0.0983
 4570W        W21044  17.465   9.738  13.621  0.0500 -0.0168  0.1050
 4571W        W21045   1.931  12.613  12.805  0.2532  0.1415 -0.1921
 4572W        W21046  18.297   3.339   1.484  0.1430 -0.1127 -0.2112
 4573W        W21047   3.631   0.493   4.325 -0.0347 -0.1255  0.0730
 4574W        W21048   0.951  13.300   9.791  0.2977 -0.0290 -0.0239
 4575W        W21049  18.595   8.872   4.066 -0.1390  0.2692  0.1585
 4576W        W21050   8.503   7.452  12.242 -0.2049  0.1795 -0.2356
 4577W        W21051   9.499   9.729   3.339 -0.0707 -0.0415 -0.0614
 4578W        W21052   7.416   3.698   0.973 -0.0218 -0.1801 -0.0482
 4579W        W21053  16.303   8.257   9.797 -0.0110  0.3765 -0.0000
 4580W        W21054  17.342  18.593   2.025 -0.3420  0.1842  0.0272
 4581W        W21055  14.752   0.530  13.405  0.2000 -0.0131  0.0396
 4582W        W21056  12.625   4.600  11.121  0.3786 -0.3119  0.1648
 4583W        W21057   5.137  10.476   4.364  0.2410 -0.0903 -0.2191
 4584W        W21058  13.553   3.039   2.973 -0.3252 -0.0394 -0.1569
 4585W        W21059   8.773   4.695  12.496 -0.0112  0.3266 -0.0833
 4586W        W21060  11.466   4.900   4.882  0.1332  0.0688 -0.0985
 4587W        W21061  16.054   7.256  12.148  0.2406 -0.0434  0.1293
 4588W        W21062   0.293   8.382  14.752 -0.0485  0.0419 -0.1698
 4589W        W21063  15.574  11.985   2.586  0.0249 -0.2980 -0.0869
 4590W        W21064  10.294   0.802  11.510 -0.3368  0.0795  0.2597
 4591W        W21065  13.155  18.807   4.020 -0.3214  0.0273 -0.0572
 4592W        W21066   8.538  13.406   2.275 -0.0581 -0.0917  0.1665
 4593W        W21067  17.856   7.738   1.632 -0.0891  0.2304 -0.0725
 4594W        W21068  10.442  11.702   0.125 -0.1995 -0.1765 -0.2042
 4595W        W21069  14.887  14.652  12.240  0.0692 -0.0104  0.0797
 4596W        W21070   7.890  12.846  12.276 -0.0499 -0.3144  0.1801
 4597W        W21071  10.047  17.703  12.323 -0.2726 -0.1957  0.3178
 4598W        W21072   0.579   4.674   3.727 -0.0310 -0.2720 -0.0052
 4599W        W21073  13.599  13.122  14.565  0.1563  0.0989  0.0188
 4600W        W21074   8.034   4.693  14.681  0.1386  0.2983  0.0936
 4601W        W21075   9.526  17.406  14.554  0.1887  0.0023  0.1349
 4602W        W21076  17.862   6.867   3.799  0.2842 -0.0377 -0.0615
 4603W        W21077  17.606   1.136   3.659 -0.1629  0.4643  0.0748
 4604W        W21078   6.544   3.912  13.882  0.2975  0.1481  0.0519
 4605W        W21079  14.411   6.004   4.974 -0.0138  0.1657 -0.0559
 4606W        W21080   1.208  18.241  12.724 -0.5073 -0.0551 -0.1116
 4607W        W21081  16.445   5.437  14.180 -0.1877 -0.2127  0.2407
 4608W        W21082  18.414  17.108   0.006  0.3901 -0.0134 -0.1802
 4609W        W21083   2.808   2.599  14.833  0.2169 -0.0504  0.0545
 4610W        W21084   1.217   6.349   3.760 -0.0152  0.0833  0.1971
 4611W        W21085   8.867  16.803   5.099 -0.0765  0.2181 -0.0275
 4612W        W21086  14.922  18.453  12.807 -0.1945 -0.2782 -0.1614
 4613W        W21087  15.789  18.573   1.807 -0.0710  0.1240  0.1882
 4614W        W21088   7.865  18.454   5.255  0.0413 -0.1707 -0.2004
 4615W        W21089   6.117  10.519  12.294  0.2191  0.0820  0.0746
 4616W        W21090  15.528   1.385   2.732  0.0473  0.0862  0.0436
 4617W        W21091   0.922  18.463  11.918 -0.3347 -0.0043 -0.1090
 4618W        W21092   0.767  10.209   1.858 -0.1837  0.0483 -0.0672
 4619W        W21093   6.867  16.638  12.588 -0.2830 -0.3512  0.0891
 4620W        W21094  15.983   4.435   1.202  0.3320  0.0906  0.1062
 4621W        W21095   6.253   6.320   4.603 -0.1926  0.2585 -0.0326
 4622W        W21096  17.679  16.597   1.616 -0.0343  0.1243  0.1877
 4623W        W21097   3.048  17.522  12.990  0.1459 -0.2958 -0.0715
 4624W        W21098   0.136   4.303   2.431  0.0657 -0.0266 -0.0670
 4625W        W21099   2.746  11.379   1.307  0.0353 -0.3120 -0.0048
 4626W        W21100   9.982   0.682  14.589 -0.1678 -0.2600 -0.3264
 4627W        W21101   2.551  17.085   0.804 -0.0082 -0.1557  0.3016
 4628W        W21102  15.524  16.215  11.372 -0.2276  0.0064 -0.3161
 4629W        W21103  17.543  11.310   3.492  0.1758 -0.1572  0.0101
 4630W        W21104   6.406  11.489  13.746  0.0566  0.0453 -0.0573
 4631W        W21105   9.492   6.848  12.024  0.2022 -0.0233 -0.0570
 4632W        W21106   5.502  16.044  13.498 -0.0239 -0.2167  0.0270
 4633W        W21107   1.455  13.055  11.401  0.2389 -0.3137  0.1127
 4634W        W21108   5.314  17.508  14.741  0.1581 -0.1060 -0.4891
 4635W        W21109   5.390  13.871  15.619  0.2711 -0.0232 -0.0877
 4636W        W21110   9.916   2.197  11.184  0.1851 -0.0596 -0.1498
 4637W        W21111   1.912   0.260  13.596 -0.0145  0.2524 -0.1896
 4638W        W21112  12.611  16.110   3.355 -0.1175  0.0981 -0.1347
 4639W        W21113  15.025  15.235  13.477 -0.0690  0.1846  0.0184
 4640W        W21114   6.239  10.361   3.675  0.2296 -0.3259  0.1609
 4641W        W21115  18.123  16.954   1.699  0.0546  0.3939  0.1676
 4642W        W21116  16.573  14.035   3.714  0.1254 -0.1024 -0.0018
 4643W        W21117   4.813  16.829  12.746  0.1334 -0.1498  0.1151
 4644W        W21118   1.459   7.312   0.097 -0.1894 -0.2004 -0.0329
 4645W        W21119  13.686  11.015   3.064 -0.2581  0.0893  0.1008
 4646W        W21120   0.869  13.683   0.807  0.2211  0.0934  0.2908
 4647W        W21121  12.117  17.357   0.063  0.0218 -0.1972 -0.1775
 4648W        W21122   1.291  17.432   3.414 -0.3084  0.2805  0.0682
 4649W        W21123  16.681   4.265   5.354 -0.4717  0.0673 -0.2056
 4650W        W21124  11.911   6.871  13.948  0.0273 -0.0221  0.1497
 4651W        W21125   5.856   0.201  12.946 -0.3377  0.3235  0.2458
 4652W        W21126   1.795  16.666   1.467  0.1244  0.2382  0.0794
 4653W        W21127   7.064   8.854   4.390  0.0891 -0.1459  0.1947
 4654W        W21128  12.952  13.952  15.159 -0.2016 -0.1307  0.1999
 4655W        W21129   8.587  14.890  12.749 -0.2266 -0.0869 -0.0079
 4656W        W21130   7.856  15.846  11.467 -0.0588 -0.1810 -0.0041
 4657W        W21131  13.454   2.668  11.147  0.0571  0.1409  0.1697
 4658W        W21132  17.443   7.317   1.608  0.1931 -0.3012 -0.2999
 4659W        W21133   1.539  13.549   2.414 -0.1242 -0.3242  0.0261
 4660W        W21134  17.775  18.111  12.817 -0.0528 -0.0433 -0.2789
 4661W        W21135  13.538   0.190  11.632 -0.1170 -0.1865 -0.1180
 4662W        W21136  12.227   5.100   4.341 -0.0926  0.0648  0.0589
 4663W        W21137   6.268  16.135   5.489  0.0543  0.3787 -0.1423
 4664W        W21138   4.486   6.097   0.648  0.1532  0.2871 -0.0984
 4665W        W21139   0.438  12.018  14.253 -0.1561  0.1153 -0.3180
 4666W        W21140   4.117   9.759   0.285  0.2025  0.0506 -0.2507
 4667W        W21141  18.051   1.696  12.465 -0.0647 -0.1943  0.1200
 4668W        W21142  13.917  13.896  15.222 -0.0712 -0.0608  0.0724
 4669W        W21143  16.705   8.163  13.766  0.4386 -0.0867  0.1381
 4670W        W21144  18.551   7.471  10.497 -0.0062  0.3557 -0.2191
 4671W        W21145   5.479   9.293   0.681  0.0741 -0.1655  0.0367
 4672W        W21146   9.721   0.602  11.646  0.3148 -0.0098  0.0105
 4673W        W21147  16.145  17.302  11.944  0.1598  0.0119  0.0681
 4674W        W21148   1.137  15.963   1.126 -0.1606 -0.3380 -0.2641
 4675W        W21149  10.541  14.102  12.223  0.1094  0.0376  0.2924
 4676W        W21150  16.549   6.436  14.774 -0.3820  0.0362  0.1537
 4677W        W21151   5.281   6.651   4.929  0.0400  0.2346 -0.2269
 4678W        W21152   4.418  12.765   3.055  0.1227  0.0641 -0.2335
 4679W        W21153   8.038   9.354  12.369  0.1899 -0.1137 -0.0508
 4680W        W21154   7.724   3.315  11.919 -0.1315 -0.1991  0.1751
 4681W        W21155  18.463   3.389  12.242  0.0794  0.2546 -0.0396
 4682W        W21156   0.946   8.067   0.320 -0.0527 -0.1123  0.0442
 4683W        W21157   1.925   5.819   4.772  0.2895 -0.2217 -0.2025
 4684W        W21158  15.716   3.072  14.692  0.0517  0.0740  0.0556
 4685W        W21159   3.698   4.678  14.531 -0.0414  0.1678 -0.0690
 4686W        W21160  11.342  14.964   2.381 -0.0144 -0.2586  0.1452
 4687W        W21161   8.599   8.470  12.384  0.0998 -0.0536 -0.0742
 4688W        W21162   9.406  12.871   1.588  0.2106  0.3168  0.0178
 4689W        W21163   9.612   8.712  13.455 -0.0517 -0.0738 -0.0386
 4690W        W21164  10.530  16.325  13.842  0.2358  0.0563  0.2687
 4691W        W21165  12.159  10.438  14.907 -0.0089 -0.3002  0.1751
 4692W        W21166  17.962   7.764   4.004 -0.1487  0.0109  0.3767
 4693W        W21167  10.637  12.252  13.794 -0.1391  0.1943  0.0840
 4694W        W21168  12.088   7.139   4.006  0.1420  0.1328  0.1545
 4695W        W21169   0.834   8.800   5.411  0.3371  0.1503 -0.3329
 4696W        W21170   9.650   2.625  14.892 -0.0998 -0.0835 -0.0830
 4697W        W21171  13.692  10.754  15.344 -0.0394  0.0218 -0.2601
 4698W        W21172  11.345  14.633   0.304  0.0890 -0.0959 -0.0887
 4699W        W21173   8.858  17.236   4.901 -0.1774  0.2385 -0.0482
 4700W        W21174  17.793   8.849  13.378  0.1183  0.1156  0.3189
 4701W        W21175   9.356   3.446  14.451  0.3186  0.1460 -0.2501
 4702W        W21176   8.872  15.702   3.876 -0.4482 -0.0565  0.1340
 4703W        W21177   8.782   9.670   2.846 -0.0632  0.0658  0.2019
 4704W        W21178   3.392  17.308   0.391 -0.4297 -0.3886  0.2253
 4705W        W21179  13.409  14.596  11.499 -0.0907  0.2002 -0.0178
 4706W        W21180   0.866  14.527   1.116  0.2737 -0.0602 -0.2688
 4707W        W21181   7.603  15.227   4.519 -0.0865 -0.3195  0.0523
 4708W        W21182  14.819   1.501  13.752  0.1422 -0.2216 -0.1034
 4709W        W21183   6.013   7.324   1.467 -0.1063 -0.0158  0.0079
 4710W        W21184   8.713  18.705  11.517 -0.0974 -0.0684 -0.0825
 4711W        W21185   3.751   2.626  15.396  0.0259 -0.2171 -0.4666
 4712W        W21186  16.497   7.891  10.588  0.1203  0.1970  0.1176
 4713W        W21187  17.829  16.193  14.495 -0.1236  0.1047 -0.0838
 4714W        W21188   0.631   2.592  14.527 -0.0824  0.1301  0.1322
 4715W        W21189   9.780   4.221  14.718 -0.0087 -0.0798 -0.2036
 4716W        W21190   5.538   9.592  12.405 -0.2129 -0.2496  0.1874
 4717W        W21191   4.962   4.664  15.084  0.1492 -0.5816  0.1840
 4718W        W21192  17.225  16.849  10.334 -0.2006 -0.5581  0.0471
 4719W        W21193   0.420  12.094   1.119  0.0167 -0.2995  0.2721
 4720W        W21194  10.602  13.712  15.440 -0.0094  0.2096 -0.0669
 4721W        W21195  12.043   3.831   2.432 -0.0219 -0.0423 -0.2710
 4722W        W21196   4.480   1.552  12.755 -0.3647 -0.0149  0.0105
 4723W        W21197   7.856   0.869   3.340  0.1870 -0.4160  0.1635
 4724W        W21198   1.791  17.987   4.906 -0.0438 -0.1664  0.2015
 4725W        W21199   4.560   4.343  14.781  0.0400  0.2639 -0.0572
 4726W        W21200   9.453   7.488   1.898 -0.0305  0.0092  0.2621
 4727W        W21201  17.968  17.532  13.158 -0.0635 -0.1323  0.0955
 4728W        W21202  12.238  18.554   0.297  0.0562  0.0832  0.4357
 4729W        W21203   2.349   3.363  10.513 -0.0083  0.0114  0.0086
 4730W        W21204   6.463   1.463  12.815  0.2057 -0.0292 -0.2829
 4731W        W21205  11.403   5.090   4.019 -0.0217 -0.0745 -0.0773
 4732W        W21206  13.296  15.209  14.645  0.0762  0.2366 -0.0972
 4733W        W21207  15.898  11.962   5.610 -0.0769  0.0286 -0.0993
 4734W        W21208  13.465  10.227  11.684 -0.2690 -0.1580  0.1026
 4735W        W21209   8.940   3.633   5.350 -0.0979  0.0746  0.3215
 4736W        W21210   7.547  18.349  13.452  0.0085  0.0379  0.1443
 4737W        W21211   5.907   9.308  10.912 -0.0419 -0.0209  0.2152
 4738W        W21212   3.388   5.443  14.850 -0.1519  0.3006  0.3870
 4739W        W21213  11.769   4.765   2.507 -0.3807  0.0782  0.2711
 4740W        W21214   9.217   3.151   4.527 -0.0263 -0.0653  0.2318
 4741W        W21215   1.588  10.240   3.650 -0.2310  0.0538  0.0144
 4742W        W21216  15.985  16.713   4.512 -0.1404 -0.4314  0.1770
 4743W        W21217  16.455   0.037  10.413  0.0239 -0.0827 -0.1751
 4744W        W21218   0.384   0.865   3.349  0.0938 -0.0784 -0.0296
 4745W        W21219  14.449  17.906  13.630  0.0109 -0.0291  0.0727
 4746W        W21220  13.798   2.928   1.087 -0.0971  0.0808 -0.3463
 4747W        W21221   4.095   5.340  11.368  0.4347  0.1264 -0.0505
 4748W        W21222  16.668   3.083  10.434  0.1496  0.2596 -0.0617
 4749W        W21223   1.607  13.340  14.967  0.1980 -0.1124 -0.0672
 4750W        W21224   5.954   9.563   1.767 -0.1501  0.0560 -0.1555
 4751W        W21225  11.397   0.391  13.612  0.4339  0.1616 -0.1317
 4752W        W21226  18.745   0.709   1.730  0.0769 -0.2280  0.3326
 4753W        W21227  13.229  12.842  13.880  0.0238  0.3241  0.0401
 4754W        W21228  11.873  13.596   0.020 -0.0550 -0.0737  0.0092
 4755W        W21229   7.084  18.421   0.382  0.0477 -0.1909 -0.0043
 4756W        W21230   6.451   5.916   1.706 -0.0439  0.0673  0.0985
 4757W        W21231   5.164   4.117   4.269  0.0762  0.3027  0.0275
 4758W        W21232  11.435  16.908  14.831 -0.0357 -0.0698 -0.1654
 4759W        W21233  17.593   8.956  14.902 -0.1955 -0.1038 -0.2717
 4760W        W21234  14.148   5.734  11.998 -0.0727  0.1785  0.1365
 4761W        W21235   5.123  15.108   4.398 -0.0529 -0.0465  0.0703
 4762W        W21236   0.362  16.268   4.529  0.5090 -0.2914  0.2211
 4763W        W21237   3.641   8.490   0.877 -0.0966  0.0777  0.2329
 4764W        W21238  11.857   8.602   2.637 -0.2165 -0.1379  0.0774
 4765W        W21239  14.334   8.028  13.343 -0.1667  0.2829  0.2982
 4766W        W21240   8.480  16.527   5.326  0.3891  0.1408  0.3704
 4767W        W21241  16.277  11.193  11.451 -0.4216 -0.3498 -0.0006
 4768W        W21242   6.970  16.290  11.625  0.0241 -0.0280  0.0495
 4769W        W21243   9.634  15.257   4.287  0.1287  0.2473  0.1102
 4770W        W21244   4.154  10.395  14.519 -0.2229 -0.2304 -0.2799
 4771W        W21245   3.543  17.119   3.098  0.3380 -0.0082  0.1436
 4772W        W21246   8.556   4.860  11.596 -0.0515 -0.0202  0.1708
 4773W        W21247   5.283   5.763   4.640  0.0841  0.0939  0.1144
 4774W        W21248   1.380   2.276  14.142  0.2322 -0.2342  0.1420
 4775W        W21249   7.303  13.777   2.280 -0.1002 -0.1574  0.0108
 4776W        W21250   5.538  18.197   3.040  0.2259 -0.2702  0.0639
 4777W        W21251   1.612   1.192   1.120  0.2528  0.2045 -0.3336
 4778W        W21252  18.507  16.996  11.290  0.0440 -0.4955  0.0217
 4779W        W21253   5.569   9.160   2.435 -0.1885  0.0101 -0.2146
 4780W        W21254   2.841   6.877   5.544 -0.0235 -0.0679  0.0428
 4781W        W21255   5.532  12.451   2.510 -0.1196 -0.2508 -0.0964
 4782W        W21256  14.424  13.605  12.535  0.0274 -0.1735 -0.1053
 4783W        W21257  16.510  11.680  14.150  0.1352 -0.1313 -0.3704
 4784W        W21258   2.360   0.332  11.074  0.2487 -0.1087 -0.0631
 4785W        W21259   5.385  10.275  15.093  0.2905  0.2551  0.1359
 4786W        W21260   4.547  14.421  12.757  0.3067 -0.1382 -0.0762
 4787W        W21261   8.485  17.334  15.290 -0.1558  0.2008 -0.0520
 4788W        W21262   3.466   5.320  12.468 -0.1540  0.1122  0.2451
 4789W        W21263   5.898   7.154   3.413 -0.2539 -0.1864  0.0952
 4790W        W21264  18.445   8.419   2.695 -0.0743 -0.2174  0.3949
 4791W        W21265   7.673  17.413  11.291 -0.0241  0.0761  0.2398
 4792W        W21266  11.989   1.250  12.983 -0.0897 -0.1542 -0.1561
 4793W        W21267  10.518   5.523   4.755 -0.1697  0.0249 -0.2552
 4794W        W21268   9.197  14.534   4.407 -0.0258  0.0965  0.3395
 4795W        W21269   1.593   5.825  11.130  0.0207  0.2894  0.1411
 4796W        W21270   5.778   0.145  13.932 -0.0215  0.0159  0.1146
 4797W        W21271   4.535  18.719   5.464  0.3620 -0.1895  0.0103
 4798W        W21272   1.530   9.031   4.694  0.1965 -0.0150  0.2117
 4799W        W21273  11.050  16.785  13.852 -0.1880 -0.3609  0.0570
 4800W        W21274   9.492  17.245  13.738 -0.5830  0.0756 -0.2458
 4801W        W21275   6.276  18.772   0.868  0.1477  0.0213  0.1746
 4802W        W21276  16.139  18.495  13.461 -0.0146 -0.1769 -0.0994
 4803W        W21277  11.433   8.397  13.866  0.6017 -0.0371 -0.1738
 4804W        W21278  11.829   8.554   2.052  0.3294 -0.1808 -0.0315
 4805W        W21279  15.673  14.599   0.567 -0.0787  0.0684  0.0212
 4806W        W21280  15.754  14.527  15.068  0.0986  0.1856 -0.0929
 4807W        W21281  17.379   2.972  14.668  0.0215 -0.3087 -0.3882
 4808W        W21282   0.322  15.513  14.233  0.2171 -0.1318 -0.1226
 4809W        W21283  10.827   4.146  10.905  0.1333 -0.0383 -0.1262
 4810W        W21284   5.371   5.009   1.947 -0.1413  0.2008  0.1867
 4811W        W21285   9.921  15.389   0.374 -0.1070 -0.0393 -0.0778
 4812W        W21286  18.211   3.023   0.053  0.1171 -0.0580 -0.1878
 4813W        W21287   9.364   8.916   4.294 -0.1118  0.0857 -0.1672
 4814W        W21288   7.343  12.291  15.442 -0.0094  0.1746 -0.3678
 4815W        W21289   3.367  13.842  14.664  0.0226  0.3346  0.0236
 4816W        W21290  14.638  11.506   1.654 -0.0080 -0.0695  0.0612
 4817W        W21291  15.781  16.806   2.575 -0.1413  0.0034  0.0728
 4818W        W21292   0.083  13.958   1.962 -0.1229 -0.3269  0.0662
 4819W        W21293   0.297   8.757   3.929 -0.0629  0.2029 -0.0935
 4820W        W21294   1.711  10.494   1.637 -0.3404 -0.0034 -0.0188
 4821W        W21295   5.350   6.627   1.435 -0.3078  0.0445  0.1773
 4822W        W21296   3.566   0.329  11.543 -0.1506 -0.0255 -0.2654
 4823W        W21297  10.859   2.656  15.373  0.2503 -0.1821  0.2340
 4824W        W21298  10.886   2.147   1.005  0.1335  0.0942  0.0655
 4825W        W21299  15.075  13.103   3.328 -0.2135  0.3190 -0.1358
 4826W        W21300  15.063  15.743   4.348  0.3579 -0.1936  0.4089
 4827W        W21301   5.092  12.216   2.739  0.2417  0.1409 -0.1043
 4828W        W21302  11.392   5.435  15.458  0.0203 -0.1139 -0.1642
 4829W        W21303   6.188   3.100  12.614  0.1821  0.3442 -0.0348
 4830W        W21304  10.639  18.086   3.298  0.1963  0.1154 -0.0378
 4831W        W21305  11.463  17.437  14.313  0.0131 -0.0101  0.1468
 4832W        W21306  12.463  14.360   0.189 -0.0969  0.1733  0.0190
 4833W        W21307  15.690  13.286   1.042  0.2659  0.0985 -0.3006
 4834W        W21308  18.073   1.968   0.767 -0.0747 -0.1022  0.3063
 4835W        W21309   3.850  17.905  10.740  0.0388  0.5802  0.2038
 4836W        W21310  16.772  10.472   4.960 -0.1037  0.3852  0.0252
 4837W        W21311   1.850  14.208  11.503  0.0778  0.1029  0.1178
 4838W        W21312   3.743  12.421   0.964  0.0848 -0.0952  0.0525
 4839W        W21313  17.918   1.725  13.747 -0.1949  0.1579 -0.0566
 4840W        W21314  14.430  14.582   1.021  0.1623 -0.2559 -0.0768
 4841W        W21315  13.092   4.593   1.650 -0.2167 -0.2482 -0.0742
 4842W        W21316   4.289   1.132   4.030  0.0908 -0.3109 -0.1165
 4843W        W21317   3.929  16.525  14.735 -0.2633 -0.0649 -0.1502
 4844W        W21318   3.088   8.764  13.491 -0.3071 -0.2628  0.2753
 4845W        W21319  14.876   0.938   3.611  0.0665  0.0804  0.0216
 4846W        W21320   0.404  10.461  11.174 -0.1462  0.1724  0.0330
 4847W        W21321  11.263  15.934  13.242 -0.0813 -0.1800 -0.0750
 4848W        W21322   6.834  12.476   2.113 -0.0534  0.2341  0.2949
 4849W        W21323   3.889  11.362   0.711 -0.0883 -0.1265 -0.1733
 4850W        W21324  13.057  12.774   3.015 -0.0450  0.1943  0.0230
 4851W        W21325  13.441  15.857   4.529  0.3705 -0.0528 -0.3118
 4852W        W21326   1.324   2.170   2.113 -0.2897 -0.2254 -0.2408
 4853W        W21327   2.269  16.944  11.291  0.1824 -0.1934  0.1401
 4854W        W21328   3.119   0.167  13.325 -0.3717  0.1514 -0.0598
 4855W        W21329   2.311   0.050  13.414  0.0836 -0.4926 -0.0014
 4856W        W21330  16.040   3.545   0.063 -0.2696 -0.0179  0.1332
 4857W        W21331  15.857   4.389   3.032 -0.2828 -0.0798  0.3092
 4858W        W21332   4.466   9.492   0.561 -0.1594  0.3480  0.0042
 4859W        W21333   6.223   5.351   1.924  0.3352 -0.1962  0.0767
 4860W        W21334  13.967   5.014   1.913  0.0295  0.3721  0.1239
 4861W        W21335   4.355  18.800   2.949 -0.0573  0.0402 -0.1400
 4862W        W21336   6.962  14.162   2.157 -0.1532 -0.1564 -0.0270
 4863W        W21337  13.525  17.858  12.441 -0.1013 -0.2347  0.0107
 4864W        W21338  13.711  18.234   3.445 -0.0644 -0.0963  0.3464
 4865W        W21339   3.597   1.788   0.860  0.1749 -0.0852 -0.1003
 4866W        W21340  17.758   3.898   0.973 -0.3102 -0.1721 -0.0341
 4867W        W21341   0.130  18.473   0.588  0.0718  0.2113  0.0668
 4868W        W21342  11.174  17.767  10.996 -0.2394  0.1218  0.1602
 4869W        W21343  10.368   4.485   4.252  0.2613 -0.1638 -0.1734
 4870W        W21344  15.568  12.664   4.518  0.0086 -0.0554 -0.2336
 4871W        W21345   0.968   0.349  12.256  0.3053 -0.1116  0.0361
 4872W        W21346  14.105  17.553   0.037  0.0915 -0.1774  0.0112
 4873W        W21347  18.512  15.194   0.829 -0.1595 -0.0232  0.3422
 4874W        W21348  15.615  14.131  11.983 -0.3561 -0.1019  0.0947
 4875W        W21349  14.750  11.147   4.024 -0.0321 -0.2388 -0.0753
 4876W        W21350  17.755   9.345  14.538  0.0501 -0.0073  0.0029
 4877W        W21351   2.419   7.526   2.238  0.0031  0.2015  0.0932
 4878W        W21352   3.719   6.214  13.493  0.1340  0.1238  0.2492
 4879W        W21353  12.970   8.576   0.281  0.2098  0.0709 -0.0753
 4880W        W21354   0.239   8.004  10.866 -0.0302 -0.0229  0.0918
 4881W        W21355   9.462   9.914  14.767  0.1802  0.2773  0.0543
 4882W        W21356   1.435  10.315  11.106  0.3612  0.3458 -0.1184
 4883W        W21357   5.564  18.218  12.470  0.1609  0.2761  0.1774
 4884W        W21358   1.435  13.517  12.047 -0.2733 -0.0817  0.2669
 4885W        W21359   8.734   4.481  14.001  0.4154  0.1217 -0.1282
 4886W        W21360  15.507  12.674  10.271  0.0574 -0.1360  0.2442
 4887W        W21361   4.475   8.201  15.251  0.1129 -0.1406 -0.0234
 4888W        W21362  16.429  14.943   2.672  0.1009  0.1698  0.1840
 4889W        W21363   4.329   4.450   2.634 -0.1990 -0.0949  0.0012
 4890W        W21364  16.559  18.830   4.851 -0.0584  0.0297  0.1878
 4891W        W21365  13.615  18.544   2.558  0.1146  0.0520 -0.1674
 4892W        W21366  15.947  12.096   1.691  0.3185 -0.4617 -0.2019
 4893W        W21367   2.615   8.516  13.576 -0.2584 -0.0778  0.0590
 4894W        W21368   2.445  11.003   1.301  0.1873 -0.1986 -0.1296
 4895W        W21369  18.758   1.818   4.607  0.0710  0.2142  0.1564
 4896W        W21370  14.608  16.282   2.286 -0.2777  0.3531 -0.1285
 4897W        W21371   0.930  12.704  14.745 -0.2882 -0.3388 -0.2500
 4898W        W21372   8.865   3.335  14.465 -0.3528  0.0995 -0.1951
 4899W        W21373   8.262   6.430  11.370 -0.0712  0.1032  0.1016
 4900W        W21374   9.324   3.319   5.432 -0.0595  0.1279  0.1131
 4901W        W21375  11.172  11.015  11.185 -0.2559  0.0015  0.1505
 4902W        W21376  12.413   0.866  12.178  0.2312  0.2703 -0.1683
 4903W        W21377  18.473   4.245  13.196  0.2242  0.0196  0.0615
 4904W        W21378  11.105  17.570   5.910 -0.0392 -0.1082  0.3063
 4905W        W21379   4.460  17.005  15.293  0.1128  0.0278  0.0752
 4906W        W21380   3.204  17.561  11.213  0.3062 -0.1266  0.0489
 4907W        W21381  14.196  14.655   3.461 -0.2331  0.3299  0.0343
 4908W        W21382   3.650  12.498   0.483  0.2518  0.3074 -0.0244
 4909W        W21383  18.300   3.232  11.454 -0.4640 -0.2048  0.2433
 4910W        W21384  12.872   4.378   4.128  0.0013 -0.0954  0.1904
 4911W        W21385   4.716   3.184  13.548  0.0009 -0.0453  0.2390
 4912W        W21386  16.378  12.312   1.695  0.0737  0.2421 -0.0391
 4913W        W21387   8.366   0.403   4.195 -0.1384  0.1187 -0.0311
 4914W        W21388  11.121   8.868  12.061 -0.0761 -0.1283  0.0016
 4915W        W21389  12.829   0.674   3.038  0.1107 -0.3077 -0.1585
 4916W        W21390   8.155   8.759  10.999 -0.0098  0.3200 -0.0047
 4917W        W21391  10.233   7.782  14.300 -0.0475 -0.2367 -0.1433
 4918W        W21392  15.674   1.534  12.639 -0.1646  0.2482  0.0408
 4919W        W21393   8.110  11.093  11.976 -0.1142  0.0476 -0.1053
 4920W        W21394  11.717  12.032   2.886 -0.3171 -0.0769 -0.2608
 4921W        W21395   5.154   4.363  13.890 -0.0633 -0.2890  0.0942
 4922W        W21396   8.309  13.405  15.513  0.4317  0.0268 -0.0238
 4923W        W21397   4.435   2.289  15.364  0.0763  0.0973  0.0578
 4924W        W21398  16.512  10.683   1.656 -0.1487 -0.3183 -0.1179
 4925W        W21399   6.910  16.105   0.513 -0.0152 -0.0259  0.0647
 4926W        W21400  10.049   4.909  13.444 -0.1119  0.0552  0.0840
 4927W        W21401   4.919  17.275  12.350  0.0951  0.1260  0.1834
 4928W        W21402  13.176   6.095   2.988 -0.0837  0.2318 -0.1442
 4929W        W21403   2.298  10.349   3.509  0.0976 -0.3022  0.0521
 4930W        W21404   9.572  16.887   5.284  0.0877 -0.2076  0.0070
 4931W        W21405  11.353  12.050  13.475  0.2984 -0.1652 -0.1470
 4932W        W21406  13.699  12.460   4.494  0.1739 -0.2495  0.0492
 4933W        W21407   0.622   1.517  13.849 -0.0790 -0.0911 -0.3873
 4934W        W21408  17.818  11.851  14.043 -0.3123 -0.0623 -0.2090
 4935W        W21409   0.895  11.387  11.590 -0.0037 -0.1790 -0.1957
 4936W        W21410   6.552   2.515   0.018  0.1785 -0.0377 -0.1005
 4937W        W21411   2.513  15.757  14.757 -0.0103  0.1322 -0.0352
 4938W        W21412   1.395  14.415   0.878 -0.0491 -0.1204 -0.2644
 4939W        W21413  11.637  17.740  12.432  0.3929 -0.0363 -0.2029
 4940W        W21414  15.967   9.183  12.314 -0.0090  0.0062  0.1763
 4941W        W21415  13.645   1.415   2.999 -0.1938  0.3174  0.0473
 4942W        W21416  13.889   8.481   0.576 -0.1155 -0.1331  0.0902
 4943W        W21417   8.456  17.079   5.188  0.1852  0.0631  0.2382
 4944W        W21418   5.290   7.831   3.364  0.2210 -0.1727  0.1716
 4945W        W21419   0.036   6.237  12.625 -0.2082  0.2269 -0.0083
 4946W        W21420   0.288   5.538  12.161  0.2348  0.3560  0.2695
 4947W        W21421   2.403  16.396  15.593  0.1252  0.2067  0.0315
 4948W        W21422   7.425   4.678  12.185  0.1987  0.1507 -0.1397
 4949W        W21423  17.326  13.204  14.410  0.1549 -0.0810 -0.0548
 4950W        W21424   1.276  13.126  13.301 -0.3246 -0.1046  0.1639
 4951W        W21425  18.588  10.259  11.049  0.0255 -0.1076 -0.1008
 4952W        W21426  14.703   0.958  13.631 -0.0627  0.3044  0.0980
 4953W        W21427   0.725   4.885   2.117 -0.1998  0.0507 -0.4069
 4954W        W21428   9.630   8.168  13.499 -0.3661  0.2896  0.0850
 4955W        W21429   0.163  17.891  10.365 -0.0580  0.0604 -0.0920
 4956W        W21430   7.706  14.622  12.413 -0.0203 -0.0198  0.0885
 4957W        W21431   0.840   1.407  12.007  0.1050 -0.1620  0.2554
 4958W        W21432   2.414  15.355   0.242 -0.1104  0.0208  0.2551
 4959W        W21433   4.184  14.906   5.100  0.1683 -0.0176 -0.0960
 4960W        W21434   7.325   8.461  11.168  0.1353  0.3748  0.0144
 4961W        W21435   7.469   2.524   2.687 -0.0355  0.0786 -0.0951
 4962W        W21436   0.976   5.442   4.848  0.1015 -0.0875 -0.0573
 4963W        W21437   8.782  17.177  13.298  0.3155  0.0349 -0.1348
 4964W        W21438   6.440  18.298   2.768 -0.0962 -0.0059 -0.2705
 4965W        W21439  14.160   3.499   0.190 -0.0251  0.1119 -0.0581
 4966W        W21440  14.865  18.355  14.358  0.1006 -0.0042  0.3258
 4967W        W21441   3.057   7.903  13.495  0.1191  0.2166  0.1010
 4968W        W21442   2.753  14.012   0.204 -0.1749  0.0091  0.0950
 4969W        W21443  11.098   6.524  11.892  0.2911 -0.2866  0.0590
 4970W        W21444   3.827   3.687   2.927 -0.0373 -0.0153  0.0537
 4971W        W21445  11.161   2.559  11.071  0.0775 -0.0579 -0.3802
 4972W        W21446  14.160  10.854   4.528  0.1556 -0.0077 -0.1082
 4973W        W21447  10.592  15.471  12.516  0.0492  0.2051 -0.0458
 4974W        W21448  15.534   2.159   1.444  0.0852  0.1796 -0.2843
 4975W        W21449  17.266   6.816  10.872  0.0417 -0.1347  0.1942
 4976W        W21450   5.065   0.790  14.983 -0.0630 -0.0397  0.0522
 4977W        W21451  16.074   4.036  12.629  0.3354 -0.0160 -0.2093
 4978W        W21452  14.157   5.292   4.299  0.0975  0.0344  0.0693
 4979W        W21453   9.237   9.847  15.663  0.0543  0.0669 -0.4583
 4980W        W21454   3.727  10.670  12.346 -0.1070  0.1487 -0.0271
 4981W        W21455   2.860   1.576   4.072 -0.3300  0.0935  0.1856
 4982W        W21456  10.091  13.248  11.867  0.0584  0.1467 -0.2878
 4983W        W21457   7.710  13.257   4.808 -0.2179 -0.0637 -0.0670
 4984W        W21458  17.041   6.213   0.983  0.0040 -0.0608 -0.0035
 4985W        W21459  14.907   5.606  14.882  0.0645 -0.0925  0.4893
 4986W        W21460  12.791   2.737  11.937  0.0466  0.0336  0.0015
 4987W        W21461  11.018  11.298  12.394  0.1755 -0.0717 -0.2450
 4988W        W21462  17.756   7.604   0.294 -0.0506 -0.1227  0.0092
 4989W        W21463   8.054  10.348   6.025  0.2398  0.1623 -0.2137
 4990W        W21464   7.156  15.652   5.580  0.0469 -0.3429  0.1220
 4991W        W21465  18.406   2.375   9.964  0.0575 -0.2973  0.0344
 4992W        W21466   4.629   1.928  11.830  0.0599 -0.0136  0.1992
 4993W        W21467  18.692   5.327   3.656  0.1723  0.0983 -0.0563
 4994W        W21468   3.431   0.489  14.156  0.1936  0.1107  0.2083
 4995W        W21469  10.410   4.410   1.857  0.2808 -0.1983  0.1102
 4996W        W21470   8.058   0.895   0.662 -0.0845  0.1436  0.3304
 4997W        W21471  13.745   4.960  13.479 -0.0836 -0.3933  0.1854
 4998W        W21472  12.789  14.734  13.062  0.1146  0.0821  0.2072
 4999W        W21473   8.088  14.258   4.093  0.1033 -0.2262 -0.1491
 5000W        W21474  14.879  13.419  13.663 -0.0223 -0.0942  0.1620
 5001W        W21475   0.949   0.530   4.567 -0.3717  0.0637 -0.2413
 5002W        W21476  12.035   0.915   5.201 -0.0377 -0.3637 -0.2923
 5003W        W21477   0.140  13.707  11.440 -0.1192  0.0754  0.2050
 5004W        W21478  12.817  10.104   1.407 -0.1218 -0.0062  0.3378
 5005W        W21479   0.403   4.772  13.330 -0.2484 -0.0016 -0.2599
 5006W        W21480  17.658   6.309   5.798  0.4149 -0.0335 -0.0500
 5007W        W21481   9.236  13.588  12.867 -0.2969  0.2117 -0.0909
 5008W        W21482  15.179   9.545  14.261 -0.2033 -0.1313 -0.1309
 5009W        W21483   7.358   1.704  14.054 -0.2560  0.0160  0.2927
 5010W        W21484  14.349  13.546   5.090  0.2386 -0.0017  0.1203
 5011W        W21485   2.126   6.140   2.369 -0.1184 -0.0094 -0.2543
 5012W        W21486   9.888   4.439  11.687 -0.0193  0.2291  0.0114
 5013W        W21487  13.925   6.933  14.500 -0.0641  0.0819  0.2095
 5014W        W21488   1.857   9.367  11.461 -0.2372  0.1258  0.0636
 5015W        W21489  10.830   4.692   4.207  0.1643 -0.1527 -0.1596
 5016W        W21490   1.925   0.517   4.145 -0.2591 -0.2266  0.0586
 5017W        W21491  16.121   2.317  14.186 -0.0329 -0.4635  0.1185
 5018W        W21492   4.467   0.080  11.862 -0.2210  0.2260  0.1697
 5019W        W21493  12.714   4.761   0.037  0.0594 -0.1063 -0.0620
 5020W        W21494  10.697   9.143   2.542 -0.2507  0.0532  0.1139
 5021W        W21495   7.131  12.862   2.193  0.0685 -0.2142 -0.2179
 5022W        W21496   3.152   9.650   2.041  0.2290 -0.0335  0.1900
 5023W        W21497  11.183  13.576   1.135  0.1361  0.1273  0.0802
 5024W        W21498   7.052   7.494  11.007  0.2635  0.0466  0.0029
 5025W        W21499  10.380  14.054   4.514 -0.0058 -0.1197 -0.1140
 5026W        W21500  17.784  11.130  11.751  0.1475 -0.1576 -0.0714
 5027W        W21501  10.913  10.126  14.299 -0.1128  0.0555 -0.0379
 5028W        W21502  17.653   0.058   9.048  0.0042 -0.0698 -0.1803
 5029W        W21503  16.791  16.888   1.474  0.0599  0.0520 -0.1652
 5030W        W21504   7.210   7.913   1.392 -0.1567  0.0490  0.0636
 5031W        W21505  12.586   2.519  12.329 -0.0673  0.0428 -0.1178
 5032W        W21506   4.374  14.438  12.291  0.2108  0.0367  0.1812
 5033W        W21507   9.592  10.950  14.291 -0.1182  0.1714 -0.1465
 5034W        W21508   3.864  17.209   3.440 -0.1498 -0.1573 -0.0447
 5035W        W21509   3.524   6.052   1.598  0.1038  0.1096 -0.0571
 5036W        W21510   3.638   4.710   3.705  0.2774 -0.4891  0.1084
 5037W        W21511  13.019  12.114   4.874 -0.0602 -0.1304 -0.3537
 5038W        W21512   8.207   5.182   4.589 -0.0307 -0.1939 -0.0285
 5039W        W21513   2.085   0.582   5.921  0.0873  0.2546  0.1447
 5040W        W21514   2.209  14.302  12.718  0.0083 -0.0885 -0.1862
 5041W        W21515   8.906   8.678   2.871 -0.1049  0.0400  0.3861
 5042W        W21516   9.919  11.003  14.821  0.1382 -0.1235  0.0922
 5043W        W21517  11.670  10.077   3.537 -0.1336 -0.0060  0.0010
 5044W        W21518   5.260   3.908  13.222 -0.1255 -0.2181  0.0142
 5045W        W21519   2.902   6.215   4.085 -0.1602  0.2140 -0.0396
 5046W        W21520   1.689   2.752   0.972  0.2551 -0.2587  0.0903
 5047W        W21521   2.032  10.725  14.639 -0.3668  0.1478  0.1122
 5048W        W21522   5.061   5.627  14.763  0.0140 -0.0021 -0.4103
 5049W        W21523  18.312   8.203   3.957  0.0890  0.1031 -0.3199
 5050W        W21524   8.120  11.872   1.684 -0.1225  0.1707  0.0334
 5051W        W21525  15.927  10.951   3.204  0.4045 -0.1124  0.0157
 5052W        W21526  14.517  17.248   4.530  0.1533 -0.3009  0.1303
 5053W        W21527   2.445   8.674  15.228 -0.1952  0.0608 -0.1022
 5054W        W21528  17.763  11.492  13.681 -0.1743  0.1700  0.1033
 5055W        W21529  14.159  12.087  11.397 -0.0415  0.1879 -0.0270
 5056W        W21530  17.880  15.365  13.152 -0.1106  0.0100 -0.0871
 5057W        W21531  11.973  17.507   3.088  0.1468 -0.0333  0.0896
 5058W        W21532  12.252  10.277  10.975 -0.0807 -0.1940 -0.2232
 5059W        W21533   3.740  12.849  12.032  0.2101  0.2489 -0.3121
 5060W        W21534   7.800  17.454   1.062  0.1298  0.3185 -0.2046
 5061W        W21535  15.443  15.707  14.127  0.1495  0.3328 -0.2403
 5062W        W21536  13.197  14.384   4.447 -0.1280  0.3299 -0.2251
 5063W        W21537   3.468   1.695   2.144 -0.0267 -0.0499 -0.0699
 5064W        W21538  18.546  17.350   1.583 -0.0505 -0.0161  0.2655
 5065W        W21539   0.961   3.208  12.559  0.0653  0.1492 -0.1346
 5066W        W21540   9.066   7.528  12.319  0.2956  0.0436  0.1779
 5067W        W21541  15.629  13.571  11.872 -0.2223 -0.1980  0.1291
 5068W        W21542  11.092   0.161  13.313  0.0408 -0.3006  0.3361
 5069W        W21543  18.103   4.109   1.755  0.0719  0.0420 -0.0626
 5070W        W21544   7.906  12.469  13.277 -0.0959 -0.0147  0.1649
 5071W        W21545  10.883   6.822  13.605 -0.0250 -0.3141 -0.0509
 5072W        W21546  15.319   6.721   3.402 -0.2754  0.0873  0.0861
 5073W        W21547  18.163  14.170   2.417  0.0730 -0.2184  0.1383
 5074W        W21548   3.153  18.426  14.634 -0.0250  0.0079  0.1506
 5075W        W21549   9.195  10.512  14.055 -0.0397 -0.0832 -0.1375
 5076W        W21550   1.996   3.467   0.329 -0.0882  0.2049  0.1024
 5077W        W21551  10.585   1.642   4.722  0.0116  0.1155  0.0503
 5078W        W21552  17.250   9.264   4.141  0.1519  0.3966 -0.1215
 5079W        W21553   5.887  17.527   0.627  0.0238  0.0645 -0.0013
 5080W        W21554  14.792  12.334  11.282  0.3459 -0.1083  0.0116
 5081W        W21555  17.462   5.505   0.009  0.2587 -0.1037  0.2295
 5082W        W21556   3.233   1.274  13.137  0.1854  0.0076 -0.4405
 5083W        W21557   8.043   4.251  15.697  0.0237 -0.2115  0.4479
 5084W        W21558   1.891   3.049  11.308 -0.0967 -0.0601  0.1493
 5085W        W21559   2.326  15.155  13.881 -0.2698  0.0322 -0.1774
 5086W        W21560   5.169  10.036  12.444  0.1592 -0.1473 -0.0510
 5087W        W21561   3.423  18.378  13.384 -0.2310 -0.2149 -0.0104
 5088W        W21562   8.605  13.114  14.526 -0.1474  0.1758  0.0971
 5089W        W21563   6.732   1.466  11.001 -0.0840 -0.3540 -0.0059
 5090W        W21564   7.587  12.698  12.684  0.1360 -0.0830  0.0984
 5091W        W21565   3.469  16.889  13.601  0.1323  0.4217 -0.1354
 5092W        W21566  14.222   8.392   3.451 -0.1901 -0.0145 -0.0204
 5093W        W21567   6.421   5.158  13.062  0.2168  0.0601 -0.1213
 5094W        W21568  12.476  17.376   2.950 -0.2222  0.1791 -0.2566
 5095W        W21569   3.875  16.004   1.523  0.1584 -0.2402 -0.3126
 5096W        W21570   3.032  10.243  13.796  0.0231  0.1829  0.1523
 5097W        W21571  13.620  10.944   1.181 -0.1150 -0.1385 -0.0119
 5098W        W21572   2.594   9.341  11.009  0.0920 -0.1348 -0.0246
 5099W        W21573   7.352  12.265  14.505  0.2464  0.0711  0.1046
 5100W        W21574   0.834  18.420  13.581  0.0361 -0.3247  0.3362
 5101W        W21575   5.808  14.547  14.683 -0.0140 -0.0273 -0.1259
 5102W        W21576  16.685  14.198   3.168  0.1901 -0.1257  0.1197
 5103W        W21577  10.092   9.254   1.746 -0.2020 -0.1934 -0.1336
 5104W        W21578  15.608   3.310   1.205  0.0733 -0.1313 -0.3083
 5105W        W21579   6.048  13.069  11.585  0.0514  0.2112  0.0744
 5106W        W21580  12.100   0.918  13.315 -0.1230  0.2553  0.3017
 5107W        W21581  12.298   2.306   0.479  0.1072 -0.0390  0.1856
 5108W        W21582  18.246   9.760   1.013  0.1130 -0.1841 -0.4432
 5109W        W21583   6.990  14.659   3.357 -0.2021  0.0339 -0.1814
 5110W        W21584   0.976  18.639  12.963  0.2737  0.0728 -0.0333
 5111W        W21585  17.720   2.093  14.052 -0.1374  0.1936  0.4451
 5112W        W21586   1.661  11.045   0.986  0.1497  0.0972 -0.1785
 5113W        W21587  16.712  16.175   4.215  0.0059  0.2506  0.2102
 5114W        W21588  14.920   3.508   2.903  0.0525  0.6277  0.0669
 5115W        W21589   9.997   1.449   4.897  0.0397 -0.0629 -0.0760
 5116W        W21590  17.599   6.719  12.905 -0.1088 -0.0658  0.0517
 5117W        W21591  16.470  16.350   1.090  0.2548 -0.1048  0.1010
 5118W        W21592   2.204   0.602   0.285 -0.0187 -0.2744  0.2177
 5119W        W21593  16.229  18.301  11.848 -0.0624 -0.3138 -0.1037
 5120W        W21594  13.193  17.050  12.399  0.1962 -0.1556  0.2351
 5121W        W21595   0.670   7.288  12.397  0.2040  0.1830  0.3204
 5122W        W21596  15.699   6.193  12.713  0.0649 -0.0069 -0.2616
 5123W        W21597  13.677  11.839  13.466  0.1156 -0.3690  0.0865
 5124W        W21598   1.214   5.058   0.801 -0.0846 -0.1592 -0.0150
 5125W        W21599   2.406   4.518  14.036 -0.2500  0.3699 -0.1025
 5126W        W21600  16.856  11.826  13.832  0.1087 -0.1146 -0.0945
 5127W        W21601  16.296  14.127   0.571 -0.0562 -0.2092 -0.2421
 5128W        W21602  12.343  11.373   3.640 -0.0933 -0.1080  0.1753
 5129W        W21603  13.985  13.941  14.301  0.0014 -0.1716 -0.0937
 5130W        W21604  10.118   3.314   2.421  0.2711  0.0302  0.2707
 5131W        W21605   9.554  15.701   4.628  0.0444 -0.0119 -0.5127
 5132W        W21606   1.058  11.838  10.349 -0.3274 -0.2476  0.2325
 5133W        W21607   4.474  16.812  11.633  0.0898 -0.0662  0.0738
 5134W        W21608  10.970  16.416   1.270  0.0150 -0.2939 -0.0173
 5135W        W21609  15.303  18.108   0.493  0.2594 -0.3126  0.1997
 5136W        W21610   7.150  10.159  12.896 -0.2733  0.2019 -0.0318
 5137W        W21611   4.685   5.431  11.547 -0.1825  0.0744 -0.0742
 5138W        W21612   8.668  16.409   1.179 -0.0688  0.1251  0.0466
 5139W        W21613  10.890   0.699  13.255 -0.0185 -0.5010  0.1330
 5140W        W21614   2.878  17.523  14.471  0.1706  0.0791 -0.0747
 5141W        W21615   6.082  11.674   2.001  0.0395 -0.2266  0.2751
 5142W        W21616  15.473  17.695   0.170  0.0801  0.0229 -0.3838
 5143W        W21617   6.813   9.605   0.854 -0.1692 -0.0988 -0.2660
 5144W        W21618   3.957   7.074  12.507  0.2052 -0.1428  0.0559
 5145W        W21619   8.415   0.008  14.905 -0.2432 -0.3768 -0.0827
 5146W        W21620   7.688   0.012  13.373 -0.0306  0.0222 -0.0952
 5147W        W21621  13.379   9.808   2.758  0.2317 -0.0611  0.0715
 5148W        W21622  16.840   1.232  13.059 -0.4422 -0.0333  0.0120
 5149W        W21623   4.305  13.225   1.929 -0.0072 -0.2563 -0.1034
 5150W        W21624  14.945  13.460   3.625  0.0562  0.0910 -0.2826
 5151W        W21625  12.345  18.367  11.431  0.1938  0.0492  0.0597
 5152W        W21626   3.253   8.728  10.899 -0.0957 -0.2288 -0.0156
 5153W        W21627   5.518  16.060  14.071 -0.0005 -0.1520 -0.0512
 5154W        W21628  16.689   0.833  15.427  0.0896 -0.2661  0.2504
 5155W        W21629   1.230   1.492  13.527 -0.1627 -0.0365  0.1088
 5156W        W21630   8.795  12.034   4.362  0.2547  0.0165 -0.2574
 5157W        W21631   5.282  15.374  14.597  0.1758  0.0706  0.1763
 5158W        W21632  13.624   7.183   5.609 -0.3377  0.1118 -0.1462
 5159W        W21633   1.603   5.087   4.360  0.0385 -0.1475 -0.4953
 5160W        W21634   9.071   2.803   4.910 -0.2082  0.0445  0.2164
 5161W        W21635   9.968   5.743   1.490  0.1889 -0.2669 -0.2847
 5162W        W21636   4.688  13.355   4.928  0.0205 -0.1072 -0.0354
 5163W        W21637   1.993   5.773   3.287  0.1032 -0.0303 -0.2145
 5164W        W21638   8.809  13.796  13.690  0.0786 -0.1217 -0.0277
 5165W        W21639   8.755   8.752  12.859 -0.0179  0.0684 -0.0159
 5166W        W21640  15.302  16.031   0.000 -0.3058 -0.1072  0.1485
 5167W        W21641  17.934  13.400  13.354 -0.0479 -0.0309  0.1832
 5168W        W21642  18.184  16.818  13.649  0.0908 -0.1695  0.0129
 5169W        W21643   2.735   5.073   1.198 -0.0093  0.2380  0.0318
 5170W        W21644   0.623  16.658  12.290  0.1934 -0.1456  0.0152
 5171W        W21645   8.742  12.779   5.856 -0.2814  0.1596  0.0201
 5172W        W21646   0.305   3.696   2.549 -0.2687  0.2103  0.0278
 5173W        W21647  11.430  11.183   6.183 -0.2796  0.1277  0.1362
 5174W        W21648  15.397  13.947  11.161 -0.1285  0.1120  0.1211
 5175W        W21649  17.401   5.296   4.784 -0.1776  0.3030 -0.1416
 5176W        W21650  15.376   5.426   0.339  0.1452  0.1197 -0.2922
 5177W        W21651   4.150  18.142   3.074  0.0728  0.2631  0.2180
 5178W        W21652  15.277  13.203   0.554  0.1079  0.0704 -0.0926
 5179W        W21653  10.251  15.864  12.486  0.2411  0.3123  0.2884
 5180W        W21654  10.159  18.686   0.681 -0.1176 -0.0233  0.2194
 5181W        W21655  10.246   3.464  12.843 -0.1393  0.5681  0.1971
 5182W        W21656  15.079  13.738  15.078  0.1194 -0.2867  0.0281
 5183W        W21657  18.203  10.367  12.230 -0.3622  0.2246 -0.1593
 5184W        W21658  18.569  11.196  14.995 -0.5625 -0.1754 -0.1754
 5185W        W21659  16.059  18.055   5.024  0.0353  0.0756 -0.0332
 5186W        W21660  16.114  13.480  15.298 -0.3194  0.1904  0.0878
 5187W        W21661   8.951  14.596   4.800 -0.0312 -0.2014  0.2471
 5188W        W21662   5.762   3.653  15.300  0.3187  0.4728  0.1683
 5189W        W21663   5.932   6.482   5.052  0.0330 -0.2887  0.1474
 5190W        W21664   0.181  12.325   4.200 -0.1223  0.0251 -0.4441
 5191W        W21665   7.555  18.185  12.489  0.2075  0.0645  0.2872
 5192W        W21666   5.867  17.082  11.371  0.1790  0.1532  0.1241
 5193W        W21667  11.212  10.761   4.949 -0.1990 -0.0983 -0.0037
 5194W        W21668  14.218   3.651   3.639 -0.1685  0.2816 -0.1458
 5195W        W21669  12.677   9.585  15.395  0.1058 -0.0039  0.0354
 5196W        W21670  14.088   3.430  11.847  0.1497 -0.0936 -0.0426
 5197W        W21671   8.269  18.114   4.172  0.3587  0.2831 -0.1939
 5198W        W21672  12.925   8.074   4.174  0.3157 -0.2002 -0.3983
 5199W        W21673   3.178   7.145   3.977 -0.0646 -0.1533  0.2973
 5200W        W21674   0.712   1.903   1.883 -0.0104 -0.2046 -0.0970
 5201W        W21675  14.981  11.441   4.852 -0.1859 -0.2339 -0.2199
 5202W        W21676   8.425   8.863  13.631  0.0575 -0.2241 -0.1494
 5203W        W21677  11.015  18.727   3.887  0.0656  0.0587  0.0358
 5204W        W21678  10.842  14.525   2.322  0.0169 -0.1168 -0.2591
 5205W        W21679  13.877   5.401   1.202  0.0497  0.0840 -0.1174
 5206W        W21680   0.448  17.932  14.700  0.2570 -0.0288 -0.0184
 5207W        W21681   6.444   6.663   2.945 -0.1911 -0.0095  0.5105
 5208W        W21682  11.696  16.553  14.568 -0.1043  0.3885  0.3585
 5209W        W21683   5.527   9.559   3.104  0.0468  0.1407 -0.1033
 5210W        W21684   5.455   5.832   3.434 -0.1816  0.2477  0.3045
 5211W        W21685  13.778   8.875   5.029 -0.4477  0.0670 -0.0940
 5212W        W21686  10.766   5.088  12.672  0.0464  0.1706 -0.2133
 5213W        W21687   9.268   6.608  14.654 -0.1656  0.3149 -0.2513
 5214W        W21688   8.735  14.773   4.354 -0.1558 -0.0580  0.0352
 5215W        W21689  16.039   7.796   1.703 -0.2115 -0.1404 -0.3785
 5216W        W21690   2.753   5.739  12.123 -0.0283  0.1679  0.0717
 5217W        W21691   1.098  11.288  12.959 -0.0351  0.0029 -0.0213
 5218W        W21692   0.400   1.759   4.357 -0.0671 -0.3130 -0.1095
 5219W        W21693   2.569  10.851  12.804  0.0902  0.2934 -0.2291
 5220W        W21694  11.511  15.575   3.506  0.1758 -0.2067 -0.2108
 5221W        W21695  12.941   6.666   3.725 -0.1382 -0.2723 -0.0154
 5222W        W21696   1.765  10.885   0.308  0.1762  0.2737 -0.1674
 5223W        W21697   4.608  13.419   1.564 -0.0555  0.4391  0.2474
 5224W        W21698  17.415  13.136   4.316  0.0576 -0.1533  0.0995
 5225W        W21699   1.663   5.565   3.688 -0.0571  0.2880 -0.0600
 5226W        W21700   9.564   6.069  11.368  0.0590 -0.1441  0.1504
 5227W        W21701   3.898   7.664   3.499 -0.0426 -0.0719  0.2392
 5228W        W21702   5.801   3.324  12.976 -0.0150  0.1813  0.0815
 5229W        W21703  16.521   3.704   4.259 -0.3755  0.3940  0.0327
 5230W        W21704   4.921  15.574  12.488  0.0651  0.0656 -0.3672
 5231W        W21705  15.859  13.396  13.559 -0.3650  0.0497 -0.3128
 5232W        W21706   3.142   3.039  11.796 -0.0147 -0.1184  0.0872
 5233W        W21707   5.382   3.953  15.557  0.1015 -0.0591  0.2439
 5234W        W21708   9.855   9.800   4.801  0.0271 -0.3167  0.0414
 5235W        W21709  11.453   0.351  14.312  0.2180 -0.2527 -0.1236
 5236W        W21710  14.210   1.866  15.152 -0.1936  0.0629 -0.1384
 5237W        W21711  15.136  17.745   3.963  0.0822 -0.1685 -0.2516
 5238W        W21712   1.618   5.415  13.059  0.0583 -0.2019 -0.1518
 5239W        W21713   8.622  15.930  12.649  0.1888  0.1991  0.2740
 5240W        W21714  13.414   2.849   2.507 -0.2305 -0.3198  0.3983
 5241W        W21715   7.578  11.118   2.228  0.2225  0.1455 -0.0838
 5242W        W21716  15.385   3.077   4.812  0.2177  0.0171  0.1093
 5243W        W21717   4.143   7.608   4.166 -0.1139 -0.1342 -0.0603
 5244W        W21718   8.509   0.056   4.522 -0.3924 -0.1049  0.2461
 5245W        W21719  13.832   7.470   3.385 -0.1159  0.1114 -0.0416
 5246W        W21720   9.244   6.068  15.088 -0.0686 -0.1230 -0.0788
 5247W        W21721   4.144   7.135  13.322 -0.1189 -0.1926 -0.0954
 5248W        W21722  15.681  17.632  15.422 -0.2938 -0.1261 -0.1003
 5249W        W21723   0.004  10.171  12.955  0.0889  0.5201  0.0343
 5250W        W21724   9.709   0.599  15.004 -0.0824 -0.0166 -0.3372
 5251W        W21725  12.031  10.189   4.347 -0.0103 -0.0481  0.0749
 5252W        W21726  17.338  17.044  14.324 -0.0449  0.0047 -0.0988
 5253W        W21727  18.105   1.237  12.713  0.1126 -0.1193 -0.0319
 5254W        W21728   6.299   0.619   6.109 -0.0436 -0.2900 -0.2799
 5255W        W21729   2.232  13.648   0.601 -0.3012 -0.1308  0.0522
 5256W        W21730   0.055  12.982  14.806 -0.0265 -0.0690 -0.1013
 5257W        W21731  16.440  13.226   3.929  0.1207  0.0504  0.2183
 5258W        W21732   0.578   7.220   1.432  0.1401 -0.3457  0.1942
 5259W        W21733   6.410   7.812  13.539 -0.3003  0.1644 -0.0719
 5260W        W21734  15.923  10.252  13.155  0.0119  0.3600 -0.1277
 5261W        W21735   7.644   2.300  14.237 -0.2787  0.0629 -0.0117
 5262W        W21736   2.369  14.285   3.828 -0.1082  0.1137  0.2044
 5263W        W21737  13.697  14.693   1.566  0.0320  0.2413  0.1089
 5264W        W21738  13.528   0.552  11.981  0.2358 -0.1119 -0.0108
 5265W        W21739   8.973   5.033  11.477  0.1915  0.0619 -0.0362
 5266W        W21740  14.121  18.446   2.715  0.2262  0.1658  0.1198
 5267W        W21741  12.440   5.342   3.906 -0.2181 -0.2139  0.4297
 5268W        W21742   6.239  18.425  11.995  0.3765  0.1009  0.2225
 5269W        W21743  13.037   3.217   4.898 -0.5428 -0.2580  0.1737
 5270W        W21744   8.180   8.964   4.061 -0.2570  0.1067  0.4228
 5271W        W21745   4.128  12.436  14.567  0.1440 -0.1307 -0.0950
 5272W        W21746   2.295  11.333   0.905  0.0556 -0.0508 -0.2438
 5273W        W21747  14.085   9.880   0.066  0.0256  0.1221  0.1273
 5274W        W21748  16.532  13.938   1.027 -0.0140  0.1064  0.2057
 5275W        W21749   0.047  11.224  11.667 -0.1955 -0.2453 -0.0238
 5276W        W21750  10.635   1.668   0.489 -0.0513 -0.1424  0.0253
 5277W        W21751   9.208  10.680   4.813  0.3409 -0.2885  0.1498
 5278W        W21752   1.120  15.678   2.727  0.2759  0.0552 -0.1089
 5279W        W21753  16.458  10.440   1.200 -0.2488 -0.1760  0.2908
 5280W        W21754   7.681  10.077  13.596  0.0220  0.2054  0.2473
 5281W        W21755  14.854  18.823  11.520 -0.0151 -0.0553 -0.0734
 5282W        W21756   0.285  11.049  12.053 -0.1412 -0.1248  0.1578
 5283W        W21757   1.376   6.739  13.004 -0.0413  0.0470 -0.0044
 5284W        W21758   5.399   3.364  13.339 -0.3093 -0.1898 -0.1541
 5285W        W21759   5.311   4.978   3.080 -0.0490  0.1005  0.1152
 5286W        W21760  14.613   8.498  15.118  0.0344 -0.0100  0.2573
 5287W        W21761   0.979  16.573  10.949  0.1064 -0.0444  0.2022
 5288W        W21762  15.246  16.893  10.503 -0.0172  0.0262 -0.2851
 5289W        W21763   6.255   3.136   4.705  0.2063  0.2633 -0.1551
 5290W        W21764  10.514   3.844   0.261  0.0481 -0.2248  0.0432
 5291W        W21765   6.982   5.664   3.493 -0.3971  0.1090 -0.3177
 5292W        W21766  11.852   9.249   6.128 -0.1327 -0.0293  0.0608
 5293W        W21767   7.904   7.107  15.222  0.0982 -0.0959 -0.1462
 5294W        W21768   9.880  13.813   2.489 -0.0846 -0.0825  0.0410
 5295W        W21769   1.916  16.074  15.455 -0.3937 -0.2074  0.3691
 5296W        W21770  15.897  17.240   9.267  0.3141 -0.0073 -0.0068
 5297W        W21771   9.569   7.311  12.838 -0.0084 -0.1358  0.1263
 5298W        W21772  12.764  18.051  13.127  0.1869  0.1729  0.0216
 5299W        W21773   2.247   2.183   3.477  0.0448  0.2178 -0.0428
 5300W        W21774  14.504   7.960   2.274 -0.0144 -0.1003  0.1078
 5301W        W21775  15.234   6.578  15.577 -0.1564  0.1815 -0.0965
 5302W        W21776   0.897   2.980   2.879 -0.2312  0.1846  0.1929
 5303W        W21777   9.939   1.917  12.504  0.0601  0.1985  0.0802
 5304W        W21778   7.023   6.205   0.455  0.1908 -0.0054  0.3920
 5305W        W21779  11.143   7.798   4.485  0.2435 -0.2233 -0.2345
 5306W        W21780  16.664   5.308  12.929 -0.2427  0.0574 -0.0205
 5307W        W21781  14.878  10.702   3.526  0.0021 -0.1341  0.0810
 5308W        W21782  11.613   4.214   4.186  0.0111 -0.0634  0.3220
 5309W        W21783  13.734  17.583  14.292  0.0705  0.0487 -0.1123
 5310W        W21784  17.309   2.481  10.572  0.1705  0.0219 -0.1487
 5311W        W21785   7.729   4.607  15.439 -0.0246 -0.0874 -0.3782
 5312W        W21786  18.665  16.799   1.454  0.1990  0.2056 -0.2837
 5313W        W21787  17.313  18.209  10.037  0.0819  0.0670  0.2679
 5314W        W21788   5.489  15.706   2.883  0.1405  0.4159 -0.1531
 5315W        W21789  17.353   8.340   4.319 -0.0567  0.0366  0.1806
 5316W        W21790  18.663   4.395   1.361  0.0826 -0.0998 -0.0226
 5317W        W21791  17.229   1.449   4.982 -0.0280  0.2273  0.0835
 5318W        W21792  17.670   1.642   0.974  0.1610 -0.0133 -0.1133
 5319W        W21793   6.988  17.573   1.001  0.2849 -0.0977 -0.2985
 5320W        W21794  16.261  18.808  14.935 -0.0025 -0.0811 -0.0106
 5321W        W21795   4.393  17.427  13.162 -0.0154 -0.0041  0.1217
 5322W        W21796  14.996  13.187  14.589  0.1279 -0.1020  0.0150
 5323W        W21797  11.067   0.135   2.067 -0.0049  0.0190 -0.2802
 5324W        W21798   3.275  17.668  15.405 -0.0609 -0.1755 -0.2752
 5325W        W21799  10.933   2.373   5.203 -0.0208  0.1425  0.1807
 5326W        W21800   5.880  17.605  12.666  0.0905 -0.2394  0.1773
 5327W        W21801   9.249   2.254  11.351  0.0578 -0.1028 -0.0539
 5328W        W21802  13.730  13.093  12.106 -0.1753  0.0694 -0.0341
 5329W        W21803   0.468   4.098   4.919 -0.0675 -0.0943  0.1226
 5330W        W21804   7.881  14.119  12.537 -0.0029  0.1057 -0.0001
 5331W        W21805   3.822   1.507  11.653 -0.2464  0.1168 -0.1222
 5332W        W21806   9.406   5.853  14.120 -0.0961  0.1539  0.2736
 5333W        W21807  10.489   8.721   3.061  0.2771  0.0428 -0.1199
 5334W        W21808  14.200  12.935   2.088  0.0888 -0.0956 -0.1559
 5335W        W21809   0.044   1.577   1.161  0.0211  0.3152  0.1207
 5336W        W21810  16.381   1.541   5.303  0.1222  0.1875 -0.1986
 5337W        W21811   9.075   7.592  13.308  0.1803 -0.0732 -0.1379
 5338W        W21812   3.710   8.707  15.644 -0.2083  0.1326 -0.3056
 5339W        W21813  18.489  14.532   2.950 -0.3959 -0.0644 -0.0680
 5340W        W21814   3.217  10.761   1.132  0.0897  0.0188  0.1911
 5341W        W21815   3.177   3.623   0.058 -0.1489  0.1364  0.1233
 5342W        W21816  18.732  12.472  15.688  0.0240  0.1725 -0.1736
 5343W        W21817   9.600  12.300  13.321  0.2438 -0.0482 -0.2153
 5344W        W21818   7.705   0.480   2.959 -0.2537  0.0741 -0.3283
 5345W        W21819  17.688   2.524  14.286 -0.2417 -0.1470 -0.3415
 5346W        W21820  17.179   0.885   1.962  0.2826  0.1307 -0.4282
 5347W        W21821   1.414   8.856   4.211 -0.2959  0.3599  0.1450
 5348W        W21822  11.369   6.052  13.499  0.2446 -0.1460  0.1984
 5349W        W21823   5.210   2.935   5.016 -0.3730  0.2535 -0.1914
 5350W        W21824  14.005  17.686   4.073 -0.0952 -0.0429  0.1147
 5351W        W21825  12.850   0.306   3.816 -0.0154 -0.0876 -0.0320
 5352W        W21826   4.359   0.793   3.301 -0.0860  0.0525 -0.0768
 5353W        W21827  16.402  10.599   2.480  0.0300  0.4503 -0.0524
 5354W        W21828   4.300   7.402   2.527  0.0581  0.0393  0.0271
 5355W        W21829  11.783  17.278   0.872 -0.0347 -0.2697  0.0715
 5356W        W21830   9.322  12.477   3.530  0.1148 -0.1503  0.0765
 5357W        W21831   8.089  17.507  13.111 -0.5690  0.1839  0.2287
 5358W        W21832  17.823   0.289   1.975  0.1316  0.3084 -0.1513
 5359W        W21833  13.858  15.750  11.471 -0.1812  0.0080 -0.1208
 5360W        W21834  16.126   2.453  13.210  0.1232 -0.3244 -0.0251
 5361W        W21835  18.296   3.944  12.262  0.2716 -0.2164 -0.0473
 5362W        W21836   8.634   0.207   3.277  0.1920 -0.0641 -0.0585
 5363W        W21837  17.460   3.203   2.527  0.0930 -0.0925 -0.4611
 5364W        W21838  14.060   5.107   2.901  0.1980 -0.2164  0.4661
 5365W        W21839   6.772  14.866   4.505  0.1886  0.0981  0.0160
 5366W        W21840   2.435  13.916  11.774  0.3473  0.2016 -0.0285
 5367W        W21841   8.220   4.196   2.805 -0.0361 -0.0687  0.2490
 5368W        W21842   0.780   3.158  14.190 -0.0405  0.1672  0.2923
 5369W        W21843  10.969   5.630  12.599  0.0764 -0.0501  0.0831
 5370W        W21844   7.836  15.420  15.271  0.2364  0.3672  0.1944
 5371W        W21845  16.655  10.358  14.768 -0.1102 -0.1049  0.1525
 5372W        W21846   9.432   9.442   4.655  0.1879  0.2309  0.1827
 5373W        W21847   8.272  16.453   0.729 -0.0276 -0.2718 -0.0625
 5374W        W21848  12.400  14.168  11.671  0.0856 -0.4280  0.1376
 5375W        W21849  18.518  11.738  11.876 -0.3609 -0.1770  0.2317
 5376W        W21850   0.522   0.396   4.711 -0.0012 -0.0103  0.0220
 5377W        W21851   5.716   9.572   0.314 -0.2032  0.1131 -0.1703
 5378W        W21852   4.287   1.289   3.508  0.2795 -0.2173  0.0587
 5379W        W21853   7.631  15.044  12.910  0.1910 -0.1087 -0.1843
 5380W        W21854  18.674   3.543  13.667  0.1116 -0.2011 -0.2839
 5381W        W21855   7.097  12.032  13.729  0.2579  0.0465  0.2807
 5382W        W21856  18.604  13.668  10.566  0.0215 -0.1882  0.1762
 5383W        W21857  13.299   4.377  15.174 -0.0498  0.1982  0.1748
 5384W        W21858   6.755  13.244  12.755 -0.0248 -0.2721 -0.1138
 5385W        W21859   9.331   3.136  12.333  0.2397  0.0951  0.0088
 5386W        W21860  15.384  18.572   0.117 -0.1729 -0.0476  0.2311
 5387W        W21861   3.871   6.614   2.400  0.2052  0.0420  0.0265
 5388W        W21862   2.236   0.563  15.017 -0.0634 -0.0019 -0.2378
 5389W        W21863   6.967  17.540   2.606 -0.1967 -0.1376 -0.1861
 5390W        W21864   9.300   2.734  13.381  0.2822 -0.1525 -0.1438
 5391W        W21865  12.312  14.444  13.742  0.0280 -0.1564  0.1451
 5392W        W21866  17.041  16.905  15.513 -0.2034 -0.1424 -0.0049
 5393W        W21867  10.502  15.665   0.884  0.2129  0.1362 -0.4340
 5394W        W21868  18.618   8.623  15.587 -0.2762 -0.2244  0.0828
 5395W        W21869  15.506  11.429  15.174  0.0353 -0.4207  0.0266
 5396W        W21870  12.684   1.620   0.989 -0.0124  0.2414 -0.1733
 5397W        W21871   7.335   6.950  12.910  0.2927  0.0495 -0.0029
 5398W        W21872   2.674  14.491  15.005 -0.1315  0.0932  0.0650
 5399W        W21873   9.286   7.872   5.807 -0.0535  0.2250 -0.3589
 5400W        W21874   8.213  13.693  15.105  0.4579  0.1677  0.0294
 5401W        W21875   1.430  14.386   5.000 -0.2122 -0.0244  0.1550
 5402W        W21876  13.097  18.416  14.881 -0.2102 -0.1450  0.0148
 5403W        W21877   3.022  11.013  14.888  0.0844 -0.0805  0.4029
 5404W        W21878  11.296  16.035   4.624  0.3479  0.4224 -0.2057
 5405W        W21879  11.346  12.537   3.500  0.1537 -0.1004 -0.1946
 5406W        W21880   7.353  10.291   4.477  0.0437  0.6040  0.0312
 5407W        W21881   8.924   3.275   5.001  0.0041  0.3845 -0.1241
 5408W        W21882  15.525   1.017   2.437  0.4487  0.1379  0.1425
 5409W        W21883   4.848   9.243  13.972 -0.3025 -0.1072 -0.1807
 5410W        W21884  11.994   7.255  13.220 -0.3556 -0.1944 -0.0333
 5411W        W21885   6.645   6.924  11.334  0.0569  0.1722 -0.1405
 5412W        W21886   4.564   9.420  11.949 -0.3805  0.3056 -0.0215
 5413W        W21887   4.303  15.322  15.536 -0.0353 -0.0942  0.4578
 5414W        W21888   1.867   2.125  14.071  0.2149 -0.0322 -0.0185
 5415W        W21889  14.395   2.693   0.468  0.0333 -0.2523 -0.4155
 5416W        W21890   8.692  14.576   1.098  0.3987  0.1520  0.1887
 5417W        W21891   0.656   1.770   3.372 -0.1727  0.0418  0.1754
 5418W        W21892   4.048  14.663   3.113 -0.0221 -0.0938  0.1281
 5419W        W21893  13.126   8.528   3.547 -0.1491 -0.0642 -0.0885
 5420W        W21894  18.201  10.794   1.366  0.1162  0.1312 -0.1845
 5421W        W21895  16.717   6.160  11.794 -0.0143  0.0443  0.4902
 5422W        W21896  11.359  15.979   1.775  0.1608 -0.1983  0.0854
 5423W        W21897   7.383   5.909  13.090 -0.2311  0.4081  0.0565
 5424W        W21898  16.755   8.918  15.467 -0.0020  0.1914  0.0838
 5425W        W21899   4.936  12.872   0.681 -0.1561  0.2422 -0.2141
 5426W        W21900   3.719   1.060  11.770  0.1960 -0.1603 -0.0668
 5427W        W21901   9.674  14.017  13.979 -0.1432 -0.1145  0.0135
 5428W        W21902  12.352  18.425  12.970 -0.1309  0.2557 -0.0165
 5429W        W21903  16.751  10.856  14.588  0.1456  0.0015 -0.0308
 5430W        W21904   7.160  10.179   1.257  0.0872 -0.2457  0.3975
 5431W        W21905   2.378   5.047   2.489 -0.1196  0.0564 -0.0917
 5432W        W21906  11.859  17.471   3.591 -0.3879 -0.1921 -0.1255
 5433W        W21907  17.350   2.131  13.636  0.0349  0.2155 -0.3228
 5434W        W21908   6.276  12.970  14.075  0.1589 -0.1610 -0.0759
 5435W        W21909  15.104   3.540   3.423  0.0666  0.0714 -0.0137
 5436W        W21910  16.318  15.446  12.181 -0.2371  0.0087  0.0211
 5437W        W21911  18.375   4.429  14.613  0.0858 -0.2748  0.2318
 5438W        W21912   4.806   8.811  11.765 -0.0893 -0.1940 -0.3403
 5439W        W21913   5.398   7.523  15.376  0.0899 -0.1587 -0.3215
 5440W        W21914  11.647  18.661   1.737 -0.2831 -0.0574  0.0817
 5441W        W21915   1.804   1.682   0.753  0.0571 -0.1519 -0.3192
 5442W        W21916   3.713   9.511  11.932 -0.0586 -0.1346  0.0196
 5443W        W21917  10.661   8.852  12.454  0.1929 -0.1061 -0.0146
 5444W        W21918   5.279  11.467  13.697  0.1261  0.1672 -0.3120
 5445W        W21919   0.492  14.204  14.024 -0.0856 -0.1974 -0.3848
 5446W        W21920   0.167  17.667   0.224 -0.0886 -0.1889  0.0968
 5447W        W21921  13.788  17.146   0.192  0.2035  0.4880  0.1740
 5448W        W21922   0.746  16.098   4.815  0.3524  0.1593  0.1830
 5449W        W21923  14.757   5.985   0.535 -0.1062 -0.0412  0.2302
 5450W        W21924  11.407   8.306  14.575  0.1237 -0.1502  0.0838
 5451W        W21925   2.581   0.153   0.131  0.0437 -0.0539  0.1561
 5452W        W21926  14.835  14.140  13.053 -0.1064 -0.0590  0.0640
 5453W        W21927   1.139   1.054  10.754 -0.3495 -0.2361 -0.3936
 5454W        W21928   4.125  15.449  15.074 -0.6006  0.2726  0.0160
 5455W        W21929   7.734   1.394  13.076  0.0716  0.2749 -0.0030
 5456W        W21930  14.215   8.089   2.709 -0.0485  0.2102 -0.2730
 5457W        W21931  12.361   7.078   2.881  0.0249 -0.1145  0.0630
 5458W        W21932  12.586  15.080   4.271  0.0641 -0.4347  0.0810
 5459W        W21933  17.490   5.825  14.946 -0.2439  0.1196 -0.0772
 5460W        W21934   6.182   9.930  12.406  0.0446  0.0627 -0.1304
 5461W        W21935  12.473  16.982   4.180  0.1225 -0.0498  0.0836
 5462W        W21936  16.845   0.318   4.606  0.5343  0.0075  0.4868
 5463W        W21937   5.532   8.845   3.699 -0.2309  0.0524 -0.0847
 5464W        W21938   8.668   6.397   3.504  0.2810  0.0054 -0.1446
 5465W        W21939  14.917  18.639  15.512  0.0798  0.1563 -0.1394
 5466W        W21940  14.939   7.927   0.847  0.0672  0.1106 -0.0442
 5467W        W21941  13.848   6.432  14.867  0.0862  0.1684  0.0004
 5468W        W21942  15.177  15.505  12.819 -0.0132  0.2866 -0.1437
 5469W        W21943  13.452   8.457   0.314 -0.0982  0.2804 -0.0414
 5470W        W21944   9.555  14.195   3.751  0.1106  0.2466  0.2374
 5471W        W21945  14.325   5.279  11.892 -0.0381  0.0996 -0.2438
 5472W        W21946   1.823  16.699   5.440 -0.1216 -0.1341  0.4784
 5473W        W21947  14.962   7.902   5.872 -0.5754 -0.1885 -0.1118
 5474W        W21948  17.395  12.771  10.366 -0.0875  0.2244  0.1824
 5475W        W21949   2.296   2.100   1.287  0.1159  0.1222  0.2182
 5476W        W21950   3.824   9.730   3.771 -0.0907 -0.2357  0.0708
 5477W        W21951  17.677  15.156   0.862 -0.3220 -0.0917 -0.1333
 5478W        W21952   2.331   8.052   5.201 -0.1378 -0.2421  0.0315
 5479W        W21953  10.657  16.072  12.566 -0.2416 -0.1015  0.0661
 5480W        W21954  10.061   3.910   1.519 -0.0715  0.0183  0.2746
 5481W        W21955   9.096   0.770   5.852  0.0877 -0.1381 -0.0384
 5482W        W21956  10.109   0.251  13.725  0.1402  0.1087  0.0824
 5483W        W21957   5.738  17.393  15.674 -0.3222 -0.3294  0.0672
 5484W        W21958   9.961   4.675   5.552  0.2037 -0.0650  0.2920
 5485W        W21959   1.712  18.550   4.785  0.0776 -0.1057 -0.0403
 5486W        W21960  10.335  15.025  13.776 -0.2190  0.2888  0.0801
 5487W        W21961  18.280  12.752   3.992 -0.0041  0.1233 -0.0397
 5488W        W21962   5.841   4.433  10.931 -0.5637  0.3065  0.2817
 5489W        W21963  18.517   4.769   1.801  0.2073 -0.1667 -0.0473
 5490W        W21964   9.726  12.619   0.169 -0.0582  0.3025  0.1852
 5491W        W21965  14.338  16.013   9.989 -0.0868  0.2022 -0.1654
 5492W        W21966  17.295  10.781   0.896 -0.1405  0.3187 -0.1916
 5493W        W21967  14.857   5.646  14.014  0.0158 -0.2732 -0.0678
 5494W        W21968   4.841   8.509   5.901 -0.2791  0.1580  0.1370
 5495W        W21969   5.373   4.607   1.610 -0.0086 -0.1007 -0.0270
 5496W        W21970   0.972  14.106  13.042 -0.1172 -0.1497 -0.1188
 5497W        W21971  16.204  16.033   0.827 -0.1190 -0.0099  0.1084
 5498W        W21972  17.024   7.882   3.558  0.0448  0.0613 -0.0270
 5499W        W21973   0.998  15.328  15.595 -0.3624  0.0944  0.2529
 5500W        W21974   8.473  14.682   2.944 -0.1776 -0.1989  0.0796
 5501W        W21975  13.637   2.819  13.003  0.1163  0.1448  0.1735
 5502W        W21976   1.976  12.402  14.042  0.0014  0.0828  0.0815
 5503W        W21977  11.469   1.469  11.869  0.0733 -0.0718  0.1650
 5504W        W21978   9.955  12.077  13.120  0.2655 -0.0007 -0.0783
 5505W        W21979  10.099   7.585   4.556 -0.1365  0.0414 -0.2508
 5506W        W21980   6.322  11.461  14.203 -0.0733  0.2029 -0.0657
 5507W        W21981  17.061   6.784   2.877  0.0619  0.2400 -0.1310
 5508W        W21982  12.149  12.414  15.515 -0.1471 -0.0274 -0.2375
 5509W        W21983   5.732  11.763   4.443 -0.1022  0.1656  0.1999
 5510W        W21984   5.481   6.524   0.857 -0.0247 -0.1371 -0.0686
 5511W        W21985   2.400   5.730   4.586 -0.1431  0.1662 -0.1215
 5512W        W21986  14.641  16.978   0.306 -0.1306  0.1095 -0.1280
 5513W        W21987  15.110  10.473   1.133  0.3367 -0.3121 -0.2464
 5514W        W21988   7.848   6.294   2.016 -0.1831 -0.4975  0.0642
 5515W        W21989   6.305  14.640   2.756 -0.1813 -0.3756 -0.1038
 5516W        W21990   5.868  10.373   0.985  0.3400 -0.0589  0.0232
 5517W        W21991  10.920   9.551   1.984 -0.1011  0.3373  0.0234
 5518W        W21992   1.557  10.571   2.255  0.0949 -0.0860 -0.1416
 5519W        W21993  16.717  15.908  13.242  0.0120 -0.3808 -0.2100
 5520W        W21994   7.748   8.750   2.300  0.0395 -0.2460  0.0722
 5521W        W21995  13.903   7.771  15.660 -0.2273 -0.2170  0.0286
 5522W        W21996  14.630   5.325  12.630  0.0351 -0.2798  0.0419
 5523W        W21997  14.381   1.029   4.768  0.2987  0.2495 -0.1803
 5524W        W21998   7.195   0.277   3.485 -0.0977 -0.1869  0.2614
 5525W        W21999  14.558   8.792  12.378 -0.3467 -0.0606 -0.0689
 5526W        W22000  13.169  17.975  13.463  0.0612  0.1844 -0.2257
 5527W        W22001  18.031   2.425   1.118  0.0844  0.4528 -0.2569
 5528W        W22002   0.154   9.243  15.058  0.1783 -0.0836 -0.1142
 5529W        W22003   7.465  12.015   0.895  0.2107  0.1198  0.1060
 5530W        W22004   7.396   8.902   4.883  0.1758  0.2295  0.1618
 5531W        W22005  16.964   5.072  10.530  0.0668  0.3336 -0.1972
 5532W        W22006  12.930  14.235  11.649 -0.4210 -0.1572 -0.0695
 5533W        W22007   9.316  14.778  15.130  0.5454 -0.2094  0.2306
 5534W        W22008   3.586   9.156   4.578 -0.2225 -0.2567  0.1204
 5535W        W22009   4.911  14.175  12.528 -0.2382  0.2725  0.2816
 5536W        W22010   8.463   1.972   5.916 -0.0444 -0.1665 -0.1708
 5537W        W22011  11.470  16.178   5.119 -0.1112 -0.1161  0.0395
 5538W        W22012   2.000  17.210   0.274  0.1957  0.3482  0.3962
 5539W        W22013   7.672  13.906   4.316 -0.3211 -0.1058 -0.0892
 5540W        W22014   1.517   8.996  11.511  0.1735 -0.2833  0.3382
 5541W        W22015  14.614   2.200  10.923  0.2631 -0.0583  0.0026
 5542W        W22016  16.078  13.589   4.568 -0.1839 -0.1659 -0.3567
 5543W        W22017   0.540  18.086   3.894  0.0726 -0.0429 -0.0115
 5544W        W22018   4.431   5.408   2.927  0.3280  0.1294 -0.2194
 5545W        W22019   8.645   7.201  13.586  0.1494 -0.3024  0.3647
 5546W        W22020  12.310  16.016   3.792  0.1808 -0.1876 -0.2163
 5547W        W22021  14.970  12.019   3.982  0.1579 -0.1534  0.0605
 5548W        W22022  15.961  16.991  13.962  0.1139 -0.0066  0.3854
 5549W        W22023  10.120   5.362  14.605  0.1415  0.1325  0.1568
 5550W        W22024   5.167   7.377   2.258  0.0887  0.0496 -0.0890
 5551W        W22025  17.957  16.820  11.428  0.0650  0.0525 -0.1539
 5552W        W22026  13.304   2.237  14.525 -0.1310  0.2466 -0.3757
 5553W        W22027  11.182   0.123  10.583 -0.2751  0.1583 -0.0604
 5554W        W22028  10.006   5.927  11.184  0.0104  0.1833 -0.1344
 5555W        W22029  13.301   0.372  12.406  0.2463 -0.0663  0.0272
 5556W        W22030  16.878  13.023  14.461  0.0302 -0.0721 -0.3633
 5557W        W22031   9.155   1.614  14.646 -0.3075 -0.1839  0.2389
 5558W        W22032   5.024  12.386   0.756 -0.0249  0.1282 -0.2536
 5559W        W22033  13.630   7.826  12.943 -0.2982 -0.0077 -0.0062
 5560W        W22034  11.741   2.180   3.639  0.3669  0.0804  0.0882
 5561W        W22035  18.580  16.609  13.143  0.0471  0.0245 -0.1255
 5562W        W22036   5.048   3.988  14.148 -0.0810 -0.0185  0.0532
 5563W        W22037   0.727  16.924   4.007 -0.2423  0.0102 -0.2150
 5564W        W22038  18.464  16.231  12.115 -0.1064  0.0692 -0.0263
 5565W        W22039  14.123   6.086  10.688 -0.0247  0.0337 -0.0614
 5566W        W22040   4.373   2.497   1.296 -0.0396 -0.2170 -0.1471
 5567W        W22041  15.089   2.011   1.220 -0.0725 -0.0445  0.0534
 5568W        W22042  10.694   3.942   3.157 -0.0596 -0.1499 -0.0390
 5569W        W22043  13.398   8.195   4.407  0.1190  0.1015 -0.1942
 5570W        W22044  15.041  17.826   2.645  0.0923 -0.1186 -0.3586
 5571W        W22045  13.024   8.146  14.725  0.0248  0.0995 -0.1696
 5572W        W22046   8.289  12.713  13.563  0.2333  0.0783 -0.0553
 5573W        W22047  18.107  13.302   4.213  0.0433  0.0071  0.2118
 5574W        W22048  13.176  18.333   1.889  0.2859 -0.1024  0.2523
 5575W        W22049  11.417   6.219  15.384 -0.2169  0.1183 -0.0684
 5576W        W22050  11.505   2.199   2.548  0.1400 -0.3217  0.0779
 5577W        W22051   2.694  14.994   4.256  0.3080  0.0868  0.0584
 5578W        W22052  12.171  11.979  15.237  0.0073 -0.0744  0.1606
 5579W        W22053  11.845  15.339  11.012 -0.3659 -0.3518 -0.3311
 5580W        W22054   6.936  14.382   6.059 -0.1609  0.1143 -0.1284
 5581W        W22055   1.417  13.907  12.334 -0.0628  0.0110 -0.3533
 5582W        W22056   0.718  16.732   4.515 -0.1148 -0.1854  0.1470
 5583W        W22057  18.421  15.601   1.202  0.1064 -0.0669 -0.0858
 5584W        W22058  13.165  10.764  14.548  0.2696 -0.1440  0.1691
 5585W        W22059   2.418  14.045  13.604 -0.0429 -0.0499 -0.1361
 5586W        W22060   2.380   1.012   3.736 -0.2587  0.0169 -0.1301
 5587W        W22061   5.827  16.919  15.563  0.2219 -0.0656 -0.0624
 5588W        W22062   4.779  17.660  12.775 -0.2598  0.5145  0.1794
 5589W        W22063  12.538  11.897   1.625  0.1041 -0.4241 -0.1587
 5590W        W22064   1.697   2.014   1.492 -0.1428 -0.0185  0.2767
 5591W        W22065  18.383   8.104  12.419 -0.0757  0.0187 -0.0317
 5592W        W22066   6.376   8.477  13.357 -0.2267 -0.2484  0.3117
 5593W        W22067  18.430  14.920   5.422 -0.0654  0.0853 -0.0413
 5594W        W22068   0.519   5.634   4.967  0.0957 -0.2522  0.2040
 5595W        W22069  13.746   3.910   4.958  0.0453 -0.2543  0.1884
 5596W        W22070  18.429  11.876  15.343 -0.0210 -0.0652  0.0945
 5597W        W22071   6.874   2.403   1.946 -0.1999  0.0563 -0.0046
 5598W        W22072  13.835   6.079  10.182 -0.3203  0.1706  0.1874
 5599W        W22073  14.712  12.293   2.767 -0.1858 -0.0574 -0.0608
 5600W        W22074   4.174  11.909  13.177  0.1665  0.2600 -0.0134
 5601W        W22075   4.947   0.690   0.763  0.0171  0.4203 -0.2555
 5602W        W22076   3.996  14.606   0.476  0.1679 -0.3104  0.0466
 5603W        W22077  18.807  15.197  12.560  0.3392 -0.3076  0.1544
 5604W        W22078   2.451  18.551  13.063 -0.0841 -0.0365  0.0196
 5605W        W22079  10.645   8.902   0.565 -0.0815 -0.0899 -0.0751
 5606W        W22080  15.067  13.250  10.524  0.0582  0.2291 -0.1674
 5607W        W22081   6.540  17.523  13.884 -0.2168 -0.2594 -0.1045
 5608W        W22082  12.601   7.112   3.724 -0.2673  0.1417  0.0192
 5609W        W22083  15.432   7.396  15.150  0.0015  0.3918  0.5327
 5610W        W22084  18.706  14.451   0.106  0.0628 -0.1512  0.1827
 5611W        W22085  15.249  12.578   2.120  0.3633 -0.0029  0.1914
 5612W        W22086  12.592  12.555   4.312  0.0411 -0.0983  0.1603
 5613W        W22087  16.155  17.021   0.435 -0.3480 -0.1323  0.3447
 5614W        W22088   2.155  13.535  12.021 -0.1080 -0.0224 -0.0804
 5615W        W22089  14.086   1.809  15.630  0.0453 -0.0566 -0.3987
 5616W        W22090  17.383   3.500   2.184  0.0541 -0.4745 -0.0425
 5617W        W22091  17.956   9.005   3.920 -0.0884 -0.2331 -0.2185
 5618W        W22092   5.639  16.247  12.639 -0.1323  0.0967 -0.1278
 5619W        W22093  10.706   8.256  15.476 -0.0357  0.0361 -0.1827
 5620W        W22094   2.656   0.674   2.821 -0.2978 -0.0615 -0.2410
 5621W        W22095  15.615  16.463  11.978  0.0950 -0.2885  0.1778
 5622W        W22096  16.899  17.051  14.557 -0.1349 -0.2921  0.0165
 5623W        W22097   5.615  17.854  15.461 -0.1372 -0.0139  0.0152
 5624W        W22098   2.719   1.824   4.514  0.0251 -0.2884 -0.3048
 5625W        W22099  16.735   0.155  12.773 -0.0079 -0.0995 -0.1534
 5626W        W22100   6.051   8.715   1.755  0.1628 -0.4948 -0.0125
 5627W        W22101  17.020  15.636   1.265 -0.0246  0.0557  0.2092
 5628W        W22102   8.674  12.475  12.330  0.1341  0.0168  0.0966
 5629W        W22103   8.709   0.094   5.018 -0.0273  0.0610 -0.0593
 5630W        W22104   0.417  13.247  12.641 -0.1941 -0.2107  0.0291
 5631W        W22105  17.064  13.209  12.869 -0.0912 -0.0686 -0.0703
 5632W        W22106   8.761   7.319   3.463  0.1160  0.1756 -0.0687
 5633W        W22107  18.156   3.806   2.287  0.2366 -0.0698 -0.1290
 5634W        W22108  17.030   9.863  10.584  0.3307 -0.0422  0.0283
 5635W        W22109  12.230  17.491   2.158  0.0487  0.3536 -0.1560
 5636W        W22110   5.137  10.229   3.450 -0.1816 -0.0069  0.0676
 5637W        W22111   3.492  14.879  10.411 -0.2483  0.0804  0.0103
 5638W        W22112   7.841  16.499  15.099 -0.2320  0.1754 -0.3385
 5639W        W22113   6.205   6.725  11.976  0.2463 -0.1842  0.0431
 5640W        W22114  13.111  10.370  14.942 -0.0331 -0.1280 -0.0407
 5641W        W22115  14.301  12.084   0.453  0.3329  0.0755 -0.0575
 5642W        W22116   8.659  16.648  13.058  0.2278 -0.0581 -0.0798
 5643W        W22117  12.606   2.356   3.888 -0.1469 -0.0712 -0.0968
 5644W        W22118   9.174   1.165  12.358 -0.3536  0.1072 -0.3057
 5645W        W22119   8.693   3.427  15.470 -0.3667  0.0182 -0.0190
 5646W        W22120   3.327   4.290   0.949  0.1227 -0.3468 -0.1139
 5647W        W22121   6.357  16.216   3.160 -0.1392  0.2444 -0.0849
 5648W        W22122  16.248  17.015   3.074  0.1488 -0.0038 -0.0040
 5649W        W22123   1.640   1.722  15.333  0.0578 -0.0959  0.1579
 5650W        W22124   0.946   3.891   4.006 -0.1481  0.0376 -0.1359
 5651W        W22125  11.139  17.479  12.513 -0.2116  0.0151 -0.0116
 5652W        W22126  10.452   0.161   3.327  0.1729  0.1394 -0.2786
 5653W        W22127   7.126  12.882   3.481 -0.0037 -0.0197 -0.0277
 5654W        W22128  11.658   9.149  13.102  0.1519  0.0003 -0.0393
 5655W        W22129  18.443  17.798   3.070 -0.1181  0.0095  0.0091
 5656W        W22130  12.272   7.840  14.553  0.3506 -0.2995 -0.1592
 5657W        W22131  16.566   3.966  12.307  0.0389  0.0060 -0.0497
 5658W        W22132   2.025   0.851  12.566  0.3767  0.1607  0.3659
 5659W        W22133   9.079  12.503  13.520 -0.0930 -0.0410 -0.0666
 5660W        W22134   4.432  17.739  14.736 -0.1546  0.2659 -0.1813
 5661W        W22135   9.656  11.043   0.511  0.1235 -0.1422  0.0978
 5662W        W22136   0.283   7.374   1.879 -0.1125  0.2351  0.0008
 5663W        W22137   2.836  11.696   2.752  0.1009 -0.2171 -0.1017
 5664W        W22138   5.780   7.514   4.937  0.0711 -0.0876  0.1841
 5665W        W22139  18.753   1.045   1.149  0.0393 -0.0482 -0.1872
 5666W        W22140  12.732   4.324  12.183  0.3423 -0.4010 -0.1160
 5667W        W22141   8.784  15.891   1.220 -0.1579 -0.1268 -0.3123
 5668W        W22142  17.413   3.016   0.742  0.1086 -0.0236 -0.2915
 5669W        W22143  18.353  11.149  12.838 -0.2093  0.1802  0.5324
 5670W        W22144  11.168   9.916  13.762  0.0726 -0.0857 -0.1336
 5671W        W22145   1.655   9.622  15.478 -0.0006 -0.1994 -0.0604
 5672W        W22146  10.313  14.852  11.234  0.0009 -0.0433  0.0226
 5673W        W22147   4.343  11.721  11.798 -0.0787 -0.1669  0.0358
 5674W        W22148   5.399   4.442  14.759  0.1066  0.1322  0.1342
 5675W        W22149  12.142   6.043   3.342  0.0473  0.1138  0.1091
 5676W        W22150   8.773  16.641   0.735 -0.1429 -0.1872  0.0033
 5677W        W22151  15.787  10.131  11.645 -0.2230 -0.1071 -0.1727
 5678W        W22152   9.508   3.334   4.906 -0.0028 -0.0542  0.2755
 5679W        W22153   2.214   0.267  10.536 -0.1840  0.1413 -0.1204
 5680W        W22154   9.445   2.044  12.507  0.6026 -0.3230 -0.2382
 5681W        W22155   9.768   0.153  15.170 -0.0062 -0.1057 -0.1941
 5682W        W22156   2.980   6.010   2.397 -0.0347 -0.0460  0.0508
 5683W        W22157  15.811   1.382  14.136  0.1324  0.0627  0.2602
 5684W        W22158  14.289   2.985  11.059 -0.0178 -0.0861 -0.0355
 5685W        W22159  11.252  16.436   3.045  0.0488  0.1111  0.3564
 5686W        W22160   7.656   3.581   5.397 -0.1478  0.0010 -0.1847
 5687W        W22161   2.826  10.171  12.520 -0.2967  0.2423  0.1542
 5688W        W22162  15.233  14.366   3.134  0.0469 -0.2833 -0.1212
 5689W        W22163   0.512  14.259   3.880 -0.1981  0.0783  0.3035
 5690W        W22164  15.139   5.378  12.387  0.0327  0.2571  0.2009
 5691W        W22165   7.400   7.446   6.035 -0.2266  0.1943  0.0513
 5692W        W22166  15.781   5.456  13.696 -0.1604 -0.0146  0.1309
 5693W        W22167   4.621   2.247   3.710  0.2613 -0.0910  0.0356
 5694W        W22168  18.709   1.023  15.405 -0.1916  0.2060  0.3294
 5695W        W22169   3.037  11.689  15.408  0.0343 -0.0101  0.5108
 5696W        W22170  10.534  17.480  11.530 -0.0437  0.2679 -0.1060
 5697W        W22171   3.648   3.932  14.543  0.1670 -0.2402 -0.3146
 5698W        W22172   6.858   8.014  14.437 -0.2569 -0.0408 -0.1184
 5699W        W22173   2.556   7.973  13.725 -0.3912 -0.0682  0.2188
 5700W        W22174  15.259   8.861  12.987  0.2980 -0.0149 -0.0869
 5701W        W22175   4.669   1.389  13.260 -0.1576 -0.0100  0.2057
 5702W        W22176   0.838   0.947  13.041  0.1219 -0.2158  0.0677
 5703W        W22177   3.232  13.222   4.350  0.0393 -0.1290  0.2153
 5704W        W22178  17.765   3.974   4.504  0.0918 -0.2237  0.1444
 5705W        W22179  15.573  13.967  10.669 -0.1664  0.0241  0.0493
 5706W        W22180  15.392   2.476   4.394 -0.0134 -0.1915 -0.0968
 5707W        W22181  10.290  11.445  14.822  0.0065 -0.1029  0.0993
 5708W        W22182  15.135   6.073   3.310 -0.0274  0.0838 -0.0542
 5709W        W22183   1.159   2.759   1.510  0.0820  0.0371 -0.3866
 5710W        W22184   2.524  15.929  14.276 -0.2846 -0.3278  0.0409
 5711W        W22185  11.155  14.337   0.710 -0.1995  0.2367 -0.2379
 5712W        W22186   8.437   8.187  15.446 -0.2283 -0.3068 -0.3134
 5713W        W22187  15.907  16.152   3.952  0.0068  0.1244 -0.0800
 5714W        W22188   6.876  13.413  13.228 -0.1312 -0.4319 -0.1966
 5715W        W22189  18.150   8.590   3.715 -0.1767  0.2075  0.3867
 5716W        W22190   3.200   8.446  11.898 -0.4657 -0.0847 -0.0590
 5717W        W22191   4.771   1.211  15.049 -0.1160 -0.2319  0.3850
 5718W        W22192   5.027   7.749   1.312  0.5068  0.0791 -0.1325
 5719W        W22193  14.324   7.217  13.070  0.0273 -0.3191  0.2632
 5720W        W22194  16.593  15.719  10.173 -0.2081  0.0361 -0.1531
 5721W        W22195   5.557   1.289   1.752  0.0273  0.3970 -0.2854
 5722W        W22196  15.142  17.106  11.399 -0.2381  0.4624  0.2572
 5723W        W22197   4.487   5.935  13.014 -0.3460  0.1554 -0.2711
 5724W        W22198   7.560   6.858   2.677  0.1874 -0.1206 -0.1231
 5725W        W22199   5.812   6.352   0.154 -0.2317 -0.0520 -0.1758
 5726W        W22200   1.310   6.759  11.542 -0.1727  0.1851 -0.2692
 5727W        W22201  15.537   6.390  14.701 -0.0222 -0.0112 -0.2480
 5728W        W22202   5.540   5.512   4.945 -0.3712  0.2353 -0.1432
 5729W        W22203  17.532  12.322   4.218 -0.0003 -0.2673 -0.0241
 5730W        W22204  18.633   1.160  14.198  0.0058  0.0591  0.0780
 5731W        W22205  17.377  18.809  12.171 -0.0045  0.0968 -0.1554
 5732W        W22206  14.327  16.124   0.205  0.1770  0.0859 -0.3397
 5733W        W22207  12.076  13.929  11.172 -0.1556 -0.0353  0.0571
 5734W        W22208  14.627   4.501   0.070 -0.2465  0.0332 -0.1153
 5735W        W22209   2.898   0.824   3.702 -0.0041  0.0687 -0.2734
 5736W        W22210   6.965   2.995   5.385  0.0247 -0.0186 -0.0941
 5737W        W22211  17.030  17.768  11.387  0.0519  0.0267  0.2192
 5738W        W22212   3.923   9.646  10.905  0.1770 -0.0573 -0.0297
 5739W        W22213   0.020   0.650  12.797 -0.0086 -0.0215  0.1161
 5740W        W22214   1.401  11.950   5.112 -0.0605 -0.1252  0.2219
 5741W        W22215  10.780  10.735  13.756 -0.3394  0.3369 -0.0851
 5742W        W22216  10.104  14.955   4.266  0.1200 -0.1982 -0.0705
 5743W        W22217   9.475  12.133   1.005  0.0847 -0.0692  0.0020
 5744W        W22218  11.648  16.338  13.244 -0.0106 -0.2564  0.0463
 5745W        W22219   9.224  11.847   4.255  0.1773  0.1264  0.2269
 5746W        W22220   6.103   5.610   6.139  0.3830 -0.1772 -0.0172
 5747W        W22221   9.849   3.308   6.248 -0.0079  0.1651  0.0617
 5748W        W22222   9.544  11.559  12.645  0.0777 -0.1447 -0.2502
 5749W        W22223  10.268  11.205   2.281  0.1309  0.2165 -0.1528
 5750W        W22224   5.964  12.558   3.639  0.1078 -0.3256 -0.0175
 5751W        W22225   2.898  13.432  11.068 -0.1838  0.0342 -0.0727
 5752W        W22226   5.815  16.109  13.106 -0.0919 -0.1215 -0.2857
 5753W        W22227   2.470   9.671   5.137 -0.1019  0.2969  0.1934
 5754W        W22228  14.946   2.058  12.575 -0.2753 -0.1058 -0.1704
 5755W        W22229   1.709  14.443  15.291 -0.0890  0.2818  0.1171
 5756W        W22230   9.995  18.121   2.429  0.1855  0.0702 -0.2671
 5757W        W22231  10.958  15.853   2.109 -0.2977  0.0694 -0.1860
 5758W        W22232   7.641  16.429   0.886 -0.3023  0.0641 -0.0228
 5759W        W22233  13.623   9.566   4.344 -0.3667  0.0947  0.1614
 5760W        W22234   9.949   8.216   4.099 -0.0487 -0.2284 -0.0306
 5761W        W22235  11.539   9.255  14.092 -0.3912 -0.5752  0.1199
 5762W        W22236   5.875   9.679   3.700  0.3398  0.1105 -0.3069
 5763W        W22237   3.647   0.584  11.957 -0.2458 -0.2327  0.0039
 5764W        W22238   9.454  15.625  15.194 -0.3199  0.1872  0.1400
 5765W        W22239   2.397   1.663   2.886 -0.0436  0.0432 -0.2506
 5766W        W22240   1.100   9.889  14.738 -0.1689  0.0773 -0.0394
 5767W        W22241   8.143  13.694   2.044 -0.1148  0.1618 -0.1250
 5768W        W22242   2.377   2.811  11.081 -0.0998  0.0894 -0.5796
 5769W        W22243  17.330   7.765  14.509 -0.0750  0.2048 -0.0927
 5770W        W22244  11.833   0.205  13.590 -0.0489  0.0428  0.0857
 5771W        W22245  12.524   1.169   1.234  0.6392 -0.1778  0.0215
 5772W        W22246   7.132   4.826   5.273  0.0044 -0.0898  0.2789
 5773W        W22247   0.628   0.411  14.562  0.2952 -0.1259 -0.2173
 5774W        W22248   0.703  14.901  10.735 -0.1407  0.0830 -0.1356
 5775W        W22249  13.179   9.091   1.970  0.2696  0.0527 -0.1340
 5776W        W22250   8.135  14.605  11.607  0.1856  0.3760  0.0129
 5777W        W22251  15.210   1.958   2.196  0.2489 -0.2902  0.3290
 5778W        W22252  16.574   6.248   0.933 -0.0139 -0.3710 -0.4958
 5779W        W22253  12.605  12.120  15.437 -0.0089 -0.0516 -0.2666
 5780W        W22254  14.393  11.509   1.096 -0.2005 -0.0987 -0.0620
 5781W        W22255  11.481  17.373   0.315 -0.1350 -0.3762 -0.2938
 5782W        W22256   9.543   9.949  12.481  0.0088 -0.1356  0.1963
 5783W        W22257   4.487  11.776  12.795 -0.1888  0.0528  0.3243
 5784W        W22258  15.648   8.645   0.331  0.0065  0.0342 -0.0081
 5785W        W22259   9.060  12.116  13.156 -0.0379 -0.0147 -0.0910
 5786W        W22260   6.807   1.541  13.952  0.1616 -0.0929  0.1827
 5787W        W22261   5.390   7.975  13.489  0.1568  0.2245 -0.0417
 5788W        W22262   4.992   3.818   3.615  0.3856 -0.2622  0.1856
 5789W        W22263  16.033  13.468  14.039 -0.2929 -0.1850 -0.1992
 5790W        W22264   2.612   7.581  14.155  0.2505  0.0009 -0.0712
 5791W        W22265  12.769  17.764   2.634  0.2474  0.1582 -0.3222
 5792W        W22266  15.397  12.807   5.019  0.0345 -0.2000  0.2229
 5793W        W22267   3.025   4.637  12.697 -0.2193 -0.0164 -0.1272
 5794W        W22268  11.177   1.453  12.678  0.0939 -0.1439  0.0237
 5795W        W22269   1.267   6.974  15.432  0.0309 -0.1109  0.2670
 5796W        W22270   6.570  14.075   2.694 -0.1887  0.0235 -0.0282
 5797W        W22271  15.530   1.413  15.250 -0.2784 -0.1903  0.0661
 5798W        W22272  14.559   4.474   3.799  0.2169  0.1488  0.0669
 5799W        W22273  10.676   3.938   1.234  0.3118  0.3209  0.0807
 5800W        W22274   0.905  14.220   5.000  0.1223  0.2730  0.2631
 5801W        W22275  18.005   3.075  12.478 -0.0403 -0.0860 -0.1175
 5802W        W22276  10.070  18.573   2.726 -0.1119 -0.0181  0.2144
 5803W        W22277   8.641   6.562  12.206 -0.0297 -0.3960 -0.1872
 5804W        W22278   7.394   9.448  13.986  0.1207  0.0428  0.0050
 5805W        W22279  15.273   8.074   4.862 -0.1439 -0.0831 -0.0395
 5806W        W22280   8.231   6.367  13.913  0.0506 -0.1362  0.3064
 5807W        W22281  17.012  13.447   4.584  0.2527  0.1857  0.1131
 5808W        W22282   3.247   8.382   4.297  0.2236  0.0152  0.1950
 5809W        W22283   3.873   2.669  12.017  0.0898  0.0977  0.2533
 5810W        W22284  13.008  14.875  12.343 -0.2318  0.2047  0.0971
 5811W        W22285  10.570   5.465   3.951 -0.1291 -0.2301 -0.0722
 5812W        W22286  16.325   6.960  13.624 -0.0987  0.2439  0.2483
 5813W        W22287   3.352  12.058  15.543 -0.0425 -0.0177  0.0863
 5814W        W22288   1.744  18.629  13.607 -0.1462  0.2647  0.2511
 5815W        W22289   2.778   8.586  14.538  0.3085  0.1930  0.2573
 5816W        W22290  17.163   4.442  12.954 -0.2203 -0.0185 -0.4245
 5817W        W22291  17.462   9.229  15.282  0.0106  0.3476 -0.0423
 5818W        W22292  18.602   7.854   3.125  0.2182 -0.2867 -0.0180
 5819W        W22293   5.679   0.684   1.001 -0.1230 -0.1362  0.4268
 5820W        W22294  10.033   0.502   4.365  0.2088  0.1947 -0.1355
 5821W        W22295   8.686   6.914   2.843 -0.0154 -0.4219  0.1451
 5822W        W22296   5.621  16.756   4.038  0.0928 -0.1670  0.0541
 5823W        W22297   5.319  10.107   4.771 -0.0410 -0.0288 -0.3371
 5824W        W22298  11.887  17.802  14.743 -0.1178 -0.0222  0.1180
 5825W        W22299  12.513  13.495   4.752 -0.1509 -0.0017  0.2187
 5826W        W22300   7.557  15.220   2.438  0.1903  0.4035  0.0985
 5827W        W22301  17.724  16.557   0.846 -0.1137 -0.0276  0.0736
 5828W        W22302   5.663  16.252   3.757 -0.1277  0.0976 -0.1265
 5829W        W22303  16.071  14.435  15.407 -0.3331 -0.4410  0.0560
 5830W        W22304   1.686  15.628  15.450  0.1833  0.1098  0.0138
 5831W        W22305   2.784  12.040   2.363  0.2882 -0.0629  0.2239
 5832W        W22306   9.232  14.773   0.716 -0.3915 -0.1904  0.0017
 5833W        W22307  11.883   1.198   3.871 -0.0751  0.0527  0.3914
 5834W        W22308   3.220   7.485  13.316  0.0724  0.0079  0.0381
 5835W        W22309   2.604   4.662   0.887 -0.0076  0.1207  0.0942
 5836W        W22310  12.927   7.302   2.243 -0.1214  0.0368  0.0914
 5837W        W22311  16.423   7.383   4.070 -0.1409  0.0227  0.2937
 5838W        W22312  15.229   5.351  13.711  0.0905 -0.1254  0.1631
 5839W        W22313  15.109   7.344  11.836 -0.2805 -0.3807 -0.1949
 5840W        W22314   9.627  12.091   3.378 -0.0997  0.1741 -0.2555
 5841W        W22315  10.598   3.799  12.510  0.2599 -0.2650  0.2713
 5842W        W22316   0.680  13.748   5.116  0.1226 -0.0568 -0.1833
 5843W        W22317   8.767   2.502  11.394 -0.3018  0.1003  0.0921
 5844W        W22318  14.926   3.607   4.901 -0.3991  0.0928  0.1710
 5845W        W22319  12.672  12.385   1.600  0.0228  0.1861  0.1190
 5846W        W22320   7.559  13.072   4.368  0.0001  0.3378  0.1295
 5847W        W22321   7.450  14.132  12.166  0.0065  0.0529  0.1077
 5848W        W22322   1.517  16.965   3.461 -0.0925 -0.2442  0.0761
 5849W        W22323   9.616  11.046  12.751 -0.1901  0.0636 -0.0832
 5850W        W22324  17.532  10.871   1.357 -0.3521  0.0799  0.2202
 5851W        W22325  17.337   4.718   1.114 -0.0504 -0.2919 -0.0523
 5852W        W22326   1.123   4.911   0.154 -0.1256 -0.2617 -0.0545
 5853W        W22327   8.536  11.856   2.684  0.3242  0.0449 -0.1228
 5854W        W22328  17.562   7.614  12.495 -0.3976  0.0462 -0.1658
 5855W        W22329   3.450   4.087   5.633  0.2209 -0.3735 -0.1483
 5856W        W22330   5.475   5.592   2.585  0.1606  0.1471  0.0718
 5857W        W22331   2.841   5.246  13.271 -0.1720  0.2840  0.2670
 5858W        W22332   8.907   5.190   2.210 -0.5310  0.0809  0.0942
 5859W        W22333  17.490   4.592  11.954  0.0531 -0.1862 -0.0265
 5860W        W22334  16.684   7.310   2.093  0.1644 -0.0648  0.2247
 5861W        W22335   8.433   7.926   4.803 -0.1134  0.2426  0.1660
 5862W        W22336   6.511  16.686  14.216  0.0595  0.3481  0.1631
 5863W        W22337  11.222  16.457   3.945  0.0367 -0.2098 -0.0441
 5864W        W22338  13.435  15.575   4.968  0.0467 -0.0955 -0.1309
 5865W        W22339   5.826  14.468   3.655 -0.2123 -0.0235 -0.2563
 5866W        W22340   2.024   1.855  12.551 -0.1947  0.0316  0.0788
 5867W        W22341   2.760   4.072  14.076  0.3198 -0.0213 -0.3005
 5868W        W22342  17.497   5.207  14.644 -0.2351  0.2608 -0.2300
 5869W        W22343   3.558  13.547  13.205 -0.1418  0.3445 -0.0249
 5870W        W22344  17.119   1.262   0.268  0.0615  0.2341  0.0014
 5871W        W22345  12.794  18.730  14.559  0.0681 -0.3500 -0.0270
 5872W        W22346  12.548  13.841  15.563  0.1017 -0.1010 -0.2215
 5873W        W22347   7.619  18.220  15.666  0.0350 -0.2905 -0.0130
 5874W        W22348   5.585  12.476   3.959  0.0292 -0.0159 -0.0522
 5875W        W22349  15.066  14.564  12.814 -0.3987 -0.2999  0.0977
 5876W        W22350   5.279   6.062  14.949  0.1470  0.3203 -0.0970
 5877W        W22351  10.063  17.391   0.755  0.1216  0.0599 -0.1403
 5878W        W22352   4.497   6.397   1.172 -0.2789  0.2731 -0.2473
 5879W        W22353  13.131  12.394  13.862 -0.2265  0.1287  0.0476
 5880W        W22354   1.163  13.473  10.684  0.1525 -0.0636 -0.1948
 5881W        W22355   3.930   0.237  13.380 -0.0007 -0.0614  0.2296
 5882W        W22356   1.704   1.626  14.079  0.1026 -0.1494 -0.0834
 5883W        W22357  12.024  16.876  15.613  0.1886  0.1465 -0.0155
 5884W        W22358  12.214   6.936  13.523 -0.1605  0.0785 -0.0616
 5885W        W22359  18.461   0.041   5.199 -0.1105  0.0114 -0.2026
 5886W        W22360   3.297  15.045  13.615  0.5205  0.3409  0.0305
 5887W        W22361   0.373   2.832  14.208  0.0319  0.3854 -0.1094
 5888W        W22362  10.047   6.772   3.031 -0.0896  0.1094 -0.0611
 5889W        W22363   8.436  14.466  12.910  0.5417  0.3502 -0.0746
 5890W        W22364  14.016   2.291   3.093  0.2456 -0.2212 -0.5899
 5891W        W22365  12.115  14.746  12.317  0.0766  0.1630  0.1743
 5892W        W22366  13.752  17.135   3.367  0.1123  0.1754  0.0001
 5893W        W22367   1.626   0.873  10.902  0.2251 -0.2422 -0.0815
 5894W        W22368   0.612  13.846   2.907 -0.3873 -0.0769  0.0774
 5895W        W22369   3.107  18.210  11.429  0.1614 -0.2300  0.1707
 5896W        W22370   3.461  10.904   3.260  0.2239 -0.2855  0.0231
 5897W        W22371   3.369   4.172  11.051 -0.1530  0.0790 -0.2442
 5898W        W22372  10.051   1.716  11.254 -0.1120  0.0507  0.2392
 5899W        W22373  14.878   5.614  11.294  0.2232  0.0305  0.3689
 5900W        W22374  14.405  15.567   1.993  0.3073  0.2165  0.3646
 5901W        W22375   3.858  15.873  12.478  0.0647  0.2801 -0.0003
 5902W        W22376  18.744  10.263   2.685  0.0033  0.1877 -0.1182
 5903W        W22377   0.834  14.731   9.851 -0.3911  0.1122  0.1702
 5904W        W22378  17.800   2.603   0.031 -0.1215  0.4965  0.1285
 5905W        W22379  18.253  17.216  10.449  0.2846  0.2462 -0.0390
 5906W        W22380  13.251  13.078  12.677 -0.4248 -0.5125  0.0890
 5907W        W22381  17.487   6.032  11.941 -0.0119 -0.0978  0.2636
 5908W        W22382   5.226  15.011  12.234  0.1416  0.1245 -0.2664
 5909W        W22383   5.524  18.134  11.495 -0.2231 -0.2778 -0.2294
 5910W        W22384  15.374   6.121   0.514 -0.0576 -0.0777 -0.0590
 5911W        W22385  15.027   0.611  15.693 -0.1548 -0.1237 -0.2290
 5912W        W22386   0.479  15.240  12.600  0.0522  0.3969  0.1212
 5913W        W22387   4.190  14.077   3.304  0.0704  0.0016  0.1775
 5914W        W22388   5.235  17.653   4.870 -0.1607 -0.1395  0.1671
 5915W        W22389   5.171  15.061   6.215 -0.0859  0.1738 -0.2388
 5916W        W22390  10.362   9.086   4.421 -0.3474 -0.3342  0.0911
 5917W        W22391  11.481   6.977   0.818  0.1344 -0.1194  0.0613
 5918W        W22392   5.565   3.140   3.014  0.1914 -0.1387  0.0218
 5919W        W22393   8.337  13.088   1.321 -0.3160  0.0282 -0.0109
 5920W        W22394   3.817  17.421   5.578 -0.1041 -0.0381 -0.0112
 5921W        W22395   4.948   3.708   4.565  0.1592 -0.0607 -0.0093
 5922W        W22396   6.753  13.579  11.331 -0.5025 -0.0252  0.0976
 5923W        W22397  17.169  14.830   2.010 -0.0798 -0.5466 -0.3971
 5924W        W22398   0.795  10.142   2.397 -0.1761  0.2120 -0.1563
 5925W        W22399  16.454   2.403  14.614  0.0274  0.0733 -0.1177
 5926W        W22400   6.206   4.017   0.943  0.1890 -0.1700 -0.0869
 5927W        W22401   6.407   2.032   0.100 -0.0184  0.1058  0.0182
 5928W        W22402  14.318   8.661  14.224 -0.3157  0.1940 -0.1596
 5929W        W22403  10.267   9.735   5.075 -0.5060 -0.0317 -0.1338
 5930W        W22404   9.184   6.284  11.080  0.2396 -0.1682 -0.2146
 5931W        W22405   7.865   2.322   5.245 -0.4623  0.1027  0.5134
 5932W        W22406   5.360   2.292  14.693 -0.0891 -0.3744  0.2323
 5933W        W22407  15.139   2.196  10.254  0.1739  0.0805  0.1678
 5934W        W22408   3.288  13.104   0.047 -0.5730  0.0669  0.0458
 5935W        W22409   0.961  11.478   3.480 -0.1783 -0.1536  0.5259
 5936W        W22410  14.350  16.746  13.436 -0.2761 -0.1166 -0.3813
 5937W        W22411  15.466  13.545   3.568 -0.2471 -0.0250 -0.3904
 5938W        W22412  16.058  14.107   4.271 -0.0863 -0.1205  0.1017
 5939W        W22413  17.142  10.572   3.435  0.1414  0.0250  0.2310
 5940W        W22414  18.407   1.696   4.147  0.2674  0.0521  0.0811
 5941W        W22415   3.706  14.504  14.044  0.2056 -0.1050 -0.1844
 5942W        W22416   4.498  10.024  15.386 -0.0580 -0.2816 -0.1217
 5943W        W22417   7.957  14.361  12.039  0.1290  0.2251  0.0201
 5944W        W22418  13.006  18.695   1.226 -0.0644  0.2437  0.3977
 5945W        W22419  12.781   9.006   2.649 -0.1231  0.2636  0.1367
 5946W        W22420   2.414   3.419   4.294  0.1527  0.1598 -0.1877
 5947W        W22421  16.956   1.659   4.550 -0.0422  0.0996  0.0201
 5948W        W22422  16.490  14.170   0.147  0.1234  0.3772  0.0119
 5949W        W22423   0.204   6.535  11.771  0.0767  0.1541  0.0370
 5950W        W22424   4.682  16.040   4.601  0.1816  0.0486 -0.2571
 5951W        W22425   7.503   8.917  11.059 -0.3118 -0.0599 -0.0397
 5952W        W22426  10.239   3.113   1.646  0.2835  0.1052 -0.1083
 5953W        W22427   8.184   1.918  15.689 -0.2647 -0.0843 -0.2141
 5954W        W22428   5.866   9.864  12.905 -0.1527 -0.1168  0.0494
 5955W        W22429   9.142   1.926  13.862  0.0489 -0.0300  0.1980
 5956W        W22430   5.255  17.661   1.283  0.1369 -0.3273 -0.0559
 5957W        W22431   3.332   4.866  11.014  0.2661 -0.2086 -0.4066
 5958W        W22432   2.348   3.045   2.431 -0.1628  0.1083  0.3688
 5959W        W22433  17.706   6.715  14.009 -0.1630 -0.0943 -0.0810
 5960W        W22434   9.097   2.637  10.989 -0.2361  0.0377 -0.1593
 5961W        W22435   2.556  10.541   3.900 -0.0726 -0.0739 -0.0493
 5962W        W22436  10.102  18.689  14.879 -0.2939 -0.1907  0.0767
 5963W        W22437   8.068   7.967  13.571  0.1938 -0.2406  0.3844
 5964W        W22438  14.907  11.470   2.859  0.3700 -0.1734 -0.2275
 5965W        W22439  10.845   3.016   0.637 -0.2744 -0.3777  0.5073
 5966W        W22440   0.545   0.401   1.005  0.2108 -0.0683 -0.1006
 5967W        W22441  18.334  13.160  15.306 -0.1302  0.0681 -0.0919
 5968W        W22442  17.041   0.989  12.135 -0.1366 -0.1753  0.1137
 5969W        W22443  18.225  13.139   1.571  0.1919  0.0436 -0.2725
 5970W        W22444   7.565   7.447   5.471  0.1527 -0.3394  0.1794
 5971W        W22445  10.079   4.801   1.733  0.0522 -0.0292  0.0265
 5972W        W22446  13.215   8.300  13.785  0.1469 -0.2285  0.0071
 5973W        W22447   1.360  12.788   3.107 -0.0259 -0.1450 -0.0807
 5974W        W22448  18.439   6.550  11.718 -0.0430  0.1377  0.1019
 5975W        W22449   8.838   3.229  12.812 -0.2185  0.0351  0.2740
 5976W        W22450   3.044  17.003  12.856 -0.0574  0.0218  0.1215
 5977W        W22451  10.108   4.577   2.286  0.0638 -0.1470 -0.3041
 5978W        W22452  14.615   3.990   4.687 -0.0495 -0.0990  0.1861
 5979W        W22453   2.888   9.835   3.425  0.0741 -0.1772 -0.0619
 5980W        W22454   9.202  11.394  14.967  0.0943  0.0725  0.1531
 5981W        W22455  15.248   2.953   1.384  0.2082  0.1617  0.4072
 5982W        W22456   8.156  13.829  10.963 -0.1557  0.1502 -0.0853
 5983W        W22457  16.535  13.383   4.399 -0.0285  0.2596 -0.1830
 5984W        W22458   8.073   7.276   1.774  0.2826 -0.0967 -0.3562
 5985W        W22459   5.725   6.763  11.269  0.3407 -0.0507  0.3123
 5986W        W22460  17.774  11.928   0.954  0.2351 -0.0983 -0.1924
 5987W        W22461   6.929  12.454  15.269  0.4561  0.1733 -0.0031
 5988W        W22462  11.526   7.589  13.965 -0.3157  0.0901 -0.1786
 5989W        W22463  13.041  15.220  11.937  0.0352  0.1324 -0.0624
 5990W        W22464   6.500   8.359   0.496  0.0898 -0.2488 -0.0808
 5991W        W22465   7.794   1.385   3.080  0.1387  0.5309 -0.1019
 5992W        W22466  12.237   4.350  14.327 -0.2074 -0.0666  0.0181
 5993W        W22467   8.257  16.056   2.203  0.1598  0.2136  0.2700
 5994W        W22468  18.748   1.253  10.969  0.0857 -0.1060 -0.0385
 5995W        W22469   3.544   7.222   0.405  0.0273  0.2315 -0.0224
 5996W        W22470   3.303  10.019   1.243 -0.3218  0.2695 -0.1219
 5997W        W22471   7.073  18.811   2.445  0.0952 -0.1118  0.2406
 5998W        W22472   0.268   2.954  10.361  0.0822  0.0051  0.0396
 5999W        W22473  18.253   0.295  11.604 -0.1625  0.4508  0.2230
 6000W        W22474   9.999   3.991   0.170  0.0548  0.1692 -0.2133
 6001W        W22475   3.650  13.333  14.086  0.0238  0.4572  0.4104
 6002W        W22476   8.413  16.185  11.700 -0.1203 -0.1055 -0.0696
 6003W        W22477  14.555   8.347  14.625  0.1215  0.1552  0.1410
 6004W        W22478  10.234  12.875   0.990  0.0406  0.0443 -0.0218
 6005W        W22479   4.567   4.981  14.932 -0.1676  0.0887 -0.0380
 6006W        W22480  11.354  18.296   4.994 -0.0764  0.2573 -0.3404
 6007W        W22481  17.076  11.584   0.491 -0.0975  0.0926  0.3915
 6008W        W22482  16.213   2.868  10.286  0.2147  0.3585 -0.0170
 6009W        W22483   3.188  15.829  13.071 -0.1248 -0.2336 -0.3100
 6010W        W22484  12.377  10.193  14.445  0.1704 -0.1389 -0.1121
 6011W        W22485  12.856   7.692  12.581 -0.0660 -0.4151 -0.0721
 6012W        W22486  18.585  13.885  14.393  0.2496  0.1377 -0.1073
 6013W        W22487   9.254  18.588   0.147  0.0159 -0.1981 -0.3480
 6014W        W22488   2.666  17.300   1.812  0.0263  0.1053  0.0894
 6015W        W22489   1.189  15.289  14.783  0.1599 -0.0486 -0.0167
 6016W        W22490   6.140   5.015  13.407  0.1072  0.0300  0.1898
 6017W        W22491  15.954   6.560   2.214  0.1288  0.3793 -0.2204
 6018W        W22492   1.896  11.993  14.385 -0.1693 -0.0009  0.3238
 6019W        W22493   0.758   1.175  11.150 -0.0442 -0.2481  0.0860
 6020W        W22494  14.197  16.075  12.698  0.1351 -0.0157 -0.1013
 6021W        W22495   0.027   0.500   4.553 -0.2109  0.0263 -0.0232
 6022W        W22496  15.713   2.845  12.955  0.2751 -0.2877  0.1933
 6023W        W22497   4.414  16.578   0.415 -0.0575  0.1573  0.1647
 6024W        W22498   5.233   7.825  14.577 -0.0326  0.0619 -0.2881
 6025W        W22499   5.964  15.020  12.017 -0.1870  0.1325 -0.0950
 6026W        W22500  15.262   0.337  14.804  0.2207 -0.2522  0.1462
 6027W        W22501  18.489   1.455   3.749  0.5478  0.2779 -0.1601
 6028W        W22502  13.479  18.323  10.620  0.0860  0.2964 -0.1810
 6029W        W22503   4.317  12.981  12.154  0.1163  0.1558  0.0716
 6030W        W22504  16.180  17.300   0.942  0.0971  0.3798  0.0449
 6031W        W22505   5.851   3.392   5.666  0.1067 -0.1198  0.3828
 6032W        W22506   0.988   4.340   4.282  0.1127  0.0327  0.0702
 6033W        W22507  18.076   8.500  13.557 -0.3113  0.1201  0.1988
 6034W        W22508   3.147  12.852  10.796  0.1367 -0.1858  0.2039
 6035W        W22509   9.908  11.500  11.313 -0.1716 -0.1163  0.2438
 6036W        W22510  17.137   2.645  15.393  0.0903  0.2630 -0.1390
 6037W        W22511  17.460   3.193  10.976  0.2023 -0.0402 -0.0951
 6038W        W22512   8.533  16.420  13.656  0.1850 -0.2391  0.0377
 6039W        W22513   5.079   5.417   2.900  0.2884  0.0075 -0.4449
 6040W        W22514   7.010   4.531  11.288 -0.1675 -0.1198  0.0084
 6041W        W22515   8.768   3.659   5.943 -0.0366  0.0921  0.1548
 6042W        W22516   7.175  16.020   0.063 -0.2930  0.0311  0.1578
 6043W        W22517  17.737   8.965   2.451 -0.2456  0.2318 -0.3081
 6044W        W22518   7.925   9.894   5.902  0.1675 -0.2370 -0.2734
 6045W        W22519   5.657  12.999  12.720 -0.1106 -0.1919  0.1692
 6046W        W22520   7.305   7.483   1.667  0.2063 -0.0719 -0.0623
 6047W        W22521   9.088   4.947  15.537 -0.1002 -0.1662 -0.1266
 6048W        W22522  15.066   8.673  15.303 -0.4168  0.0429 -0.0403
 6049W        W22523   2.584  12.377  10.907  0.0596  0.0708  0.1436
 6050W        W22524   4.530   9.186  12.378  0.1070 -0.2254 -0.1740
 6051W        W22525  17.995  11.236   3.748 -0.2912  0.0431 -0.1030
 6052W        W22526   0.105   7.933   0.637  0.2007 -0.1811 -0.2178
 6053W        W22527   5.204  14.811   5.141  0.2849 -0.2589  0.0013
 6054W        W22528  12.116   6.288  14.582  0.0698  0.0246  0.1305
 6055W        W22529   5.445  11.310  14.711 -0.0449  0.0936  0.1161
 6056W        W22530  10.483  16.725  15.281 -0.2539  0.0256  0.4924
 6057W        W22531   9.699  11.370  15.139 -0.0320  0.0538  0.3752
 6058W        W22532  15.954   0.117   3.089 -0.0051 -0.0725 -0.3074
 6059W        W22533   9.884  14.939   5.271  0.2622 -0.2018 -0.0424
 6060W        W22534   7.498  13.889   2.764 -0.3138  0.0777  0.0411
 6061W        W22535   8.944   0.382   2.848 -0.3005 -0.0631  0.0500
 6062W        W22536  13.718  10.313  12.207  0.0993 -0.2570  0.0907
 6063W        W22537  12.529   5.289   2.401  0.2686 -0.2464 -0.0575
 6064W        W22538   6.061   1.256   3.619 -0.1436 -0.3102  0.3247
 6065W        W22539   8.833   8.172  14.580  0.3027  0.0092  0.2271
 6066W        W22540  15.257   8.903  13.524  0.0291 -0.3737 -0.0073
 6067W        W22541  14.829  14.849   0.852 -0.2295 -0.0696  0.0057
 6068W        W22542  13.016   9.626   1.014 -0.1455  0.2925  0.0726
 6069W        W22543   6.215  15.256  12.689 -0.2450 -0.0055  0.0775
 6070W        W22544   8.648   8.361   2.591 -0.3885  0.3069  0.0951
 6071W        W22545  17.641  12.799  14.419 -0.0979 -0.0757  0.2301
 6072W        W22546  14.759  12.339  12.063  0.0114  0.0395 -0.0440
 6073W        W22547   4.595  11.031  15.602 -0.0857  0.3778 -0.0935
 6074W        W22548   0.817  10.538   4.797 -0.1210  0.0846  0.1906
 6075W        W22549   9.125   6.520   1.375  0.2162 -0.1542 -0.0110
 6076W        W22550  17.288   3.533   4.444 -0.0009  0.1254 -0.0384
 6077W        W22551   3.196  13.701   0.894  0.2159 -0.2940 -0.0380
 6078W        W22552  16.119  18.065  11.354  0.3234  0.3410  0.3007
 6079W        W22553   7.676   0.463   1.873  0.3070  0.1330  0.1738
 6080W        W22554   2.059  16.415   4.614 -0.2763  0.0363  0.0229
 6081W        W22555   8.321  17.130  14.378 -0.0367 -0.0676  0.0371
 6082W        W22556   9.713   5.635   3.546 -0.1031  0.0189  0.1500
 6083W        W22557   7.028  18.026  11.374  0.2559 -0.2149 -0.2096
 6084W        W22558  11.429  16.504  12.203 -0.1036 -0.1356 -0.2760
 6085W        W22559  12.787   5.550  13.519 -0.0734 -0.1411  0.1602
 6086W        W22560   1.876   0.079   3.855 -0.4325 -0.0435  0.2580
 6087W        W22561  14.542  12.672  11.662 -0.2993  0.1024 -0.1342
 6088W        W22562  12.294   2.431   3.520  0.2715  0.2704 -0.1445
 6089W        W22563   8.585  15.706   0.465  0.1086  0.1605 -0.0437
 6090W        W22564   8.398  12.683   4.984  0.1330  0.1104 -0.1128
 6091W        W22565  15.849   7.567   5.407 -0.1181 -0.0040  0.0108
 6092W        W22566   6.940   1.052  13.151 -0.2352  0.2659  0.0205
 6093W        W22567   6.044   6.877  13.510 -0.0755 -0.0552 -0.0793
 6094W        W22568  15.524  16.418   3.802 -0.0392 -0.0099 -0.1310
 6095W        W22569  12.577  14.969   4.797  0.2334 -0.0974 -0.2960
 6096W        W22570   5.068  18.497  10.055 -0.2657  0.0602  0.0707
 6097W        W22571  12.992   2.925   2.085 -0.0539  0.2036  0.3631
 6098W        W22572   1.956  12.792  13.732 -0.0129 -0.1538  0.1411
 6099W        W22573   3.929   9.752  10.265 -0.0083  0.0415  0.0011
 6100W        W22574   8.063  15.233   1.596 -0.0888  0.2304 -0.2786
 6101W        W22575   4.377   6.953   0.373 -0.3499 -0.0892 -0.3037
 6102W        W22576   1.493   7.085   3.822 -0.1087 -0.2838  0.1627
 6103W        W22577   7.680   1.626   0.574  0.5311  0.0977 -0.5276
 6104W        W22578  10.116  15.005   3.284 -0.0040  0.0117 -0.3000
 6105W        W22579   4.569  18.424   4.987  0.0833 -0.0080  0.1522
 6106W        W22580   3.833   2.521  11.499 -0.0054  0.3385  0.0920
 6107W        W22581   0.620  13.880   0.387 -0.3065  0.0220  0.0829
 6108W        W22582  10.698   5.214  14.601  0.1739  0.1613 -0.1078
 6109W        W22583  10.934   7.626  12.507 -0.5174  0.1586  0.0276
 6110W        W22584   0.062   5.739   0.815  0.0278  0.0649 -0.1839
 6111W        W22585  17.053  17.769   4.274  0.0378  0.1276  0.3018
 6112W        W22586   0.136   3.526  13.220  0.2178  0.0883 -0.0590
 6113W        W22587   8.579  13.941   1.908 -0.3049  0.1171  0.4243
 6114W        W22588   9.122   8.995  14.790 -0.1904  0.1051 -0.0848
 6115W        W22589  15.963   0.148  11.061 -0.0870 -0.0872 -0.0959
 6116W        W22590  14.335   7.023  15.609 -0.1548  0.1271  0.0197
 6117W        W22591  16.076   4.795   0.467 -0.0292  0.0332  0.1095
 6118W        W22592   8.251   2.765  15.435 -0.3717  0.1457  0.1386
 6119W        W22593   8.994  13.575   0.933 -0.0827  0.1115  0.4233
 6120W        W22594   2.545   5.231   4.649  0.1418  0.3120  0.2946
 6121W        W22595   1.106   1.673   3.036 -0.0527 -0.0584  0.0837
 6122W        W22596  17.003   0.813   0.477 -0.0184  0.0564 -0.0923
 6123W        W22597   0.124   0.646  13.449  0.0401 -0.0802 -0.0278
 6124W        W22598  15.823   5.406   4.878  0.1318  0.0218  0.0694
 6125W        W22599   5.259   0.136   4.855 -0.2073 -0.3567  0.3145
 6126W        W22600   8.368   5.142   6.387  0.0105  0.1837  0.0677
 6127W        W22601  12.712   2.596   3.463 -0.2015  0.0361  0.3295
 6128W        W22602   0.718  11.826  14.718  0.1734 -0.1530  0.0089
 6129W        W22603   7.864   4.169  13.116 -0.1374  0.1786  0.0153
 6130W        W22604  18.455  14.112  10.323 -0.2562  0.0506 -0.1796
 6131W        W22605  16.987  16.656  13.966 -0.3748  0.0963 -0.1863
 6132W        W22606   9.078  18.434  15.150  0.0204  0.0515  0.2152
 6133W        W22607   7.249  14.199   4.468  0.1102 -0.2633  0.0048
 6134W        W22608   0.573  13.854  13.168 -0.3289 -0.1935 -0.1228
 6135W        W22609  10.965   7.232   3.710  0.0208 -0.3079 -0.1011
 6136W        W22610   8.461   2.794  12.121  0.0806  0.0986  0.2867
 6137W        W22611  15.150  15.179   2.435  0.0383  0.1263 -0.2418
 6138W        W22612  13.409   5.768   4.449  0.2605 -0.0133 -0.0373
 6139W        W22613   9.290  17.663   0.154 -0.2146 -0.0895  0.0748
 6140W        W22614   5.822  15.855  10.136 -0.0555 -0.0394  0.0366
 6141W        W22615  10.490   0.986  12.141 -0.1028 -0.1335 -0.0744
 6142W        W22616   5.594   1.971   5.214 -0.0565 -0.2264 -0.0513
 6143W        W22617   3.970   6.341  13.025  0.0927  0.0535 -0.0550
 6144W        W22618   6.604  10.633   0.496  0.1746 -0.2004 -0.2968
 6145W        W22619  14.496  11.723  15.271  0.2978 -0.2194  0.3551
 6146W        W22620  11.542   9.392  15.253 -0.1271 -0.0455  0.0764
 6147W        W22621  12.411   3.401  14.385  0.1348  0.0362  0.0931
 6148W        W22622  13.019   6.699   2.886 -0.1334  0.0455  0.3533
 6149W        W22623  13.836   9.270  15.096 -0.0620 -0.1659  0.0358
 6150W        W22624   6.626   8.346  11.650  0.3293 -0.3497  0.1825
 6151W        W22625  11.337  12.647   1.011  0.0757  0.3624 -0.3760
 6152W        W22626   3.193  12.673   2.279  0.1007  0.0251 -0.1979
 6153W        W22627  15.156  11.871  15.264 -0.0360 -0.3027 -0.3853
 6154W        W22628  14.369   7.997   0.152  0.4577 -0.1809  0.0559
 6155W        W22629   1.575   2.811  11.041 -0.0646  0.0771  0.2768
 6156W        W22630  10.260   8.845  12.946 -0.1662  0.4303  0.0663
 6157W        W22631  13.029  17.786  11.239  0.0822  0.1603 -0.1422
 6158W        W22632   4.790   7.957   1.747  0.0326  0.0226  0.0466
 6159W        W22633   1.829   2.968   2.598  0.0990  0.1551 -0.2372
 6160W        W22634  13.043  10.545   3.561  0.1833  0.2851  0.0440
 6161W        W22635  15.385   1.391   2.094  0.0514 -0.2062 -0.2616
 6162W        W22636   5.664  14.616  13.092  0.3471  0.0693 -0.2362
 6163W        W22637   6.999   7.359   3.996  0.1420 -0.0111  0.0547
 6164W        W22638   1.138   9.626   3.259  0.5179 -0.1908 -0.1312
 6165W        W22639   9.475  13.585   0.675 -0.1587 -0.1468 -0.0493
 6166W        W22640  14.368   8.108   4.465  0.1711 -0.2843  0.1682
 6167W        W22641   6.402   6.043  11.393  0.2382 -0.0451  0.0686
 6168W        W22642   8.095   1.494  11.652  0.1202  0.1289 -0.3372
 6169W        W22643  16.304   8.861  14.754  0.2598  0.2776 -0.1610
 6170W        W22644   6.779   0.518  12.423 -0.0532  0.0130 -0.1298
 6171W        W22645   7.936   1.109  12.599  0.3470  0.0244  0.0784
 6172W        W22646  12.669   7.326  12.258  0.1673  0.0995  0.4758
 6173W        W22647  12.248   1.632  13.321  0.1081 -0.4742 -0.2610
 6174W        W22648   7.177   4.164   4.711  0.0588 -0.2650 -0.0546
 6175W        W22649  12.622  18.713  15.607  0.2286  0.2638  0.1988
 6176W        W22650   4.117   9.087  11.882  0.2240  0.3490 -0.2497
 6177W        W22651   6.900   7.252  13.014  0.0885 -0.0483  0.0529
 6178W        W22652   6.789  17.533  12.382 -0.0932  0.1979 -0.0815
 6179W        W22653   2.349  16.418  11.463  0.0249 -0.1400  0.0570
 6180W        W22654   4.241   0.770   2.819  0.0149 -0.0304  0.3309
 6181W        W22655  15.224   4.019  15.455  0.1293  0.2392  0.2518
 6182W        W22656  12.378  16.891  15.241 -0.0726 -0.3640 -0.0761
 6183W        W22657   8.364   6.818   1.881 -0.0955 -0.3424  0.2270
 6184W        W22658   2.305   7.756  13.188 -0.1728  0.0337  0.0820
 6185W        W22659  12.016  15.516  12.961 -0.1420  0.0550 -0.2402
 6186W        W22660  16.804  15.460  13.607 -0.2051 -0.1199 -0.3510
 6187W        W22661  13.942   8.521  10.957  0.0284 -0.2264  0.3650
 6188W        W22662  16.647  10.550  15.261 -0.2721 -0.0320  0.1418
 6189W        W22663  11.633   7.182   4.806 -0.0369 -0.1034 -0.0045
 6190W        W22664   1.026   1.966   3.811  0.2595 -0.2288 -0.1876
 6191W        W22665   6.674  16.524   0.711  0.0104 -0.0740 -0.0625
 6192W        W22666   8.871   2.768   1.628  0.2732  0.4908 -0.1446
 6193W        W22667   0.636   5.390  14.619  0.2071  0.0979  0.0177
 6194W        W22668  10.251   0.291   1.401  0.0283  0.5529 -0.1001
 6195W        W22669  18.186  11.445  14.234  0.2405 -0.0567  0.2772
 6196W        W22670  14.374  17.017   5.609  0.0929 -0.0348  0.0759
 6197W        W22671  16.755   6.041   1.401 -0.3976  0.4523 -0.4350
 6198W        W22672   0.658   3.001   2.122 -0.0198 -0.2036 -0.1024
 6199W        W22673   3.206   6.754  12.257 -0.0797  0.1379 -0.0454
 6200W        W22674  17.077  18.695  10.902 -0.2846  0.0517 -0.2015
 6201W        W22675  11.181   6.258   0.988  0.2780  0.3102 -0.2208
 6202W        W22676   8.349  14.764   0.298  0.1315 -0.1656 -0.1781
 6203W        W22677  13.398  14.253   1.359  0.1332 -0.0207  0.0089
 6204W        W22678  13.987  15.251   0.518  0.3087 -0.2328  0.1523
 6205W        W22679  10.451  13.913   0.212  0.1426 -0.2001 -0.0790
 6206W        W22680   5.218   3.543  15.235  0.1739 -0.1124  0.0999
 6207W        W22681   0.827   3.552  14.634 -0.0675 -0.1162  0.1865
 6208W        W22682   9.991  14.296   3.143 -0.3661  0.1602 -0.1814
 6209W        W22683  11.735  16.171  14.223 -0.1862  0.0482  0.1394
 6210W        W22684   3.537   2.687   4.524  0.0543 -0.0102  0.1006
 6211W        W22685  13.467   6.804  14.355  0.0436  0.2364  0.0634
 6212W        W22686  13.657  18.012   3.924  0.3096  0.3061 -0.2106
 6213W        W22687  16.796   5.814   2.027  0.1558  0.2825 -0.0945
 6214W        W22688  12.360   6.725  14.072 -0.1918 -0.0206 -0.0741
 6215W        W22689  18.514   4.118   2.450  0.0828  0.1744 -0.1430
 6216W        W22690  16.013   1.361   2.689 -0.3934 -0.1021 -0.2344
 6217W        W22691  18.489   6.616   2.702 -0.1177 -0.0718  0.1371
 6218W        W22692  18.109   1.182   4.355  0.1781  0.0303 -0.0712
 6219W        W22693  14.298   1.817  12.041  0.0930  0.0512 -0.2232
 6220W        W22694  18.211  14.574  12.755 -0.0298 -0.1531 -0.2344
 6221W        W22695   7.160  13.546   2.755 -0.4229 -0.4633 -0.4247
 6222W        W22696  11.524  18.705  14.663  0.3202 -0.0288 -0.0249
 6223W        W22697  17.686  11.619  13.201  0.1264 -0.2112  0.0632
 6224W        W22698  15.055   6.252   1.584 -0.0316  0.1064  0.0024
 6225W        W22699  17.194  18.469   1.560 -0.2138  0.0360 -0.0010
 6226W        W22700  14.991  16.406  10.594  0.2917  0.0415 -0.3481
 6227W        W22701   2.804   3.704   3.222 -0.0987  0.2394 -0.2461
 6228W        W22702  17.494   8.396  12.641  0.1819  0.2109  0.2158
 6229W        W22703   5.566   8.965   1.915  0.0038  0.0078 -0.2989
 6230W        W22704   9.801  14.292   4.149  0.1405 -0.2305 -0.1549
 6231W        W22705  17.100   9.045  14.993  0.0330 -0.0495 -0.1710
 6232W        W22706  18.019   2.777   5.037  0.1637 -0.2103  0.3266
 6233W        W22707   8.533  16.958   2.630  0.0533  0.1015  0.2657
 6234W        W22708  11.642   5.520   4.354  0.0993 -0.0266  0.2287
 6235W        W22709  14.804   2.525  12.666  0.2758  0.1562  0.0269
 6236W        W22710  15.093  15.601  15.516  0.1026 -0.1018  0.0750
 6237W        W22711  17.060   2.698   4.282  0.3607 -0.0129 -0.0108
 6238W        W22712  13.987   7.992   5.462  0.1002 -0.1810 -0.4812
 6239W        W22713   3.668   8.233   1.624  0.2308 -0.0983 -0.1199
 6240W        W22714  18.806   4.470   3.793  0.1757  0.2419  0.0234
 6241W        W22715  16.699   0.495   0.124  0.0666  0.3880 -0.2353
 6242W        W22716  11.296  15.108  11.327 -0.1746  0.2213 -0.1494
 6243W        W22717   9.771  15.150   4.804  0.1421  0.1906 -0.1936
 6244W        W22718  14.345  18.302  10.637 -0.0789 -0.1498  0.2514
 6245W        W22719  15.559   7.893  13.885  0.0242  0.1858  0.2787
 6246W        W22720   9.427   5.536  13.713  0.1885  0.0424  0.1146
 6247W        W22721  16.670   3.372   5.042 -0.1636  0.1840  0.1295
 6248W        W22722  14.450  12.599  14.573  0.0905 -0.0568 -0.3314
 6249W        W22723   7.507  17.164   1.468  0.1285  0.0147  0.2471
 6250W        W22724  14.886  18.831   1.314  0.0492  0.3102  0.3408
 6251W        W22725   9.965  11.099   0.905 -0.0031 -0.2531 -0.1455
 6252W        W22726  16.851  18.213   4.469  0.1756 -0.1385 -0.0946
 6253W        W22727   0.546   7.493  10.564 -0.1175  0.1370 -0.3425
 6254W        W22728   3.094  18.852   3.218 -0.0890  0.0772 -0.0047
 6255W        W22729  12.001   6.546   4.127  0.0937  0.3987 -0.1371
 6256W        W22730  11.575   7.152  15.482  0.3275 -0.0632  0.1654
 6257W        W22731   4.632   4.064   5.007  0.0168  0.4530  0.4446
 6258W        W22732   1.475  15.250  10.239  0.0088  0.0200  0.2183
 6259W        W22733  16.030   6.285  12.344 -0.0437 -0.0553  0.1418
 6260W        W22734  17.292   4.586   1.637  0.0597  0.3183  0.3141
 6261W        W22735   2.273   6.184  10.598 -0.0403 -0.3314  0.1466
 6262W        W22736   1.188  15.905  12.028  0.2008  0.1030  0.1439
 6263W        W22737  10.822  10.495   3.117 -0.0275 -0.1028  0.0363
 6264W        W22738   5.095   5.486   5.328  0.1339 -0.0703  0.0542
 6265W        W22739  14.982  10.330  11.837 -0.0649 -0.0337 -0.1331
 6266W        W22740  13.181  14.890  10.791  0.2072 -0.1810 -0.0954
 6267W        W22741  18.274   8.278  11.095  0.4688  0.3522 -0.0675
 6268W        W22742  13.218  17.657   3.740 -0.2403 -0.0952 -0.2979
 6269W        W22743   8.149   4.197   5.714 -0.3029 -0.3154 -0.0474
 6270W        W22744   2.752   3.357  11.448 -0.2185  0.0924 -0.1411
 6271W        W22745  12.967  14.576   0.259  0.0410  0.0437  0.0772
 6272W        W22746   4.722   3.614  11.596  0.0685 -0.0677 -0.3135
 6273W        W22747  17.075   9.734  11.134  0.3763 -0.0978  0.1873
 6274W        W22748   6.803  12.688   4.061 -0.2616 -0.2023  0.1994
 6275W        W22749  17.076   7.697  12.279 -0.2003  0.1275 -0.3702
 6276W        W22750  16.688   9.959  11.927 -0.0777  0.2168 -0.1620
 6277W        W22751   8.428  14.918   4.754 -0.0283 -0.1115  0.3147
 6278W        W22752   1.294   6.268  10.855 -0.1437  0.4290  0.2779
 6279W        W22753  13.088   4.633  11.915 -0.2283  0.2655 -0.0787
 6280W        W22754   3.394  11.471   4.859 -0.1087  0.0386  0.0720
 6281W        W22755   9.447  15.304  14.224  0.0396  0.0435  0.6034
 6282W        W22756  14.573  16.407  11.018 -0.4417  0.1083 -0.2256
 6283W        W22757  18.236   8.751   1.803 -0.0557  0.2878 -0.1794
 6284W        W22758   8.217  14.139  15.331  0.1482 -0.0350  0.2180
 6285W        W22759   0.518  10.551  12.925 -0.0663 -0.0441 -0.0250
 6286W        W22760   4.309  12.564   3.542  0.0341  0.1915  0.0476
 6287W        W22761  14.797   9.052  10.960  0.1224 -0.0547 -0.1107
 6288W        W22762  18.735  11.880   1.909  0.2297  0.2871  0.1725
 6289W        W22763   8.218   7.678   4.341  0.0709 -0.2145 -0.0670
 6290W        W22764   7.744  13.450  14.238 -0.0744 -0.1922 -0.0872
 6291W        W22765  15.807   7.243  12.559  0.0422 -0.3761 -0.1325
 6292W        W22766  11.269  14.340  12.732 -0.1529 -0.3109 -0.1438
 6293W        W22767  10.367  18.447   5.791 -0.0418  0.1906 -0.1259
 6294W        W22768   1.649  11.061   1.496  0.1171  0.0912 -0.4142
 6295W        W22769  16.286   5.197  11.380  0.1431 -0.0633 -0.1667
 6296W        W22770  15.868   4.655   0.045  0.0152 -0.0158  0.1819
 6297W        W22771   2.211  16.864   1.228 -0.3061 -0.2432  0.0691
 6298W        W22772   7.921  13.763  15.599  0.0906 -0.1997  0.0446
 6299W        W22773  18.636  18.043  14.681  0.0798 -0.1713 -0.0825
 6300W        W22774   4.825  10.057   1.252 -0.0780 -0.1587  0.2557
 6301W        W22775   7.145  11.388  12.284  0.2843 -0.2340  0.0667
 6302W        W22776   5.301   7.885   0.672 -0.2344  0.0955 -0.1061
 6303W        W22777  16.681  16.810  11.767 -0.1516  0.4242  0.3295
 6304W        W22778   9.094   0.656  13.024 -0.2749 -0.0205 -0.4364
 6305W        W22779  12.342  14.555  12.738  0.2193  0.0814  0.1433
 6306W        W22780   5.038   7.654   4.277  0.1409 -0.0366  0.0243
 6307W        W22781   2.841   8.482  11.422 -0.1203  0.0826 -0.0789
 6308W        W22782  15.417  11.299   3.379  0.3255 -0.2537  0.1144
 6309W        W22783   8.656   9.852   5.067  0.0781 -0.0243  0.2956
 6310W        W22784   8.999  11.343   5.012 -0.0288 -0.0533 -0.0790
 6311W        W22785  18.536   5.760   2.925 -0.1235  0.2847  0.0776
 6312W        W22786   4.133   4.972   4.944 -0.0357  0.4508 -0.1371
 6313W        W22787  10.871   3.958   4.782  0.0832  0.2352  0.0815
 6314W        W22788   6.271  15.154   4.661 -0.1074 -0.1567 -0.1064
 6315W        W22789   2.513  11.835  12.902 -0.1577  0.1742 -0.3369
 6316W        W22790   9.406  10.936  13.812 -0.1915 -0.0933 -0.2846
 6317W        W22791   9.499  13.406  11.950 -0.0114 -0.2061  0.3571
 6318W        W22792  16.781  16.792  10.799 -0.0499  0.1709  0.1478
 6319W        W22793  16.657   7.774  12.614  0.1496 -0.2027  0.3858
 6320W        W22794   7.616  16.938  11.909  0.2807  0.0336  0.2328
 6321W        W22795  10.967  16.086  11.643 -0.0977 -0.0856 -0.0795
 6322W        W22796  14.629  15.661  14.328 -0.2553 -0.0772  0.1883
 6323W        W22797  15.315  16.855   2.322 -0.0697  0.2178  0.1948
 6324W        W22798  17.342   4.006   4.776 -0.0661 -0.0433 -0.1913
 6325W        W22799   2.060   8.019  11.316  0.2825 -0.0304 -0.1958
 6326W        W22800   4.893   4.992  12.090  0.0901  0.0562  0.0850
 6327W        W22801   4.782   7.487   2.643 -0.0203  0.3650 -0.1048
 6328W        W22802  10.541   6.507   4.557  0.2361 -0.0484 -0.0069
 6329W        W22803   7.718   8.955   0.800 -0.0734 -0.2086 -0.2032
 6330W        W22804   0.255  12.108  11.951 -0.4380 -0.1265 -0.0735
 6331W        W22805   7.959   6.749   0.563  0.0501 -0.1775  0.4417
 6332W        W22806  14.142   6.372   1.334 -0.1936  0.0326 -0.2878
 6333W        W22807   1.320  11.716   3.842  0.0155  0.1114  0.1280
 6334W        W22808   5.796  10.172   3.809  0.0502  0.2529 -0.1093
 6335W        W22809  18.579   6.720   4.364  0.3563 -0.4501 -0.0889
 6336W        W22810   6.369  12.427   3.982  0.0492 -0.0920  0.0250
 6337W        W22811  16.537   6.904   0.707 -0.3464  0.0737  0.2294
 6338W        W22812   0.069  15.263  12.004 -0.2282  0.1754 -0.0130
 6339W        W22813   3.793  14.837  14.834 -0.5375 -0.0129 -0.0818
 6340W        W22814   4.021   3.156  12.055 -0.1828 -0.1380  0.1866
 6341W        W22815  11.716   4.391  12.164  0.0540  0.0757 -0.1134
 6342W        W22816   7.657   4.040   5.825 -0.1678 -0.0307 -0.0349
 6343W        W22817   4.209  14.765  13.906 -0.2265  0.1565 -0.2780
 6344W        W22818  12.670  16.344   2.921  0.0702  0.0926  0.1797
 6345W        W22819  14.465   9.001  11.963  0.5179 -0.2693 -0.3384
 6346W        W22820   1.266   6.980  14.842  0.2745  0.2623  0.0709
 6347W        W22821   2.145  13.009  11.524 -0.1384  0.3445 -0.0141
 6348W        W22822  12.815   0.341   4.342  0.1037 -0.0997  0.3241
 6349W        W22823   6.109  16.609   5.752  0.0755 -0.2434  0.1983
 6350W        W22824  10.643   3.813  11.495 -0.1159 -0.0134 -0.2326
 6351W        W22825  14.592  16.412  12.644 -0.0282  0.4470 -0.4010
 6352W        W22826   9.051  15.754   0.837  0.1171 -0.2664  0.0491
 6353W        W22827   8.544  16.575   5.963 -0.0117  0.3181  0.0226
 6354W        W22828  11.478   5.590  12.625 -0.0758  0.1589 -0.1656
 6355W        W22829   6.595   7.444   0.278  0.3216  0.3101  0.0849
 6356W        W22830   3.995  15.414  14.223 -0.1024  0.1139  0.1135
 6357W        W22831   9.253   8.579   4.698  0.2453  0.3059 -0.0079
 6358W        W22832   2.098   1.949  12.034  0.2558  0.0517 -0.0921
 6359W        W22833   5.727   3.287   1.326  0.0280  0.2082  0.1661
 6360W        W22834   3.985  11.520   3.121  0.3279 -0.1499  0.2253
 6361W        W22835   6.004  18.742   3.924 -0.3028 -0.2356 -0.2124
 6362W        W22836   8.156  16.026  14.922  0.0570 -0.0537 -0.3328
 6363W        W22837  11.765   5.960   2.871  0.1486 -0.2134  0.0649
 6364W        W22838   6.339  10.447   4.672 -0.0784 -0.0371  0.3100
 6365W        W22839   5.744  16.418   0.023  0.1586 -0.1752  0.0675
 6366W        W22840   6.418   0.795   2.129 -0.3315 -0.3074  0.3108
 6367W        W22841   2.545  17.373  13.529 -0.0885 -0.1263 -0.0194
 6368W        W22842   2.156  10.751  15.161 -0.0877  0.1572 -0.0563
 6369W        W22843  12.396   4.237  15.372  0.0227  0.1502  0.2818
 6370W        W22844   9.458   4.235   3.488  0.0243 -0.0062 -0.4205
 6371W        W22845   3.633   0.149   1.300  0.0626 -0.0490  0.1781
 6372W        W22846   4.809   1.119   6.345 -0.4061  0.1135 -0.1118
 6373W        W22847  10.776  11.883   2.414 -0.1046  0.0732  0.1407
 6374W        W22848  12.271   5.426   6.451  0.2603 -0.3792 -0.2194
 6375W        W22849  15.270   2.769  12.516 -0.1045 -0.2994 -0.0933
 6376W        W22850  16.141   5.795   0.567  0.3396  0.0051 -0.0111
 6377W        W22851  11.922  17.102   2.226  0.1774  0.1237  0.0081
 6378W        W22852   2.643   6.846  15.337  0.0590  0.2763 -0.1995
 6379W        W22853  12.866  12.822  15.385  0.0147  0.0233 -0.3652
 6380W        W22854   3.320  15.280  13.163  0.3455  0.2557 -0.0555
 6381W        W22855  11.715   1.978   0.810  0.1179  0.0425  0.0378
 6382W        W22856   8.183   8.568  12.670  0.0413 -0.1587  0.1449
 6383W        W22857  17.903  10.287   5.655 -0.0141 -0.1466 -0.0047
 6384W        W22858   2.767   3.294   0.034  0.3628  0.0456  0.3353
 6385W        W22859  12.735   9.757   4.031 -0.2336  0.3086  0.0639
 6386W        W22860   2.308  12.619   0.781  0.1862  0.2333  0.3139
 6387W        W22861   0.179   4.997   3.835 -0.0747  0.1853 -0.4415
 6388W        W22862  16.603   5.068  15.083 -0.1573  0.0321  0.1796
 6389W        W22863  17.980  15.025  11.375  0.1465  0.2963  0.1509
 6390W        W22864   3.907  16.061   3.308 -0.1067 -0.3672 -0.3314
 6391W        W22865   8.148   3.028  11.276  0.0699  0.1924  0.0416
 6392W        W22866  12.391   8.420  12.055 -0.5631 -0.0439  0.2729
 6393W        W22867   4.830  10.413  15.400  0.2512  0.3558 -0.4715
 6394W        W22868  15.198   6.490  15.051 -0.1897  0.0713 -0.1901
 6395W        W22869   7.801   8.406  10.935 -0.1040  0.1617  0.1677
 6396W        W22870  17.317   1.419  12.940 -0.1498 -0.3692  0.0355
 6397W        W22871  13.561  15.840  14.004 -0.0163  0.1991  0.0965
 6398W        W22872   3.782   2.805  13.079 -0.1856  0.1494  0.1160
 6399W        W22873  17.528  15.908  14.235 -0.2239 -0.0575 -0.0157
 6400W        W22874   1.369  16.897  12.117 -0.2424 -0.0202 -0.1525
 6401W        W22875   2.379   5.728  15.565 -0.0174  0.1991 -0.0662
 6402W        W22876   7.067   3.765   1.337  0.1692 -0.1287 -0.0038
 6403W        W22877  13.439   2.758  15.229  0.1975  0.2772  0.2346
 6404W        W22878   8.249   8.206  11.240 -0.0340  0.1041 -0.0378
 6405W        W22879   4.170   5.686   0.162  0.1821 -0.3869 -0.2239
 6406W        W22880   2.984  12.451   3.797  0.2176 -0.0485  0.1012
 6407W        W22881   2.148  14.809  12.645  0.0384 -0.0553 -0.1224
 6408W        W22882   7.770   7.680  12.700  0.1978 -0.4344 -0.0520
 6409W        W22883  15.354   8.737   3.739 -0.2546 -0.0937 -0.1356
 6410W        W22884   8.281   7.600  12.784  0.1797  0.0701  0.0610
 6411W        W22885   4.104   2.456  14.637 -0.4367 -0.2434  0.0400
 6412W        W22886  11.010   8.592   4.476  0.0561 -0.0187 -0.2555
 6413W        W22887  17.494   2.017   0.588 -0.0989 -0.0236 -0.1834
 6414W        W22888  14.445   8.324  10.958  0.1006  0.0973  0.0022
 6415W        W22889  10.008  11.121   6.187 -0.2538 -0.0632  0.0916
 6416W        W22890  11.439  12.117   3.265 -0.3719  0.1335 -0.2451
 6417W        W22891  12.202  14.634  14.746  0.0734 -0.2162  0.0336
 6418W        W22892  16.606  12.695   9.937  0.0025  0.0159 -0.0183
 6419W        W22893  10.505  18.369   0.400 -0.0393  0.2737  0.1007
 6420W        W22894   1.676   5.707  14.357  0.0457  0.0568  0.2147
 6421W        W22895   1.318  15.548   4.650  0.1554  0.0908 -0.2664
 6422W        W22896   2.666   6.570  12.466  0.0881  0.1969 -0.1790
 6423W        W22897   5.315  15.250   2.785 -0.1517 -0.1518  0.1983
 6424W        W22898   0.982  10.596   2.222 -0.2886 -0.3398  0.0154
 6425W        W22899   3.582  11.417  15.489 -0.0168  0.0423 -0.0609
 6426W        W22900   2.610  11.063   2.209  0.0179  0.2382  0.1128
 6427W        W22901  10.709  18.060   5.417 -0.0027 -0.3373  0.0264
 6428W        W22902   3.653   0.057   5.492 -0.0411  0.2945  0.0047
 6429W        W22903   2.381   6.887   4.485 -0.1660 -0.1925  0.0008
 6430W        W22904   7.398  13.259   2.424  0.2554  0.1585 -0.0829
 6431W        W22905   5.070  14.802   0.485  0.3579  0.0262  0.0264
 6432W        W22906  18.648  15.188  13.546  0.3406 -0.2833 -0.2098
 6433W        W22907  16.735  18.449   1.784 -0.3407 -0.2058 -0.2421
 6434W        W22908  11.392  13.197  14.416  0.1232 -0.3289  0.0183
 6435W        W22909   0.721   3.611   4.756 -0.6293  0.3628  0.3267
 6436W        W22910  16.252  10.111  13.510 -0.1190 -0.3029  0.1456
 6437W        W22911   2.214  12.783  10.998 -0.0041  0.1068 -0.2864
 6438W        W22912  18.607  14.086  13.565  0.2684  0.0893  0.0094
 6439W        W22913   0.535  18.380   4.493 -0.2117  0.4635  0.1807
 6440W        W22914  13.899   7.420  12.234  0.2055  0.3401 -0.1801
 6441W        W22915   3.703  13.261  12.852  0.1758 -0.2843 -0.0520
 6442W        W22916   2.199  15.194   4.497  0.4105 -0.0809 -0.0881
 6443W        W22917   2.356   5.336   2.927 -0.1673 -0.0945 -0.1617
 6444W        W22918   2.472   6.624   2.382  0.1982 -0.0391  0.2377
 6445W        W22919  13.816  15.793  14.503  0.1255  0.1496  0.2040
 6446W        W22920  11.165  14.841  13.656  0.0533 -0.1393 -0.1527
 6447W        W22921   6.337   8.156  11.150  0.0224 -0.0268  0.0411
 6448W        W22922  18.252   0.972   2.933 -0.0749  0.1632 -0.2147
 6449W        W22923   5.655  12.047   2.134  0.1240  0.1326  0.0950
 6450W        W22924   5.054   2.810   0.421 -0.2790  0.1603  0.2681
 6451W        W22925   1.357  14.295  12.679 -0.0602 -0.1736 -0.0765
 6452W        W22926   5.633  11.626  13.283  0.0355 -0.1873 -0.2025
 6453W        W22927  13.762  12.739  15.027 -0.0822  0.0208 -0.1915
 6454W        W22928   9.960   0.518   4.912 -0.1207  0.1000  0.0023
 6455W        W22929   4.828  12.739   3.811  0.2780  0.0345 -0.0911
 6456W        W22930  11.550  17.154   3.768  0.1591  0.0565  0.0021
 6457W        W22931  12.087  17.769   1.775  0.2634  0.0167 -0.0205
 6458W        W22932  14.245  10.227  11.985  0.0342 -0.0025  0.2318
 6459W        W22933   2.832  12.583   1.351  0.0561  0.2118 -0.2422
 6460W        W22934  17.863   3.678  11.383  0.2219  0.2271  0.2272
 6461W        W22935   2.896  14.630  14.398 -0.4420 -0.1522 -0.0958
 6462W        W22936  14.154  16.951  14.351 -0.0228  0.0672  0.1414
 6463W        W22937   7.006  17.453   1.468  0.1672  0.0986 -0.3039
 6464W        W22938   0.849  17.983   0.470 -0.2551 -0.0544  0.0556
 6465W        W22939  12.517   7.326   4.196  0.0696 -0.2823 -0.0405
 6466W        W22940  13.563   8.562  14.601  0.1677 -0.3538  0.1221
 6467W        W22941   8.296  17.186   3.778  0.1949  0.0376 -0.0353
 6468W        W22942   4.968   2.115  11.052  0.0738 -0.1948  0.2449
 6469W        W22943   0.439  17.982   2.820 -0.0038  0.2439 -0.0746
 6470W        W22944   3.662   3.928  15.111 -0.1043 -0.0605 -0.0745
 6471W        W22945  12.842   9.315   4.850  0.4970 -0.0545 -0.0623
 6472W        W22946  11.994   7.563  14.928 -0.0416 -0.4914 -0.0674
 6473W        W22947   4.610  12.224   2.987  0.1837  0.1287 -0.0566
 6474W        W22948   2.018  11.426  14.103 -0.2092 -0.1417 -0.0552
 6475W        W22949   1.615  17.446   0.090 -0.0136  0.4842 -0.1846
 6476W        W22950   4.114  17.445  12.272  0.1020 -0.0519  0.1015
 6477W        W22951   3.828   5.967   2.904 -0.0096  0.0506  0.0099
 6478W        W22952  10.489   7.358   3.912  0.1105  0.1339  0.2616
 6479W        W22953   9.633  15.237  14.726  0.3669 -0.0957  0.1616
 6480W        W22954  14.604   9.783   0.208 -0.0398  0.1257  0.2945
 6481W        W22955   0.668  13.082  13.795  0.1836  0.0267  0.0322
 6482W        W22956   6.290  17.424   0.277 -0.1659  0.0973  0.2147
 6483W        W22957  16.344   0.876   9.341  0.1231 -0.2680  0.0257
 6484W        W22958  16.206   1.800  11.524  0.2914 -0.1131 -0.1041
 6485W        W22959  18.689  13.158  13.385 -0.1992 -0.0889  0.0241
 6486W        W22960  17.824  14.232  13.013 -0.3013  0.0314 -0.0730
 6487W        W22961   1.735  15.149  10.887 -0.1033 -0.1160 -0.0786
 6488W        W22962   8.910   8.906   5.421  0.2171  0.0757  0.2391
 6489W        W22963  13.058  16.510   0.093 -0.1260  0.0792 -0.2816
 6490W        W22964  14.369  14.222  14.049  0.0583  0.1332  0.2943
 6491W        W22965  11.886   7.689   1.283  0.0654  0.0782  0.1973
 6492W        W22966   4.050   1.289   0.704 -0.0186 -0.3559  0.0422
 6493W        W22967  12.449   8.222  15.537 -0.2118  0.4526 -0.2376
 6494W        W22968   1.051   5.017  11.280 -0.0148 -0.0344 -0.3910
 6495W        W22969   2.159   9.329   1.619  0.1034 -0.2730 -0.1646
 6496W        W22970  16.239   9.505  15.212  0.2961  0.0471 -0.0412
 6497W        W22971   5.144   9.632   1.446 -0.0190 -0.0602  0.0245
 6498W        W22972   4.371   9.184   2.428 -0.1784 -0.0522  0.1284
 6499W        W22973   8.671   7.230  11.787 -0.0485  0.2169 -0.1286
 6500W        W22974  11.392   5.139   2.404  0.3554  0.1270 -0.0721
 6501W        W22975  17.426  18.811   4.554 -0.0487  0.2038 -0.0703
 6502W        W22976  16.963   8.452  10.999  0.1502 -0.0167 -0.0101
 6503W        W22977   0.525   3.158  11.331 -0.3588 -0.1671  0.1107
 6504W        W22978   6.720  13.099   3.735 -0.0444 -0.0262  0.1892
 6505W        W22979  12.520  15.633   0.216  0.1763  0.2512 -0.2865
 6506W        W22980   2.873   9.929  13.410  0.3275  0.0229 -0.1159
 6507W        W22981   1.920  16.082   2.343  0.0526 -0.2872 -0.0307
 6508W        W22982   4.738  14.550   0.238 -0.4440 -0.0300 -0.0299
 6509W        W22983  10.721  13.473   4.856  0.2148  0.1766 -0.5691
 6510W        W22984  13.265  18.837   3.063 -0.2631  0.1301  0.1689
 6511W        W22985   0.452   4.191   4.064 -0.1006 -0.1078 -0.0237
 6512W        W22986  15.207  17.251  14.593  0.2166 -0.4674  0.1099
 6513W        W22987  16.092  13.009  13.856  0.2171 -0.0170 -0.0498
 6514W        W22988   4.406   1.360   4.562 -0.0747 -0.0540 -0.0919
 6515W        W22989   8.417  18.388   0.177  0.0920 -0.0372 -0.1095
 6516W        W22990   5.474   2.159   2.551  0.0556  0.0828  0.2236
 6517W        W22991  14.869  11.571   1.049 -0.0663 -0.0568 -0.0049
 6518W        W22992   7.842  17.512   2.967 -0.0659 -0.4326 -0.1031
 6519W        W22993  18.056  12.502   3.452  0.1221 -0.1082 -0.1761
 6520W        W22994   5.113  15.072   3.243 -0.1418 -0.2308 -0.2482
 6521W        W22995   4.572  17.210  11.080 -0.0110 -0.1979  0.3650
 6522W        W22996   6.886  12.068  15.620 -0.0579 -0.1231  0.1355
 6523W        W22997   4.437   2.294   4.149 -0.3872 -0.1537  0.4530
 6524W        W22998   5.474   9.107   4.462 -0.1919 -0.0827  0.0592
 6525W        W22999   8.606   9.833  14.075 -0.1549  0.0255 -0.1059
 6526W        W23000   5.443   1.240  12.060 -0.0872  0.2486 -0.0737
 6527W        W23001   5.220   9.432  11.408  0.2960  0.3017  0.2789
 6528W        W23002  14.315  10.906   1.869  0.0737 -0.1598  0.2851
 6529W        W23003  12.756   7.053  15.137  0.0347  0.0168 -0.2042
 6530W        W23004   4.215   3.638  11.839 -0.1807 -0.2543 -0.0193
 6531W        W23005  13.131   6.829   1.498  0.3430 -0.1859 -0.4960
 6532W        W23006   5.593  12.039  15.413  0.1758 -0.4009  0.0754
 6533W        W23007   8.558  14.096  11.102 -0.0272  0.2772  0.0762
 6534W        W23008   2.286  12.334   1.553 -0.0960 -0.3815  0.2556
 6535W        W23009  14.354   3.129   3.763 -0.0958 -0.0565  0.1003
 6536W        W23010   1.446  14.747  12.906  0.0758 -0.1594 -0.4064
 6537W        W23011   1.318  16.437   1.415  0.0998  0.0358 -0.2886
 6538W        W23012   1.371   4.069   4.058  0.0900  0.3007  0.1019
 6539W        W23013   0.576   8.528  12.432  0.0322  0.0539 -0.0764
 6540W        W23014   3.668   3.192   3.044  0.2183  0.1524  0.1084
 6541W        W23015   4.793   5.717  14.329 -0.0363  0.0936 -0.0736
 6542W        W23016  13.948  13.497  15.579 -0.0219 -0.0935 -0.2081
 6543W        W23017   7.223   1.838  15.423  0.3230 -0.2328  0.0309
 6544W        W23018   3.051  14.643   5.124 -0.2086  0.1376  0.3824
 6545W        W23019   3.853   3.530   4.962 -0.0975  0.1290 -0.0436
 6546W        W23020  12.541   8.316   4.559 -0.2871 -0.0089  0.0365
 6547W        W23021  13.479   3.836   1.240  0.1454 -0.1240  0.1767
 6548W        W23022  15.969  10.504   4.329  0.2560  0.1344  0.0720
 6549W        W23023  11.357  11.894  14.862  0.1597 -0.0440  0.0552
 6550W        W23024   8.461  12.008  15.284  0.0002 -0.0911 -0.2636
 6551W        W23025   7.659  18.143   0.877  0.2820 -0.1400 -0.2168
 6552W        W23026   0.523  12.210   1.844  0.2987 -0.3236 -0.1984
 6553W        W23027   2.092  14.861   3.200 -0.0471  0.3316 -0.3600
 6554W        W23028   8.817  13.989  13.043  0.1216 -0.1448 -0.1280
 6555W        W23029  16.510   4.422  11.941  0.3220  0.2258  0.2162
 6556W        W23030  14.849   2.269   2.580  0.0371 -0.3159  0.3965
 6557W        W23031  11.773   0.418   2.427 -0.2106  0.0337 -0.2704
 6558W        W23032   4.407   6.908  11.095 -0.2188  0.0157 -0.4017
 6559W        W23033   1.242   6.024   1.045  0.1391 -0.0683 -0.2430
 6560W        W23034   2.958   7.960  12.043 -0.2364 -0.1141 -0.0826
 6561W        W23035   4.643   8.238  11.888 -0.2817 -0.0986 -0.0042
 6562W        W23036  12.306   7.957  13.606 -0.0113  0.0636 -0.3042
 6563W        W23037  12.738   9.438  14.154 -0.2890  0.0558 -0.0784
 6564W        W23038   8.066   1.648  14.075 -0.1308 -0.1908  0.2596
 6565W        W23039  11.024  18.307  10.012 -0.1196  0.2633  0.2204
 6566W        W23040   4.198  18.703   3.488  0.2203  0.2393  0.1674
 6567W        W23041   4.217  14.698   1.426 -0.0785  0.0933  0.0628
 6568W        W23042  15.784  17.499  12.634 -0.1339 -0.0613  0.0932
 6569W        W23043  14.627  13.096  14.044  0.0041 -0.1684  0.3295
 6570W        W23044  11.056   9.327   4.971  0.2264 -0.3794  0.0004
 6571W        W23045  16.347   2.266   2.500 -0.1132  0.4168 -0.1771
 6572W        W23046  11.172  14.149   2.404  0.0380  0.2351  0.2038
 6573W        W23047  15.396   0.445   4.743 -0.1368 -0.4570 -0.2719
 6574W        W23048  15.977   4.927   5.383  0.0369  0.0293  0.0264
 6575W        W23049   5.840  12.169   1.099 -0.0997  0.2416  0.1054
 6576W        W23050  12.382  16.310   1.254 -0.1602 -0.1279 -0.0604
 6577W        W23051   6.661   7.210   3.648 -0.0030 -0.0940  0.1049
 6578W        W23052   1.346   6.177   5.335  0.1234 -0.1384  0.1682
 6579W        W23053   8.368   8.960   2.093  0.1024 -0.3072 -0.4166
 6580W        W23054  16.422   1.840   0.619  0.0828 -0.2574  0.0286
 6581W        W23055   6.100  10.824   4.072 -0.1163 -0.3561 -0.0707
 6582W        W23056  12.113  15.724  11.201  0.0262 -0.0686 -0.4197
 6583W        W23057   5.402  12.608   0.597 -0.2725  0.0251 -0.1332
 6584W        W23058   1.736   2.183   3.412  0.0551 -0.2332  0.1347
 6585W        W23059  18.784   1.698  13.860  0.1380  0.0497 -0.1579
 6586W        W23060   1.501  18.360  13.181  0.0994  0.1065  0.2467
 6587W        W23061   4.078   8.247  11.336  0.0737 -0.0280  0.1000
 6588W        W23062  12.107  18.791   4.887  0.1361 -0.0899 -0.2386
 6589W        W23063   8.771   4.883  14.951  0.1916  0.1119 -0.2454
 6590W        W23064   4.621   0.518   4.440  0.0865 -0.3581 -0.1951
 6591W        W23065   4.675   4.089  11.623 -0.1697 -0.0664 -0.0716
 6592W        W23066   5.131  17.047  14.796  0.0837  0.1110  0.3656
 6593W        W23067   8.638  15.629  14.333  0.1141 -0.0563  0.2476
 6594W        W23068  13.925  18.693  13.626 -0.0051 -0.2334 -0.5344
 6595W        W23069   1.170   3.662  14.287 -0.0787 -0.1431  0.0071
 6596W        W23070  10.117   1.001   4.765 -0.0404  0.2830 -0.2170
 6597W        W23071   8.730   9.743   0.051 -0.1757 -0.0680  0.1333
 6598W        W23072  18.360   3.844  12.949 -0.1245 -0.4713 -0.2285
 6599W        W23073  16.638  17.240  12.714  0.0377  0.0332 -0.3052
 6600W        W23074   2.848   1.054  14.432 -0.1597  0.2024 -0.0858
 6601W        W23075   2.775  10.266  11.728 -0.1609 -0.1027  0.3518
 6602W        W23076  16.222  14.937   2.082 -0.1137 -0.4266  0.1245
 6603W        W23077   7.576  15.959   1.190  0.3793  0.2683  0.1031
 6604W        W23078   6.889   4.323  15.438  0.0605 -0.0161 -0.3890
 6605W        W23079   6.913   8.750  13.327  0.1657 -0.3497 -0.2565
 6606W        W23080   5.902  12.003  10.128  0.1528  0.1714 -0.3684
 6607W        W23081   3.017  10.777  13.818 -0.3511 -0.0641 -0.1387
 6608W        W23082  10.770  17.671  14.794 -0.0834  0.3550 -0.0280
 6609W        W23083   3.748   8.108   3.462 -0.0445  0.3886  0.0783
 6610W        W23084   1.665  15.303   0.668 -0.0746 -0.0371 -0.2417
 6611W        W23085  17.733  12.796   4.109 -0.2879 -0.1672  0.0593
 6612W        W23086   1.678   8.092   0.774  0.0212 -0.0489 -0.0037
 6613W        W23087  18.396  12.967  11.975 -0.1387  0.1256 -0.1569
 6614W        W23088   2.821   2.513   1.948 -0.0024 -0.1854 -0.2539
 6615W        W23089  14.175   8.126   1.950 -0.2133  0.0648 -0.2472
 6616W        W23090   4.095  15.038   1.068  0.2456  0.0746 -0.0021
 6617W        W23091   5.726  12.685  14.819  0.4892 -0.4247  0.0798
 6618W        W23092  14.711   1.880  15.113  0.0788 -0.0238  0.2381
 6619W        W23093  16.664   1.634   1.028  0.2099 -0.1528  0.3141
 6620W        W23094  11.077   6.324   5.847 -0.2026  0.4904 -0.2180
 6621W        W23095   0.466  11.043   4.699  0.0853 -0.0351  0.0774
 6622W        W23096  16.639  18.285  12.272 -0.3032  0.3130 -0.1884
 6623W        W23097  10.169   1.496  13.446 -0.1172 -0.0749  0.1256
 6624W        W23098   2.380  10.710   3.170 -0.1286 -0.1414 -0.1365
 6625W        W23099   8.506   8.870   0.673 -0.3344  0.0532  0.0121
 6626W        W23100   2.230  13.024  12.913 -0.2039 -0.3474 -0.0140
 6627W        W23101  12.803   9.738   0.184  0.0103 -0.3244 -0.2343
 6628W        W23102   7.121   1.652   2.293 -0.1183 -0.1243 -0.2568
 6629W        W23103  14.471  12.829   4.325  0.2291 -0.1734  0.2822
 6630W        W23104   2.209  15.015   5.069 -0.0444  0.2687  0.1712
 6631W        W23105  15.041   2.480   1.089 -0.3846  0.0709  0.1994
 6632W        W23106  16.781   6.465   1.694  0.1395 -0.1599  0.2470
 6633W        W23107   3.907   3.038   3.525  0.2364  0.2761 -0.2639
 6634W        W23108   0.305   2.798   0.072  0.2588 -0.3058 -0.0745
 6635W        W23109  17.370   6.620  14.406  0.2624  0.2083 -0.2225
 6636W        W23110  15.395  11.557  11.272  0.0546  0.2159  0.2247
 6637W        W23111  16.283   6.854   1.377 -0.2206 -0.1811 -0.2978
 6638W        W23112   8.356   3.097  15.089  0.2276 -0.1294 -0.1337
 6639W        W23113  16.157   0.713  13.280  0.4761 -0.1188  0.3687
 6640W        W23114   8.336  10.607  11.256 -0.1056  0.0213 -0.0963
 6641W        W23115  12.890  16.540   3.327  0.0452  0.2059 -0.0119
 6642W        W23116   1.118   8.259   3.057 -0.1695 -0.0809  0.0852
 6643W        W23117   8.584   9.173   5.656 -0.0568 -0.1479 -0.0318
 6644W        W23118   6.292   5.632  14.124  0.1279  0.2081  0.3824
 6645W        W23119  12.417   2.520  15.573  0.2128  0.1842  0.0021
 6646W        W23120   6.629  10.934   2.417  0.0732  0.1872 -0.1085
 6647W        W23121   9.173  18.306  13.997 -0.2165  0.2113 -0.0309
 6648W        W23122  11.840   5.806  15.369  0.1039  0.2231 -0.1706
 6649W        W23123   0.438  13.313  15.304  0.2590  0.0549  0.3482
 6650W        W23124   8.359   1.415  13.591  0.4348 -0.1677 -0.2618
 6651W        W23125   2.503  12.603  13.979  0.0075  0.1178 -0.3269
 6652W        W23126  10.860   7.271  14.191 -0.1412  0.0238  0.0217
 6653W        W23127   4.984   2.874   5.513  0.2943  0.0057 -0.1065
 6654W        W23128  17.627  18.406   3.299 -0.1434 -0.0774  0.4820
 6655W        W23129  11.029   7.391  11.552 -0.4665 -0.1224 -0.0353
 6656W        W23130   2.698  12.569  12.076 -0.3297 -0.3005  0.0223
 6657W        W23131  16.159   1.398   1.447  0.1788  0.1772  0.3425
 6658W        W23132   1.185  11.872  13.769 -0.1597 -0.1747  0.0838
 6659W        W23133   9.980   3.581   0.477 -0.0346 -0.1330  0.3153
 6660W        W23134   6.853  14.610   0.011 -0.0941 -0.0884 -0.1672
 6661W        W23135   6.867   2.521   0.926 -0.1303  0.1829  0.1131
 6662W        W23136   2.738  17.777  15.522  0.0642 -0.0958  0.1759
 6663W        W23137   3.486  14.127   1.516 -0.4429  0.0465 -0.1911
 6664W        W23138   6.518   7.266   4.840  0.0088  0.5192  0.1057
 6665W        W23139  10.248   8.855   2.582  0.1681 -0.2541  0.0533
 6666W        W23140  13.119   7.255   3.144 -0.0650  0.0508 -0.0674
 6667W        W23141   1.872   9.156  12.500  0.2960 -0.4303  0.2494
 6668W        W23142   7.606  17.412   0.545 -0.1534  0.0643 -0.1087
 6669W        W23143  18.396   4.970   3.572 -0.1018 -0.0605  0.2807
 6670W        W23144  16.437   0.772   0.572 -0.0555 -0.0469 -0.0460
 6671W        W23145  11.721  10.422  11.880 -0.2101 -0.2707  0.0848
 6672W        W23146   5.230  11.488  11.540  0.0066  0.3455 -0.0304
 6673W        W23147   9.770  14.999  11.239 -0.0342 -0.2673  0.2350
 6674W        W23148  13.458   8.765   3.871 -0.1329  0.0457 -0.1553
 6675W        W23149  10.734  11.180  11.383  0.0282  0.0746  0.0844
 6676W        W23150  15.427   2.494  11.152 -0.0391 -0.1187  0.2844
 6677W        W23151  10.302  17.769   3.631 -0.0993 -0.0174  0.0282
 6678W        W23152  18.590  16.566   0.022 -0.0667 -0.2023  0.2953
 6679W        W23153  17.823  13.182  14.202 -0.0614  0.1036 -0.1386
 6680W        W23154   2.692   7.054   3.726 -0.2144 -0.4195  0.0181
 6681W        W23155  11.486  15.693  14.161 -0.1127 -0.3627  0.0450
 6682W        W23156   2.645   7.587  14.648  0.1183  0.4037  0.1344
 6683W        W23157   3.137   6.533   1.445  0.3487  0.1011 -0.0831
 6684W        W23158   0.176  16.879  11.575  0.0431  0.4467  0.4938
 6685W        W23159  15.669   1.839   3.609 -0.1604  0.1331 -0.0445
 6686W        W23160   1.867   1.122  11.468  0.0835 -0.0088 -0.0793
 6687W        W23161  11.368   0.973  12.822 -0.4454 -0.2387 -0.3979
 6688W        W23162  18.813   6.199  15.330 -0.0878 -0.0265 -0.0962
 6689W        W23163  17.961   2.505   1.994  0.1641 -0.4004  0.1034
 6690W        W23164  13.219  12.526   1.596 -0.0349 -0.3339  0.3141
 6691W        W23165   1.051  10.471   1.457 -0.0634  0.0453  0.4535
 6692W        W23166  18.389  12.077   1.581 -0.0005  0.1689  0.3170
 6693W        W23167  16.998  12.780   0.125 -0.1286 -0.2014  0.0584
 6694W        W23168  10.627  11.598   4.761  0.1593 -0.3806 -0.0697
 6695W        W23169  17.755   8.996   0.857 -0.1875 -0.3532  0.1306
 6696W        W23170   0.575  18.569   3.718  0.0187  0.1740  0.3268
 6697W        W23171  14.155  17.814  13.216  0.0086  0.0210  0.0846
 6698W        W23172  12.287  16.710   5.286  0.1542 -0.1904 -0.2724
 6699W        W23173  10.887  16.846   2.334 -0.1393  0.1864  0.2884
 6700W        W23174   6.151  17.948  10.959 -0.1234  0.0943 -0.2486
 6701W        W23175   9.314   1.554   2.470  0.0804 -0.1324  0.0677
 6702W        W23176   7.124   6.210  12.027  0.0868  0.3184  0.0470
 6703W        W23177   7.331  10.591   4.030  0.4057 -0.2233  0.0072
 6704W        W23178   0.877   1.024   4.390 -0.0612  0.1124  0.2544
 6705W        W23179  11.998   6.836   5.068  0.2136  0.1824 -0.2052
 6706W        W23180  16.039  18.240   3.611 -0.2108  0.0557 -0.4106
 6707W        W23181   4.441  14.970  12.945 -0.0597 -0.0044  0.1475
 6708W        W23182  15.020  17.312   2.924  0.0450 -0.2760  0.0748
 6709W        W23183   4.650  15.439  10.490 -0.0157 -0.2503  0.0744
 6710W        W23184  18.157   1.814   3.717  0.0174 -0.0152  0.0758
 6711W        W23185   4.476   0.127  13.297 -0.0763 -0.0339  0.0194
 6712W        W23186   5.071  12.331   4.674 -0.1854  0.0957 -0.2666
 6713W        W23187   4.191  13.594   4.914 -0.4763  0.1105  0.3100
 6714W        W23188  10.179  15.426  15.555 -0.4030 -0.1572 -0.0810
 6715W        W23189  14.018   6.357  11.102  0.1423 -0.1608  0.0514
 6716W        W23190   6.401   7.424  15.172 -0.3043  0.0289  0.0657
 6717W        W23191  10.641  14.865  14.494  0.0077  0.0424  0.0363
 6718W        W23192  10.395  18.084  14.849  0.3703 -0.1640  0.2423
 6719W        W23193  14.008  10.868  10.839  0.0820  0.0013 -0.1015
 6720W        W23194   3.576  16.992   0.734  0.2154  0.0757  0.0675
 6721W        W23195   7.169   9.529   2.597 -0.0043  0.3203 -0.0750
 6722W        W23196  18.274   0.968  13.915  0.0617  0.0440  0.1253
 6723W        W23197  16.147  11.779  11.027  0.1695  0.0404 -0.0341
 6724W        W23198  18.601  14.615  10.918 -0.0090 -0.0597 -0.2830
 6725W        W23199  12.707   6.136   4.666 -0.0603  0.4157 -0.0203
 6726W        W23200   3.515   6.594  13.145 -0.3571 -0.0203  0.1677
 6727W        W23201   4.595   3.335  12.339  0.2846 -0.1101  0.3169
 6728W        W23202   7.293  15.851  15.232 -0.2726 -0.2120  0.3060
 6729W        W23203  18.391  13.010  12.864 -0.1873 -0.4054  0.1713
 6730W        W23204   3.906  11.798   2.141  0.1730 -0.1259  0.1631
 6731W        W23205   9.929  18.361  11.353  0.0405 -0.0548  0.4155
 6732W        W23206  17.132   3.983  12.784 -0.1917 -0.2033  0.4017
 6733W        W23207  18.217   3.930  14.035  0.2696  0.0381  0.0008
 6734W        W23208  13.585  17.366  12.167  0.0572 -0.2801 -0.1006
 6735W        W23209  17.172  12.604  14.307  0.0143 -0.4459  0.0368
 6736W        W23210  16.615  11.046  10.469 -0.2667  0.4079  0.0024
 6737W        W23211  17.721  14.963   2.906 -0.2045  0.1960 -0.5785
 6738W        W23212  15.666   3.542   1.664 -0.1808 -0.0031  0.3889
 6739W        W23213   5.012  12.500   1.598  0.4345  0.1954 -0.2989
 6740W        W23214  18.015   8.848  10.747 -0.0967 -0.0815  0.6668
 6741W        W23215   2.559   9.821  11.591  0.1256  0.4179 -0.1381
 6742W        W23216  11.050   7.235   5.769 -0.3042 -0.0499  0.0783
 6743W        W23217  13.448  14.747   1.136 -0.0384 -0.1697  0.0343
 6744W        W23218  14.644  15.647   0.138 -0.4489 -0.2214 -0.0687
 6745W        W23219   6.207  11.668   1.477  0.2437 -0.0804  0.3181
 6746W        W23220  15.129   2.227   0.660  0.0166 -0.4915  0.0535
 6747W        W23221   4.792  11.993   4.939  0.0203  0.1521 -0.1988
 6748W        W23222   7.803   4.170   5.294 -0.1948  0.1191  0.0694
 6749W        W23223  15.373  17.024  10.027  0.1072 -0.0938  0.0503
 6750W        W23224  12.614  17.602   5.372  0.2546 -0.1258 -0.0860
 6751W        W23225   1.043   9.510  13.560  0.1628  0.1299 -0.4074
 6752W        W23226   4.604   6.049   5.400  0.1955  0.0468 -0.1520
 6753W        W23227   0.111  12.786  10.825  0.0169 -0.1021  0.1719
 6754W        W23228   2.372   7.110  14.244  0.1028  0.0628 -0.0050
 6755W        W23229  11.822   8.599   3.683  0.0370  0.0714 -0.0182
 6756W        W23230  14.500   1.519   9.766 -0.2013 -0.3633  0.2029
 6757W        W23231  13.037  11.104  11.565 -0.1715 -0.0721 -0.0190
 6758W        W23232   7.078   0.911  11.823  0.1555  0.1416 -0.0691
 6759W        W23233  15.585  17.677   2.531 -0.4269  0.6968 -0.1413
 6760W        W23234   0.243  11.932   3.201  0.3229 -0.1166  0.2319
 6761W        W23235  17.731  12.911   3.559 -0.3692  0.0506  0.0894
 6762W        W23236  17.330  16.188  12.556 -0.0348  0.0008  0.3190
 6763W        W23237  17.458  16.047   4.308 -0.0844  0.0778 -0.1693
 6764W        W23238   1.129  14.451   3.922  0.0861 -0.2635 -0.1711
 6765W        W23239   8.675   0.102  14.430  0.3080 -0.2896  0.1544
 6766W        W23240   0.571   6.767   0.326  0.0571  0.0710 -0.3704
 6767W        W23241   1.203   1.774  12.111  0.0681  0.1397  0.1312
 6768W        W23242  17.316   6.326   0.475  0.1166 -0.0364 -0.0929
 6769W        W23243  11.480  15.922  15.312  0.1609  0.1793 -0.5019
 6770W        W23244   9.254  18.809  13.669  0.4227 -0.1998  0.2213
 6771W        W23245   2.660  15.476  15.508  0.1603 -0.0790 -0.0376
 6772W        W23246  18.203   9.068  14.360 -0.2477 -0.1363 -0.1564
 6773W        W23247  11.593  14.220  13.185  0.2480  0.3330 -0.1939
 6774W        W23248   8.538   1.784  13.928  0.1432  0.0228 -0.3387
 6775W        W23249   3.498   6.898  12.721 -0.1706 -0.3566 -0.2147
 6776W        W23250  18.471  18.248  12.004  0.2872 -0.1893 -0.6092
 6777W        W23251   9.503   3.565   3.539 -0.1804 -0.3086  0.3021
 6778W        W23252  16.727   6.612   3.235  0.1582 -0.3195  0.0788
 6779W        W23253   4.069  13.997   5.482  0.5024  0.4091 -0.0158
 6780W        W23254   6.699   6.482  12.253 -0.0137  0.0830 -0.1407
 6781W        W23255  17.427   6.290  15.128 -0.0659  0.1395  0.0125
 6782W        W23256  18.669   8.410  11.386 -0.3338  0.2360  0.0733
 6783W        W23257   7.454   0.299  11.907  0.1153 -0.3699 -0.2511
 6784W        W23258   1.548   7.044   2.597  0.0842  0.2753  0.0853
 6785W        W23259   8.967   4.786   0.885  0.0259  0.0498 -0.1740
 6786W        W23260  12.283   4.976  14.421  0.3692  0.1905  0.0231
 6787W        W23261  10.693   2.452   2.291 -0.3508 -0.4374 -0.0576
 6788W        W23262   0.653  14.623  14.298  0.1708  0.2126 -0.2141
 6789W        W23263  13.062   2.255   3.655  0.0239 -0.2665 -0.0361
 6790W        W23264  13.135  13.816  11.860 -0.4682  0.0651 -0.0197
 6791W        W23265   4.829  18.796  11.500  0.0918 -0.2613 -0.0755
 6792W        W23266   5.339   1.486  14.029 -0.0046  0.4058 -0.2300
 6793W        W23267   1.004   8.795  12.317 -0.0412 -0.2854 -0.1043
 6794W        W23268   3.662   3.240   4.490 -0.0051 -0.2412  0.0714
 6795W        W23269   6.839   2.498   3.240 -0.2371 -0.1645 -0.1875
 6796W        W23270   6.947   3.802   6.441  0.1127 -0.0803 -0.1579
 6797W        W23271   2.561   6.041   2.083  0.0360  0.2678  0.0988
 6798W        W23272  11.431   8.924   5.076  0.0629  0.1732  0.1227
 6799W        W23273   2.857   4.301   0.685 -0.3810  0.2403  0.3085
 6800W        W23274   8.222   9.263   3.600  0.0148  0.0051 -0.0013
 6801W        W23275  10.421  11.229   5.198 -0.0876  0.4067  0.1387
 6802W        W23276  13.673  14.020   0.564 -0.0267 -0.1217 -0.1909
 6803W        W23277   1.314   3.387   1.589 -0.0842 -0.0586 -0.1927
 6804W        W23278   7.460   7.742  13.654 -0.1721 -0.0524 -0.3345
 6805W        W23279  14.975   9.744  14.715 -0.3114 -0.0386 -0.0667
 6806W        W23280   1.966   6.526   4.325  0.2354 -0.0771  0.0851
 6807W        W23281  12.569  14.891  13.568  0.0822  0.0317 -0.1875
 6808W        W23282  11.970  17.892   0.054 -0.2351 -0.1963 -0.2403
 6809W        W23283   6.246   6.810   4.605  0.0691  0.3009  0.4286
 6810W        W23284   8.061   6.391  10.899 -0.2795 -0.3483  0.0914
 6811W        W23285   1.419  17.479   4.707 -0.0341 -0.1647 -0.0182
 6812W        W23286  11.534   9.171  11.964  0.0152 -0.0055 -0.1954
 6813W        W23287  18.671  10.483   4.501 -0.0968  0.0703 -0.3945
 6814W        W23288  12.591  17.719   1.914 -0.1424  0.1459 -0.2175
 6815W        W23289   1.859  15.455  13.789  0.0275  0.1164  0.0151
 6816W        W23290   9.268  18.843   2.558  0.1055  0.1585  0.0274
 6817W        W23291   6.358  16.101   4.514  0.1378 -0.0054 -0.0896
 6818W        W23292   7.872   8.069  14.151  0.1735  0.1415 -0.1037
 6819W        W23293   5.302  15.246   4.812  0.0911  0.0195 -0.1139
 6820W        W23294  18.052  18.558   0.035 -0.0087  0.2170 -0.0256
 6821W        W23295   0.877   4.816   0.565  0.0918 -0.0592 -0.1095
 6822W        W23296  18.310   8.492   1.322 -0.0240  0.4456 -0.3617
 6823W        W23297   6.782   2.631  15.163  0.1148 -0.2732 -0.1556
 6824W        W23298  13.324  11.314   4.624 -0.1064 -0.0725  0.0361
 6825W        W23299  15.079  16.869   0.828 -0.0245  0.0861 -0.4232
 6826W        W23300   3.921  10.724  14.904  0.1206 -0.5702  0.3470
 6827W        W23301   1.372   0.699   1.200 -0.1381  0.0249 -0.0399
 6828W        W23302   9.257   1.701  15.176 -0.3668 -0.1831  0.2586
 6829W        W23303   7.936  15.116   0.499 -0.0664 -0.2057 -0.0656
 6830W        W23304   6.199   7.978   0.316 -0.0786 -0.0676  0.0091
 6831W        W23305  18.818   1.649  12.829 -0.0640  0.1536 -0.1832
 6832W        W23306  18.123  17.421   1.973 -0.1469  0.0757 -0.4165
 6833W        W23307  14.536   2.714   3.032 -0.2245 -0.1337 -0.1995
 6834W        W23308   8.130  10.508   4.545  0.0622  0.2302  0.0151
 6835W        W23309   4.519   1.197   1.755 -0.1731 -0.1763  0.0191
 6836W        W23310   4.863  18.348  11.617  0.0760  0.0923 -0.1667
 6837W        W23311  15.614  16.120   2.063  0.1244 -0.1882 -0.1641
 6838W        W23312  17.055   4.369  14.355  0.2712 -0.0677  0.1744
 6839W        W23313  10.986  11.076   2.612 -0.0739 -0.3232  0.0213
 6840W        W23314   4.624  16.437   0.846  0.0800  0.1722 -0.1859
 6841W        W23315   3.555   1.264   0.784  0.1404 -0.0698 -0.0490
 6842W        W23316   5.151   8.531   1.102 -0.1857 -0.0189  0.3413
 6843W        W23317  16.316  16.164   2.951  0.0363 -0.3660  0.1938
 6844W        W23318   7.168   7.014   3.594 -0.2259 -0.0757  0.1472
 6845W        W23319   7.836  14.300   2.752 -0.0976 -0.4277 -0.1238
 6846W        W23320  13.337   8.914  14.340  0.5113 -0.2254 -0.1567
 6847W        W23321  13.714  16.169  12.481  0.1795  0.1660  0.1381
 6848W        W23322  12.829   4.319   2.402 -0.1085 -0.3710 -0.3918
 6849W        W23323   5.354  17.616   0.168 -0.1301  0.1018  0.0657
 6850W        W23324   7.749  18.227   2.582  0.3130 -0.0520  0.1552
 6851W        W23325  18.380  12.375  12.597  0.0826 -0.3960  0.2053
 6852W        W23326   8.286   4.274   3.753 -0.0364  0.1424 -0.3464
 6853W        W23327  11.190   6.797   6.049 -0.3040 -0.1400 -0.0906
 6854W        W23328   1.173  14.289  15.305 -0.0276  0.2165 -0.1763
 6855W        W23329  15.991  10.844  15.559  0.0446  0.1794 -0.1839
 6856W        W23330  12.863   6.005  13.178 -0.1891  0.4141 -0.1098
 6857W        W23331  11.889   6.797  15.627 -0.0197 -0.3606 -0.0937
 6858W        W23332   9.287   6.350  14.191  0.0390  0.0871 -0.4709
 6859W        W23333  16.454  13.197   1.989  0.1190 -0.1270 -0.1625
 6860W        W23334   3.821   1.570   1.727  0.1904 -0.1022  0.1605
 6861W        W23335  14.952   4.647   0.397 -0.1514  0.0024  0.2589
 6862W        W23336  18.168  11.411  10.581  0.2275 -0.0063  0.0602
 6863W        W23337   4.575  16.399  12.908 -0.3183 -0.1735 -0.0325
 6864W        W23338   6.389   1.394  14.986  0.2134 -0.0075  0.1953
 6865W        W23339   5.715   9.145  11.370 -0.0619 -0.1195  0.3748
 6866W        W23340  10.580   4.288  12.688  0.1993  0.2501 -0.0621
 6867W        W23341   4.287   6.174  14.335 -0.2466 -0.1562 -0.2131
 6868W        W23342   6.564   7.191  14.489  0.0195 -0.0579  0.2709
 6869W        W23343  10.491   4.347  14.100 -0.1074 -0.0110 -0.1466
 6870W        W23344  11.956  17.389   1.331 -0.0427  0.2267  0.3240
 6871W        W23345  12.354   1.319  11.541 -0.2348 -0.3464  0.2178
 6872W        W23346   4.728  16.854   0.095  0.0640 -0.1087 -0.2524
 6873W        W23347   9.031  15.004   0.289 -0.2253 -0.1964  0.1479
 6874W        W23348  14.312  11.324   4.270  0.0086  0.1906 -0.1222
 6875W        W23349  18.376   6.138  13.922  0.1412 -0.2472  0.2400
 6876W        W23350   9.296   2.814   2.999 -0.2166  0.0827 -0.0337
 6877W        W23351  17.702  18.191   0.006 -0.1851  0.0178 -0.2035
 6878W        W23352  11.724  16.615   3.082 -0.1086 -0.0723  0.1897
 6879W        W23353  17.904   3.778  14.439  0.0527  0.1848  0.1510
 6880W        W23354   3.843  15.300  11.762 -0.0701 -0.0968 -0.0858
 6881W        W23355   1.892   3.050   3.139 -0.1276  0.1956  0.0148
 6882W        W23356   5.966   1.524   0.786  0.1465 -0.1523  0.2339
 6883W        W23357  15.917  12.947  14.321 -0.0328  0.0199 -0.1126
 6884W        W23358   7.137   8.337   0.464  0.0204 -0.1523 -0.0756
 6885W        W23359   7.868   1.924   3.995 -0.1333 -0.0426 -0.0634
 6886W        W23360   4.884   1.213  12.756  0.1768 -0.1901 -0.1870
 6887W        W23361  16.350   0.604   3.855  0.1643  0.0850  0.1273
 6888W        W23362   5.493   4.204   2.274 -0.2758  0.0337 -0.1436
 6889W        W23363  17.805  14.276  10.927 -0.0085  0.0244 -0.1354
 6890W        W23364   4.161   4.839   2.224 -0.2406  0.1367 -0.3189
 6891W        W23365   3.625  14.515  15.541 -0.2545 -0.0004  0.1255
 6892W        W23366   7.722   7.727  14.489  0.2006 -0.3544  0.1867
 6893W        W23367  18.511   6.192   3.738  0.2030 -0.2566  0.2121
 6894W        W23368  11.753   1.026  15.013 -0.0107 -0.0977 -0.0113
 6895W        W23369   3.535  13.279   1.194 -0.0904 -0.1253 -0.2492
 6896W        W23370   6.902  12.924  13.200 -0.0012  0.0753 -0.1529
 6897W        W23371   4.743  17.548   4.875  0.3300  0.1238  0.3861
 6898W        W23372  14.708   4.735   1.869 -0.0999  0.2086 -0.0426
 6899W        W23373  12.425   2.131  12.060 -0.1423 -0.2230 -0.2829
 6900W        W23374  18.714   8.194  14.863  0.2599  0.0960 -0.0821
 6901W        W23375   6.566  15.414   4.333 -0.0310  0.1152 -0.0903
 6902W        W23376   1.015   0.006   5.577  0.0338 -0.1609  0.2635
 6903W        W23377  18.530   6.489   4.802 -0.0118  0.2495  0.2379
 6904W        W23378   4.823   7.820   4.997  0.1025  0.5436  0.1063
 6905W        W23379   2.001   5.250   4.620 -0.1471 -0.0541 -0.0799
 6906W        W23380  15.998  18.273   4.592 -0.1341  0.2774  0.2637
 6907W        W23381  15.526   3.158  12.215  0.0968  0.0746  0.0673
 6908W        W23382   0.145   8.940   0.403  0.1071  0.0169  0.4848
 6909W        W23383   1.664   8.693  13.999 -0.0688 -0.0544  0.1516
 6910W        W23384   3.712   1.217   2.086 -0.1399  0.3712  0.0014
 6911W        W23385   4.122  14.650  15.694  0.3629  0.0328  0.4134
 6912W        W23386  17.957   4.781  11.997 -0.0599 -0.0667  0.0819
 6913W        W23387  17.526   6.102   4.163  0.1956  0.0040 -0.2039
 6914W        W23388  17.169  14.604  11.117 -0.1169 -0.4042 -0.3472
 6915W        W23389   1.582   5.050   2.091  0.0687 -0.2622 -0.1137
 6916W        W23390   4.757  18.272   0.316 -0.4476  0.0352 -0.1728
 6917W        W23391   2.284   4.560  12.276  0.2122  0.0291  0.2433
 6918W        W23392  11.372   2.375  15.154  0.0942  0.1201  0.0388
 6919W        W23393  13.270  10.098   1.095 -0.0865 -0.0874 -0.2584
 6920W        W23394   6.664   1.035  13.853 -0.0776 -0.4006 -0.3277
 6921W        W23395  18.624  17.475  14.753 -0.0220 -0.2289  0.0809
 6922W        W23396  16.440  13.852   2.535 -0.1552 -0.0468  0.2655
 6923W        W23397  14.180  14.798  11.651 -0.1418  0.0792  0.1098
 6924W        W23398  18.224  15.212   3.944  0.1869 -0.0099 -0.2976
 6925W        W23399   6.799   6.869   1.043 -0.2400 -0.1541  0.1851
 6926W        W23400   3.218  18.008  12.752 -0.1754  0.1261 -0.3367
 6927W        W23401  18.283   7.141   1.786  0.0941  0.1011 -0.0191
 6928W        W23402   0.568  11.719   1.351  0.0603  0.1903 -0.1075
 6929W        W23403   9.295   4.755  12.259  0.2419  0.3369 -0.3296
 6930W        W23404  12.124   4.278   2.103  0.0155 -0.2345 -0.0107
 6931W        W23405   5.912   2.996   5.107  0.0269  0.0974  0.0913
 6932W        W23406  18.351   0.953  11.711  0.0863  0.0683  0.3361
 6933W        W23407   0.658   2.704  11.125  0.3739 -0.2046  0.0523
 6934W        W23408   9.627  16.258  14.096  0.0331  0.0260 -0.4129
 6935W        W23409  17.463  14.348   1.422 -0.1219 -0.1542 -0.2365
 6936W        W23410  13.087   9.578   2.239  0.0255  0.1231  0.1081
 6937W        W23411  12.269  12.605  14.106  0.0798 -0.1383 -0.0607
 6938W        W23412  15.184   3.294  14.225 -0.5270 -0.2776  0.0456
 6939W        W23413   5.011   2.742   0.934  0.3788 -0.0491 -0.3119
 6940W        W23414   5.791  17.465   2.458  0.0707 -0.0280  0.0565
 6941W        W23415  13.688   4.287   4.585  0.1239 -0.0979 -0.0138
 6942W        W23416   7.112   6.384   5.666  0.2743  0.0780 -0.1526
 6943W        W23417  13.589  17.683   2.078  0.3348 -0.2124 -0.0417
 6944W        W23418   6.864   9.409  11.251  0.0381 -0.2113  0.2739
 6945W        W23419  10.519   2.945  12.094  0.3395 -0.0827  0.1083
 6946W        W23420  18.317  18.651  14.219  0.1470 -0.4641  0.1670
 6947W        W23421  18.463   2.530   2.064 -0.1451 -0.2408  0.2320
 6948W        W23422  11.430   8.927  13.511 -0.1771 -0.0628  0.1245
 6949W        W23423   5.179  14.080   3.491 -0.1494  0.0549 -0.0130
 6950W        W23424   3.793   3.837  13.239  0.0354 -0.0028  0.1109
 6951W        W23425   6.117  13.628   4.692 -0.1082 -0.0001  0.0647
 6952W        W23426   1.692   7.601  10.819  0.0800 -0.1143 -0.1695
 6953W        W23427   2.095  14.801  14.942  0.0099 -0.0882 -0.2181
 6954W        W23428   4.614   3.776   1.862  0.0076 -0.2290  0.0831
 6955W        W23429   4.690  16.051   0.445 -0.1384 -0.2024  0.1222
 6956W        W23430   1.715  11.067   2.078 -0.1113  0.1546  0.3651
 6957W        W23431   4.272   1.518   2.685 -0.0037  0.4154 -0.0770
 6958W        W23432   5.539  15.928  15.677  0.1617  0.0725  0.0277
 6959W        W23433  13.460   1.026   2.365  0.0572 -0.2230 -0.1262
 6960W        W23434  17.232  15.727  15.653  0.2487  0.0072  0.3023
 6961W        W23435  12.709  18.186   5.239  0.4404 -0.0288  0.2182
 6962W        W23436  10.785   3.355  13.329  0.0457  0.0265  0.2713
 6963W        W23437   1.421   7.466   4.189  0.1147 -0.0999 -0.1010
 6964W        W23438  12.983  18.446  12.829 -0.0930  0.4759 -0.0336
 6965W        W23439  16.450   3.487   3.787  0.0910 -0.0239 -0.1071
 6966W        W23440  17.766   3.088   0.286  0.1525 -0.0343  0.0272
 6967W        W23441   0.724   3.013   1.622 -0.2200 -0.1791 -0.2352
 6968W        W23442  18.653   3.379   1.921 -0.2531 -0.0957  0.2082
 6969W        W23443   4.585  14.048   4.834  0.1119 -0.1874 -0.2146
 6970W        W23444  11.248  16.519  15.167 -0.2105 -0.0587  0.3447
 6971W        W23445   9.749  15.839  12.340 -0.0112  0.0584  0.2398
 6972W        W23446  12.580  14.180   1.738  0.1314  0.3236  0.1313
 6973W        W23447  16.332  16.810  11.052 -0.4990 -0.0340 -0.0897
 6974W        W23448  14.931   3.955  13.965 -0.0203 -0.0475  0.1972
 6975W        W23449   3.955  17.250   1.247 -0.1506 -0.0276 -0.1323
 6976W        W23450   6.257   0.082  13.786 -0.0422 -0.4291  0.4453
 6977W        W23451  16.855  18.640  11.388  0.2905 -0.1070  0.0521
 6978W        W23452   2.141  18.851   1.451 -0.0241  0.1807 -0.2544
 6979W        W23453  10.376   8.392  12.259 -0.3944 -0.2520 -0.0958
 6980W        W23454   1.312   1.263  12.190 -0.1273  0.1570  0.1673
 6981W        W23455   2.992   6.505   2.717 -0.3683 -0.4541  0.1986
 6982W        W23456  16.489   2.958   3.601  0.0595  0.1339  0.2212
 6983W        W23457  10.104  12.701  11.953 -0.3299 -0.1929 -0.1226
 6984W        W23458   0.913  10.920   2.663  0.0111  0.0202  0.0943
 6985W        W23459   8.377  10.447  12.922  0.2017 -0.2511  0.1613
 6986W        W23460   2.820   7.939  10.962 -0.0775 -0.2969  0.1180
 6987W        W23461  11.146   4.410   3.961  0.0917  0.5031  0.0508
 6988W        W23462  10.083  11.409   1.839  0.2518 -0.1659 -0.2500
 6989W        W23463  10.766   3.972   3.697  0.3393  0.1659 -0.0772
 6990W        W23464   1.502   9.411  13.468 -0.1884 -0.1035  0.1400
 6991W        W23465  18.138   0.870   1.132  0.2396 -0.2600  0.0842
 6992W        W23466   6.708  15.560  12.546  0.0271 -0.3129  0.1965
 6993W        W23467   2.255   6.958   5.495 -0.0490 -0.0367  0.1437
 6994W        W23468  17.593   9.257   3.633 -0.1964  0.0325  0.0828
 6995W        W23469   7.477   0.578   3.940 -0.0580 -0.0388  0.0973
 6996W        W23470   1.399  18.487  11.829 -0.1023 -0.1158 -0.0117
 6997W        W23471  17.219   5.013  12.158  0.1361  0.2615 -0.3799
 6998W        W23472  17.724   3.371  12.724 -0.0408 -0.0174 -0.0176
 6999W        W23473  15.782  12.579  15.531  0.1481 -0.0751  0.0771
 7000W        W23474  16.204  15.876   4.964  0.3509 -0.0067  0.4562
 7001W        W23475   5.850   7.678  11.878 -0.1470  0.2098  0.1085
 7002W        W23476  16.780  10.756  13.999  0.3611 -0.2162  0.3310
 7003W        W23477  18.403  10.242   3.096  0.0379 -0.1007 -0.0418
 7004W        W23478  18.154   8.879  12.989  0.2647  0.1929  0.2148
 7005W        W23479  15.607   1.448  14.594  0.3536 -0.0740  0.0941
 7006W        W23480  10.052   1.082  13.032 -0.4138  0.1291  0.0718
 7007W        W23481  12.602   4.949   0.514  0.0333 -0.0582 -0.0842
 7008W        W23482   5.795   4.516   3.001 -0.3210 -0.3728  0.0202
 7009W        W23483  15.196   1.846  13.568  0.2526 -0.3297  0.1598
 7010W        W23484   9.136   8.246   1.963  0.1303 -0.0124 -0.1627
 7011W        W23485  18.385   4.508  11.067  0.0760 -0.1428 -0.1433
 7012W        W23486   1.454  11.204   0.559 -0.0514  0.1126  0.0921
 7013W        W23487   6.926  12.071  11.545 -0.0921 -0.5522  0.0408
 7014W        W23488   6.076   2.141   5.082  0.2282  0.2372 -0.0656
 7015W        W23489   5.364   8.882  13.685 -0.1698  0.2109  0.0189
 7016W        W23490   8.040  15.293  10.730  0.1955 -0.0547  0.1509
 7017W        W23491  13.032   2.889   0.490  0.0993 -0.2469  0.3020
 7018W        W23492  18.722  10.469  12.271  0.0628  0.1570 -0.1445
 7019W        W23493   9.485   7.179  11.100 -0.4578  0.1266  0.0962
 7020W        W23494  15.131  16.837   0.310  0.1346 -0.3414 -0.1544
 7021W        W23495  13.285  15.282  15.160 -0.1553  0.1150  0.0763
 7022W        W23496   1.442   6.969   1.420 -0.4063 -0.1246  0.0760
 7023W        W23497   1.505  13.987   4.127  0.1611  0.1487  0.0927
 7024W        W23498   1.644  11.238   2.828 -0.3273 -0.2445  0.2111
 7025W        W23499  15.358   9.361  12.975 -0.2070 -0.1509  0.0817
 7026W        W23500  12.341  14.994  15.055  0.1454 -0.3684  0.0413
 7027W        W23501   8.464  13.804  13.363  0.3157  0.0188  0.1846
 7028W        W23502   6.669  16.267   0.112  0.0863  0.2668 -0.0770
 7029W        W23503   8.793   7.739  11.949 -0.0993 -0.3824 -0.1491
 7030W        W23504  14.615   6.065  11.875 -0.1027  0.3281  0.3617
 7031W        W23505   2.773   8.295   0.628  0.3046  0.2946  0.2117
 7032W        W23506   4.175  10.937   2.119 -0.0931  0.1911  0.2948
 7033W        W23507   9.387   2.734   1.896  0.1881 -0.2604  0.2091
 7034W        W23508  13.749   8.508   3.563  0.1032  0.2177 -0.1025
 7035W        W23509  12.606   5.052  12.749  0.0448  0.0406 -0.2076
 7036W        W23510   1.626  15.727  13.361  0.4416  0.1777 -0.1131
 7037W        W23511   3.689   0.815   2.827  0.0817 -0.2089 -0.0506
 7038W        W23512  16.900   6.653  11.858 -0.0564 -0.0914  0.1274
 7039W        W23513   2.364   6.398  15.165 -0.1035 -0.0232 -0.1657
 7040W        W23514  14.449  13.797   2.437 -0.2589 -0.2420  0.3394
 7041W        W23515   9.226   0.465  12.345  0.3188  0.3484 -0.0587
 7042W        W23516  11.218  10.046   0.362  0.1256 -0.1609 -0.0392
 7043W        W23517  12.085   2.329   0.973 -0.0172  0.0035  0.2479
 7044W        W23518   6.809   3.804   2.282 -0.0169  0.0850 -0.2500
 7045W        W23519  14.564   5.603   1.774  0.3256 -0.1879  0.2020
 7046W        W23520   0.734   0.724   2.172 -0.0321  0.4248  0.3288
 7047W        W23521  15.941   5.892  14.986  0.2860  0.4265  0.0609
 7048W        W23522  17.949  16.223  12.409 -0.1966 -0.2273  0.0922
 7049W        W23523   4.416  17.157   5.032 -0.0279 -0.0477 -0.1287
 7050W        W23524   2.547  13.962  10.620  0.0110  0.1268  0.1156
 7051W        W23525  11.961   1.821   1.340 -0.0869 -0.0842 -0.2545
 7052W        W23526  15.705   7.262  13.341 -0.3726  0.0623 -0.1331
 7053W        W23527  12.195   8.637  14.478  0.2085  0.0496  0.3047
 7054W        W23528  15.671   0.640   1.151  0.2573 -0.0611  0.2998
 7055W        W23529   5.957  12.214   4.386 -0.1651  0.0552 -0.4459
 7056W        W23530   8.191  18.115  14.036 -0.4424  0.0245 -0.2218
 7057W        W23531  14.117  10.302  12.991 -0.0968  0.0416  0.2697
 7058W        W23532  18.390   5.737   3.399 -0.1048 -0.3700 -0.1205
 7059W        W23533  14.441   4.511  10.512  0.0226  0.0151  0.1062
 7060W        W23534  12.466   3.568   0.591  0.1026 -0.0836 -0.0005
 7061W        W23535   0.627  14.809  11.617 -0.1562 -0.0968 -0.1858
 7062W        W23536   5.876  10.322  11.884  0.1101  0.1061  0.0176
 7063W        W23537   1.397  17.620   4.191  0.0097  0.2191  0.1034
 7064W        W23538  13.000   1.446  11.535 -0.3327 -0.0807 -0.2986
 7065W        W23539  14.197  17.888  10.999 -0.0950 -0.1645  0.0818
 7066W        W23540   0.921   6.242  13.929  0.0149 -0.1963  0.2689
 7067W        W23541  11.959   6.343  12.077 -0.0069 -0.0161  0.0966
 7068W        W23542   0.804  16.846   1.392  0.0045  0.0027  0.1010
 7069W        W23543  11.656  17.016   1.228  0.1001 -0.0554  0.2564
 7070W        W23544   5.186  11.946  13.478  0.3072 -0.3244  0.2744
 7071W        W23545   1.174   0.923   3.941  0.4984 -0.0973 -0.1566
 7072W        W23546  16.507   2.091   0.155  0.0127  0.3562 -0.2209
 7073W        W23547  13.036   4.273   0.546 -0.0299 -0.2127  0.1492
 7074W        W23548  11.909   8.497  14.855 -0.0556 -0.0851  0.0903
 7075W        W23549   9.552  16.845  14.616 -0.1708  0.1315  0.2227
 7076W        W23550   3.488  17.865   1.173  0.1811 -0.0352 -0.2102
 7077W        W23551  13.774  13.753   2.210  0.0688 -0.0025 -0.2555
 7078W        W23552   3.342  11.273  10.634 -0.2958 -0.2940  0.1165
 7079W        W23553   1.890  14.519   2.672  0.2822  0.2446  0.0296
 7080W        W23554   1.181  13.371  15.503  0.0804  0.2098  0.0057
 7081W        W23555  17.612  11.447   1.332 -0.3120  0.1355 -0.3075
 7082W        W23556   1.851  10.639  13.206  0.0040  0.2216 -0.0505
 7083W        W23557   7.690  15.132   3.175 -0.1006  0.1723  0.1151
 7084W        W23558  13.718   6.596  13.742 -0.2933 -0.0764  0.0336
 7085W        W23559   8.892  10.706   1.590  0.0038  0.4247  0.0814
 7086W        W23560   9.271   3.890   0.928  0.0311  0.1966  0.1280
 7087W        W23561   4.866  15.065  13.208 -0.3960  0.2663  0.0039
 7088W        W23562   1.574   1.030   2.599 -0.2363  0.2609  0.2030
 7089W        W23563  14.442   8.508   2.282  0.2476 -0.0138 -0.0352
 7090W        W23564   3.798  10.902  13.345 -0.1293  0.2377 -0.4027
 7091W        W23565  13.689   4.195  15.630 -0.0187  0.1813 -0.2332
 7092W        W23566   2.197   3.711   5.550  0.0201  0.0523  0.1557
 7093W        W23567   8.516  11.083  11.550 -0.3947 -0.4441  0.0868
 7094W        W23568  13.680   2.507  11.639 -0.0343 -0.1731  0.1611
 7095W        W23569   1.221   9.721  15.275  0.0340 -0.1544  0.0266
 7096W        W23570   5.345  11.899   4.744 -0.3180  0.0481  0.0702
 7097W        W23571   1.085   5.040  12.267 -0.3304 -0.0181 -0.0948
 7098W        W23572  14.921  15.748  12.434  0.0061  0.0599  0.4705
 7099W        W23573  18.442   0.497  13.720  0.0217 -0.1344 -0.0803
 7100W        W23574   1.223   2.425   0.048 -0.0743  0.0662  0.3410
 7101W        W23575   1.186   6.045  14.462 -0.0058 -0.3655 -0.1293
 7102W        W23576   8.129   1.320   3.497 -0.0678 -0.2539 -0.2223
 7103W        W23577   2.051  15.411  11.216 -0.0743 -0.3466  0.1670
 7104W        W23578   1.534  13.766   0.299  0.1625  0.2616  0.0987
 7105W        W23579  10.872   2.741   4.593 -0.1373  0.1883 -0.1319
 7106W        W23580  11.120  16.524  11.339  0.1234 -0.0277  0.1013
 7107W        W23581  16.414   2.936  14.773  0.0419 -0.2073  0.1171
 7108W        W23582  18.642   4.977   0.513 -0.3031 -0.0051 -0.2916
 7109W        W23583   0.153   5.810  12.915 -0.1117 -0.0336 -0.0892
 7110W        W23584   1.269   4.437  14.930 -0.3617 -0.0208  0.1570
 7111W        W23585  16.081   7.592  11.638  0.5365  0.1519 -0.2271
 7112W        W23586   2.871  15.760   2.530 -0.2924 -0.0810  0.0573
 7113W        W23587   0.240   4.823   0.609  0.1524  0.0629  0.2101
 7114W        W23588  11.112  11.157  15.256  0.1064 -0.0240  0.1227
 7115W        W23589  18.722  11.160   2.973 -0.1533  0.0055 -0.3650
 7116W        W23590  16.975  16.221  15.615  0.2370  0.2583 -0.0863
 7117W        W23591  13.606  10.916   4.480  0.7104  0.2649  0.1987
 7118W        W23592  17.709  16.597  12.661  0.1189  0.0239  0.3848
 7119W        W23593   7.268   5.497   5.893 -0.0253  0.1519  0.5965
 7120W        W23594   6.418  15.437   0.375 -0.4492 -0.1265 -0.0639
 7121W        W23595   1.842   3.099  12.683  0.0089  0.0305  0.1571
 7122W        W23596   2.760   4.151   2.428  0.2280  0.0250 -0.1462
 7123W        W23597   1.542   7.773   2.385 -0.1790  0.0270  0.1418
 7124W        W23598   1.443   5.738   0.219  0.0341 -0.0664 -0.1504
 7125W        W23599  16.795   4.299   0.772  0.0368 -0.1180  0.0403
 7126W        W23600   9.705  16.823  15.365 -0.1101  0.0849  0.0894
 7127W        W23601   1.738  17.006  14.613  0.2100 -0.1756 -0.0920
 7128W        W23602  11.076  18.534   5.343 -0.1354  0.0638 -0.0358
 7129W        W23603   9.151  18.281   1.158  0.2640  0.2975  0.1356
 7130W        W23604   0.088  11.361   2.568  0.0994 -0.0647 -0.1365
 7131W        W23605   7.924   7.438   1.205  0.0650  0.2767  0.1261
 7132W        W23606  16.268  14.508  11.206 -0.0576 -0.0139  0.4492
 7133W        W23607   1.352  16.832   5.480 -0.0013  0.0659 -0.2166
 7134W        W23608  14.001  11.407  10.674  0.3838 -0.1833  0.0716
 7135W        W23609   7.548  13.546  11.575  0.2586  0.0796  0.0575
 7136W        W23610   8.684  14.368   5.149 -0.1147  0.0171  0.0794
 7137W        W23611  17.531  13.560  12.056 -0.2184  0.0087 -0.2357
 7138W        W23612   7.132  12.850  15.496 -0.1942 -0.0505 -0.1457
 7139W        W23613  17.637   7.077  11.285 -0.0376  0.0987  0.1094
 7140W        W23614  10.027  16.435  15.046 -0.0707  0.4514  0.3626
 7141W        W23615  17.854  14.844  12.439 -0.0868  0.2030  0.0163
 7142W        W23616   4.843   2.642   5.079 -0.1088  0.1579  0.2010
 7143W        W23617  15.640  18.158  14.755 -0.3132 -0.0926 -0.3991
 7144W        W23618   1.562  12.273  12.430  0.1725 -0.0490  0.0572
 7145W        W23619   4.706   7.303  15.020 -0.2146 -0.1051 -0.1138
 7146W        W23620   7.693  12.771   3.159 -0.0468 -0.1066  0.1908
 7147W        W23621   7.598   4.182  12.358  0.1819 -0.0940  0.1065
 7148W        W23622   9.136  17.212   4.392  0.1422  0.2918  0.1314
 7149W        W23623   5.770  11.416   2.733  0.3342  0.2657 -0.2928
 7150W        W23624  13.449   8.882   5.360 -0.0883 -0.4262  0.2027
 7151W        W23625   5.287  15.155   1.380 -0.0334 -0.0112 -0.1883
 7152W        W23626   2.225   5.390  15.210 -0.1655  0.3325  0.2539
 7153W        W23627  16.894   3.342   3.680 -0.0716 -0.0436  0.1197
 7154W        W23628   3.277   4.566  11.902 -0.1273  0.2485 -0.0195
 7155W        W23629  10.703  12.149  11.411 -0.2680  0.4172 -0.1159
 7156W        W23630   2.081   7.918  13.630  0.0131 -0.1628 -0.0366
 7157W        W23631  11.734  18.522   0.401 -0.1081 -0.1367  0.1417
 7158W        W23632   5.833   6.303   2.817  0.2502  0.1463  0.2200
 7159W        W23633   7.452  13.634   4.669  0.0497  0.0606  0.2249
 7160W        W23634  14.845  17.589  14.467 -0.2713 -0.0227  0.4027
 7161W        W23635   0.879   4.575   2.819  0.1800 -0.1516 -0.0170
 7162W        W23636   1.121  15.679  13.350 -0.2588 -0.1758 -0.1902
 7163W        W23637   4.473   3.208  11.802 -0.2514  0.0326 -0.2744
 7164W        W23638  17.468  13.323  13.118  0.2246  0.2786  0.0524
 7165W        W23639  17.959  14.396   1.371  0.1371 -0.4054  0.1498
 7166W        W23640   7.369   1.929   1.092 -0.0589  0.1104  0.1333
 7167W        W23641   3.337   4.301   4.672  0.2325  0.1779  0.1530
 7168W        W23642  17.411  10.276  12.749  0.3893 -0.3445 -0.0521
 7169W        W23643   4.222   0.437  15.159 -0.1377 -0.2406 -0.0645
 7170W        W23644   2.431  12.888  14.746 -0.1447  0.1037 -0.1693
 7171W        W23645  10.532  11.102   2.720  0.0241  0.0030 -0.0220
 7172W        W23646   2.977   9.797   0.840  0.1108  0.0635 -0.0421
 7173W        W23647  10.213   3.012   4.039  0.1519 -0.1143  0.0267
 7174W        W23648   8.720   8.310  14.058 -0.1236  0.1952  0.1035
 7175W        W23649   5.817   2.770  15.269  0.2848  0.0408 -0.2131
 7176W        W23650  16.135  12.572  12.036  0.1414  0.0134  0.1699
 7177W        W23651  11.091   5.045   1.329 -0.0852 -0.1942 -0.2356
 7178W        W23652  15.135   9.214   2.057  0.2640 -0.1044 -0.1010
 7179W        W23653  17.010  18.766  13.715  0.4245 -0.0440  0.0918
 7180W        W23654   8.171   3.775   3.803 -0.1088 -0.2207  0.4116
 7181W        W23655  17.281  16.560  13.466 -0.0453  0.2962  0.0610
 7182W        W23656   8.359  14.517   3.651 -0.3245 -0.1573 -0.0655
 7183W        W23657   0.585  10.914   2.308  0.2735 -0.2961 -0.1023
 7184W        W23658   3.706   5.885  14.818 -0.2002 -0.2857  0.1261
 7185W        W23659  15.104   6.143   2.810 -0.0114  0.0231 -0.0534
 7186W        W23660  10.324  17.363  13.717  0.1399 -0.1113  0.1681
 7187W        W23661   9.597   2.046   5.444 -0.0265  0.1574  0.3090
 7188W        W23662   9.123   5.513   2.561  0.0218 -0.2268  0.0859
 7189W        W23663  11.487   4.599   5.323 -0.0933  0.3537  0.2047
 7190W        W23664   0.365   2.646  12.909 -0.0478  0.0981  0.1843
 7191W        W23665  11.761   8.613   1.141  0.2327 -0.0520 -0.2616
 7192W        W23666  13.627   0.101   1.276 -0.1694  0.0006  0.0905
 7193W        W23667   4.499   7.419  14.572  0.2263 -0.3310  0.2476
 7194W        W23668   7.333   4.535   3.029 -0.0973 -0.0029 -0.0299
 7195W        W23669  11.055  13.220  13.041  0.0957  0.1034 -0.0274
 7196W        W23670  11.740  17.542   2.593  0.2935 -0.1537 -0.1128
 7197W        W23671  13.411   3.635  11.159  0.0516 -0.0707 -0.0965
 7198W        W23672   3.237  12.412  13.740  0.1680 -0.4058  0.0301
 7199W        W23673  14.927  17.238  15.232 -0.2483  0.1637 -0.0811
 7200W        W23674  17.155  15.667  13.881  0.4175 -0.2422 -0.0715
 7201W        W23675   3.636   3.048  14.983 -0.0746  0.0773  0.0813
 7202W        W23676  15.131  10.624  15.684  0.0453  0.0392  0.2622
 7203W        W23677  17.556  16.610  14.254 -0.0437  0.3036 -0.0351
 7204W        W23678   0.339   5.489  11.595 -0.3660 -0.0303 -0.0915
 7205W        W23679   3.534   2.541   2.631 -0.2061 -0.1595 -0.3425
 7206W        W23680   5.421   1.951  12.759 -0.0640 -0.2039 -0.0678
 7207W        W23681   1.308  14.690  12.404 -0.1568  0.2890  0.3382
 7208W        W23682  18.206   7.776  10.814  0.3325 -0.2800 -0.0999
 7209W        W23683  18.766  17.722  13.407 -0.1192  0.1246  0.1301
 7210W        W23684   6.095  10.741  14.613  0.0539 -0.2915 -0.0548
 7211W        W23685   3.452  10.385  10.617 -0.2268 -0.1294 -0.2020
 7212W        W23686   2.668  16.302   3.924  0.1187  0.0693 -0.1047
 7213W        W23687   1.490  13.204   0.178  0.1862 -0.2548  0.0914
 7214W        W23688  14.099  13.384  12.288  0.1670  0.3818  0.0567
 7215W        W23689  18.821  12.046  13.244  0.2313  0.0476 -0.0884
 7216W        W23690   7.841  10.710  12.392 -0.2033 -0.1891 -0.2241
 7217W        W23691   6.019  11.607   3.155 -0.1320  0.0208  0.1718
 7218W        W23692  13.330   2.932  11.788 -0.0377 -0.1928  0.0286
 7219W        W23693  13.277   5.307  15.445 -0.0337 -0.0649  0.2193
 7220W        W23694  15.589  13.630  14.954 -0.2559  0.1987 -0.1974
 7221W        W23695  18.653   7.154   4.051  0.0036  0.0239  0.1787
 7222W        W23696  10.057   3.233   4.758  0.1002 -0.0431  0.1369
 7223W        W23697  13.497  17.914  10.935 -0.1627 -0.1158  0.4500
 7224W        W23698   0.017  18.550   4.880  0.1592 -0.2272  0.2506
 7225W        W23699  15.343  15.632   9.934 -0.0099  0.1411  0.0463
 7226W        W23700   0.295  14.649   0.561 -0.1030  0.0718  0.3486
 7227W        W23701  11.671  14.496  14.859 -0.0570 -0.0263 -0.0293
 7228W        W23702   1.845   1.219  11.983  0.1165 -0.0235 -0.1411
 7229W        W23703  15.368  16.384   2.434 -0.0493  0.1881 -0.1156
 7230W        W23704   3.712   9.498  15.550  0.0102  0.4346  0.0822
 7231W        W23705  15.560   0.723  13.898  0.4456  0.1332 -0.0841
 7232W        W23706  10.157   8.301  15.359  0.1600  0.2707 -0.2838
 7233W        W23707  18.692  11.921   4.024  0.1042 -0.0420  0.0048
 7234W        W23708   1.266  10.337  14.896  0.4649 -0.0235 -0.0260
 7235W        W23709  11.102  18.107   1.674 -0.0463 -0.1061 -0.1645
 7236W        W23710  13.602  16.685  13.509  0.0423  0.0437  0.0745
 7237W        W23711   9.953   4.791   1.168  0.1868  0.0549  0.2277
 7238W        W23712   1.994  11.264   5.816  0.2056 -0.0495 -0.2282
 7239W        W23713  16.081  12.474   1.333 -0.1930 -0.0830  0.2249
 7240W        W23714  10.282   9.544  14.616 -0.3044 -0.0846 -0.2142
 7241W        W23715   1.343   1.497   1.648  0.0068  0.0715 -0.0226
 7242W        W23716   2.224   2.803  12.972  0.0484  0.2843 -0.0284
 7243W        W23717   0.344  15.788   4.935 -0.1891  0.0029  0.1014
 7244W        W23718   4.099  17.830  15.545 -0.0787  0.3917 -0.0786
 7245W        W23719   7.594  12.711   1.720 -0.0029 -0.0041 -0.1789
 7246W        W23720   3.029   8.997   1.390 -0.3769 -0.0341 -0.1705
 7247W        W23721  16.691   7.570   0.172  0.2748 -0.2253 -0.5006
 7248W        W23722  16.500  18.456   2.538  0.1687  0.0938  0.0332
 7249W        W23723  12.901  14.367   2.299 -0.1156  0.2752 -0.0225
 7250W        W23724   3.426  14.207  11.773 -0.0843 -0.1216 -0.1549
 7251W        W23725   5.896   6.946   2.473  0.1962  0.2971  0.1365
 7252W        W23726   8.805  10.567   2.191  0.2165 -0.1477  0.1248
 7253W        W23727   7.163   2.795   2.364  0.1516  0.1588 -0.2336
 7254W        W23728   5.876  15.144  13.037  0.1349 -0.0639 -0.0546
 7255W        W23729   5.883  13.070   2.025  0.0365  0.1799 -0.1183
 7256W        W23730   2.257  15.409   3.925 -0.0845 -0.0010  0.1727
 7257W        W23731   8.615   9.200  14.603  0.0802  0.0006 -0.3085
 7258W        W23732  10.351   1.019  14.764  0.4192  0.1034  0.2468
 7259W        W23733   7.950  18.591  14.727  0.0828  0.0078  0.1768
 7260W        W23734  13.621  17.073   4.691  0.0979  0.0168 -0.1276
 7261W        W23735  14.545   0.225  12.548  0.4025  0.0716  0.2575
 7262W        W23736   7.751   2.800   3.004 -0.0378  0.2873  0.0932
 7263W        W23737   4.541  14.948  11.386 -0.1588 -0.3877 -0.0686
 7264W        W23738   2.448  15.450   5.309  0.3469 -0.2959  0.2065
 7265W        W23739   0.130   2.472  15.406  0.0083 -0.0484  0.0236
 7266W        W23740  15.901   6.739   4.189 -0.2237 -0.3178  0.0427
 7267W        W23741  14.372   2.333  13.248  0.3846 -0.1835  0.1858
 7268W        W23742   4.364  15.824   1.573 -0.3624  0.2439 -0.3026
 7269W        W23743  13.072   8.975  13.067 -0.2462  0.4084 -0.0743
 7270W        W23744   5.337  10.235  12.887 -0.1818  0.2437  0.3048
 7271W        W23745   5.785   6.813   4.266  0.0467 -0.0333  0.0123
 7272W        W23746   3.028  13.235   0.883  0.2387 -0.1156 -0.0483
 7273W        W23747   7.884   8.815   5.075 -0.0688 -0.1024 -0.1193
 7274W        W23748  10.130  18.056   3.257  0.0431 -0.0538  0.2132
 7275W        W23749   8.225  13.594  10.539 -0.1632  0.1411 -0.0893
 7276W        W23750   5.115   4.853   0.853 -0.1606  0.1919  0.4264
 7277W        W23751  11.617   6.078  14.511  0.3163 -0.2324  0.3512
 7278W        W23752   9.153  12.802  15.218  0.1086 -0.3297  0.0873
 7279W        W23753  14.822  10.103  15.590 -0.2573  0.1090 -0.0880
 7280W        W23754  17.390   9.365   0.716 -0.0212 -0.1504  0.1636
 7281W        W23755   8.322  11.016  14.827 -0.0528 -0.0309  0.2012
 7282W        W23756   3.753   6.889  14.886 -0.5533 -0.0462 -0.1989
 7283W        W23757  11.369   9.385  14.673  0.3369  0.0907 -0.0851
 7284W        W23758  15.314  15.933   3.727  0.0290 -0.1767  0.0822
 7285W        W23759   2.863  14.612   3.083 -0.1424  0.2264 -0.1207
 7286W        W23760  17.513  16.358   5.084 -0.1864 -0.0678 -0.0608
 7287W        W23761   6.022   9.565  14.758 -0.0042 -0.0102  0.0617
 7288W        W23762  12.375   9.162  13.802  0.0558 -0.2140 -0.1817
 7289W        W23763   5.372  18.113   2.120 -0.1556  0.1790 -0.1295
 7290W        W23764   4.342   1.027  13.376 -0.0869  0.1651  0.1435
 7291W        W23765   2.745   1.144  11.998 -0.0873  0.0945 -0.0941
 7292W        W23766   1.390  14.915   4.960  0.0392 -0.0333  0.0775
 7293W        W23767   9.377   5.484   0.120  0.0511 -0.1569  0.1820
 7294W        W23768  11.252   7.617   5.483 -0.0900  0.0054  0.2187
 7295W        W23769  15.616  18.734  12.053  0.0889  0.1030 -0.0714
 7296W        W23770   5.825  13.504  14.165  0.0157  0.0811  0.4318
 7297W        W23771  15.768   6.838  14.439  0.1056  0.2394 -0.3555
 7298W        W23772  10.981  11.297   0.918 -0.0827  0.1439 -0.1850
 7299W        W23773   2.530  16.028   1.214 -0.0808 -0.3405 -0.3164
 7300W        W23774  14.611  18.096   4.740  0.3522  0.0264 -0.0700
 7301W        W23775   4.391  10.247   1.076 -0.1666 -0.1677 -0.0000
 7302W        W23776   9.802  10.487   5.314 -0.3749 -0.1830  0.0440
 7303W        W23777  17.763  12.910  15.336 -0.3077 -0.2722 -0.1278
 7304W        W23778  11.595  13.879   3.789  0.3313  0.2756  0.1471
 7305W        W23779  17.794   2.720  14.713  0.1272  0.3586 -0.0388
 7306W        W23780  13.593  16.263   3.993  0.1168  0.0294 -0.0090
 7307W        W23781  10.413   2.255   2.698 -0.2423 -0.0462  0.2334
 7308W        W23782  17.133   2.305   2.504  0.0629  0.1086 -0.0895
 7309W        W23783   9.662   8.279   0.609  0.3615 -0.0143  0.0397
 7310W        W23784  11.762   1.137   1.689  0.3125 -0.0211 -0.0333
 7311W        W23785   1.206  17.423  13.676  0.2356  0.0160  0.2647
 7312W        W23786  18.300  12.568  11.516  0.0408 -0.0515 -0.0852
 7313W        W23787   5.291   7.654   5.195  0.0318  0.1960  0.2833
 7314W        W23788  12.719   8.426  11.591 -0.3594  0.3370 -0.4065
 7315W        W23789   5.605  15.071  14.875  0.2997 -0.0517 -0.1962
 7316W        W23790  10.362  15.832  13.372 -0.0891 -0.0029  0.0523
 7317W        W23791   1.962   6.952   1.682 -0.1676 -0.1569  0.3342
 7318W        W23792   8.054   0.324   5.154 -0.0168 -0.2045  0.4817
 7319W        W23793   0.267   8.936  12.241  0.1493  0.1944  0.0235
 7320W        W23794  18.611   2.787   0.192 -0.1267  0.2051  0.0493
 7321W        W23795   1.585  18.691   5.632  0.0589 -0.1203  0.0667
 7322W        W23796   8.209   7.958   0.139 -0.2466 -0.2629  0.0522
 7323W        W23797   6.147  15.942   1.805 -0.0571  0.0217  0.1693
 7324W        W23798   5.940   9.593  11.600 -0.2411  0.0485 -0.0057
 7325W        W23799  11.887  13.092  11.562  0.1048  0.2303  0.0757
 7326W        W23800  16.042  17.532  11.287  0.0511  0.1354  0.0216
 7327W        W23801   2.688  12.929   5.257 -0.0257  0.1306  0.1335
 7328W        W23802  14.948   1.008  12.560  0.1955 -0.5226 -0.1413
 7329W        W23803   1.938   8.574  15.248 -0.0371 -0.4286  0.2423
 7330W        W23804  16.048   5.679   2.737  0.1981 -0.0674 -0.3632
 7331W        W23805   9.324   5.478   5.391 -0.0298  0.0148  0.1730
 7332W        W23806   6.722  18.005  15.522  0.3314 -0.2927  0.2789
 7333W        W23807   5.276   4.513   2.877 -0.1970 -0.2094 -0.0883
 7334W        W23808  11.493  17.988   4.177  0.1961 -0.2303  0.1906
 7335W        W23809  11.391   5.539   0.846  0.2041  0.0715  0.0995
 7336W        W23810   6.444   2.289  11.309  0.2421  0.2849  0.0190
 7337W        W23811  10.417  10.263   3.655 -0.0928  0.0105  0.0807
 7338W        W23812   9.513   7.812  13.172 -0.0777  0.0911  0.0127
 7339W        W23813  14.084   8.957  12.298 -0.0241 -0.1069 -0.0899
 7340W        W23814   5.079  15.795  15.394 -0.0850 -0.1659 -0.1470
 7341W        W23815  13.753   5.750  11.626 -0.2590  0.0136 -0.1029
 7342W        W23816   8.874  13.167   2.025 -0.2483 -0.1533  0.2310
 7343W        W23817  16.294   5.539   2.000  0.2667 -0.0036  0.0096
 7344W        W23818   3.811   7.700   1.406 -0.3383 -0.1181  0.0620
 7345W        W23819  17.164  10.526  14.686 -0.1202 -0.1361  0.2692
 7346W        W23820   3.244   6.867   3.518  0.1757  0.2007  0.2379
 7347W        W23821  12.891  15.594  14.718 -0.2276  0.0766 -0.0971
 7348W        W23822   7.490   3.158   3.896 -0.0631  0.0131  0.1160
 7349W        W23823   9.689  15.038   3.051  0.0111  0.1298  0.0074
 7350W        W23824  17.134  11.618  14.935 -0.5380 -0.3922 -0.0779
 7351W        W23825   6.968   9.046   2.558 -0.1536 -0.1283  0.1067
 7352W        W23826  16.031   7.600  10.433  0.0114  0.3065 -0.1701
 7353W        W23827   2.459   2.760  12.417 -0.2088  0.3745 -0.0031
 7354W        W23828   1.134   2.891  12.229  0.3081  0.1881 -0.0978
 7355W        W23829  11.304   4.118  15.342 -0.1702 -0.0555 -0.3242
 7356W        W23830  16.230   0.306   0.588 -0.1099 -0.1218 -0.2871
 7357W        W23831   2.390  15.341  12.758  0.0009 -0.2367  0.2015
 7358W        W23832  16.156   7.620  12.458  0.0841  0.0407 -0.2262
 7359W        W23833   7.765   1.358   2.522  0.1953  0.1513 -0.2104
 7360W        W23834  10.426   5.540   1.059 -0.0588  0.3854 -0.0125
 7361W        W23835  18.152   9.247  15.514 -0.1432  0.2330 -0.1904
 7362W        W23836   6.764   2.408  11.618  0.1253 -0.1135  0.1462
 7363W        W23837   1.852  14.171   3.047 -0.1633 -0.1879 -0.0882
 7364W        W23838   6.744  14.858   5.422  0.0687  0.1421  0.1230
 7365W        W23839  16.926   4.264   4.008  0.0607 -0.0608  0.3215
 7366W        W23840   8.647  13.656  10.873  0.1035  0.1827  0.1812
 7367W        W23841   5.697  13.433   0.873  0.2566  0.0612  0.0714
 7368W        W23842   8.359  12.778  12.563 -0.1151 -0.1187  0.0131
 7369W        W23843   5.068   9.316   0.071 -0.1484  0.1990 -0.0431
 7370W        W23844   4.396  16.136   5.493  0.3348 -0.1293  0.0726
 7371W        W23845  10.906  11.140   3.699 -0.2115 -0.1436 -0.0389
 7372W        W23846   3.002  18.421  14.185 -0.0394  0.0806  0.2191
 7373W        W23847  11.381  11.321   1.406 -0.1031 -0.2977 -0.4403
 7374W        W23848  16.739  13.143  15.262 -0.0024  0.2494 -0.2493
 7375W        W23849   9.861   3.941   3.504 -0.1696 -0.1427  0.2135
 7376W        W23850  12.292   8.414  13.458  0.0074  0.1000 -0.2121
 7377W        W23851   6.308   2.553   1.013 -0.1670  0.2588  0.2579
 7378W        W23852  15.012   1.827   9.764 -0.2656  0.2574  0.0164
 7379W        W23853   7.596   3.655  11.321  0.4326 -0.1301 -0.0896
 7380W        W23854  12.723   5.165  11.012 -0.2386  0.4239  0.0640
 7381W        W23855   6.380   0.384   0.432 -0.1267 -0.3117 -0.4682
 7382W        W23856   7.836   2.544  13.869  0.0919  0.3122  0.3731
 7383W        W23857   9.924  14.633   2.766 -0.2984 -0.3116 -0.1688
 7384W        W23858   6.017  15.367   3.532  0.0156  0.5319 -0.1018
 7385W        W23859   4.831   2.017  12.501  0.4271 -0.0159 -0.3881
 7386W        W23860   1.692  12.792  14.167  0.3328  0.1245 -0.1956
 7387W        W23861   1.786  16.317   1.807  0.0971  0.1518 -0.1256
 7388W        W23862  14.484  14.171   1.486  0.1127 -0.1539 -0.0219
 7389W        W23863  12.985  11.917   0.789  0.0735 -0.1599  0.0913
 7390W        W23864  18.723  11.417  13.776  0.0791  0.0212 -0.0545
 7391W        W23865   9.634  13.732  10.643  0.1154 -0.2047 -0.1422
 7392W        W23866   5.312  14.352  15.522  0.1745  0.0867  0.1882
 7393W        W23867  10.582   9.036   5.661 -0.1267  0.3545 -0.1336
 7394W        W23868  14.162   8.763  11.560  0.0163  0.3204  0.0346
 7395W        W23869   3.466  11.464  11.419 -0.1021 -0.0591 -0.3119
 7396W        W23870   2.578  13.891  14.866  0.1531 -0.0014 -0.0460
 7397W        W23871   2.119   2.488   2.408 -0.0194 -0.2291  0.0171
 7398W        W23872   6.310   4.323   5.672  0.1291 -0.1799  0.2809
 7399W        W23873   0.765  13.490  12.414  0.1956 -0.2015  0.2490
 7400W        W23874   4.708   4.304   4.520  0.0977  0.1356 -0.0586
 7401W        W23875   8.199   2.118   1.651 -0.2876 -0.2444  0.0135
 7402W        W23876  18.776   2.583  14.956  0.2760  0.1364  0.0252
 7403W        W23877  15.033  16.320   3.976 -0.3035  0.0484 -0.1227
 7404W        W23878   4.633   1.298   5.169  0.0011 -0.0962  0.3553
 7405W        W23879   0.281   8.294  11.292  0.0929 -0.0254  0.0370
 7406W        W23880  12.100  14.085   1.150 -0.0979  0.0479 -0.2213
 7407W        W23881  10.889  13.749   2.595 -0.2138  0.2577  0.1769
 7408W        W23882   0.337  16.396  12.652  0.2282  0.0086 -0.1035
 7409W        W23883  12.635  15.045  12.152 -0.1723 -0.0909 -0.1367
 7410W        W23884   6.058   5.600   3.552 -0.0442  0.3765 -0.0288
 7411W        W23885   5.892   1.403  11.849  0.1009 -0.1325  0.0982
 7412W        W23886   0.076  15.785   5.426  0.2008 -0.1331  0.3465
 7413W        W23887   8.847   7.280   3.970 -0.1551  0.0415  0.0235
 7414W        W23888  11.633  18.001   1.683  0.1326 -0.2565  0.0507
 7415W        W23889  11.629   9.778  13.907 -0.0643  0.1118  0.0837
 7416W        W23890   0.935   3.971   1.967 -0.2602  0.0877 -0.0151
 7417W        W23891  18.729  16.584  12.545 -0.0220  0.0055  0.2698
 7418W        W23892  10.959  14.685   4.262 -0.0115 -0.0670  0.0708
 7419W        W23893   7.966  10.733   1.270  0.2308 -0.3643  0.0987
 7420W        W23894  10.778   4.222  13.502 -0.0183  0.1573  0.0570
 7421W        W23895   7.566  14.622   4.680 -0.2424  0.1677 -0.1761
 7422W        W23896   2.350   1.138   2.859 -0.0118  0.3109  0.3812
 7423W        W23897   2.004  11.553  12.312  0.1163 -0.2466 -0.1411
 7424W        W23898   8.765  16.767   4.312 -0.0861  0.0070 -0.0918
 7425W        W23899  13.608  16.565  12.936  0.1551  0.1676  0.0521
 7426W        W23900   5.877  11.063   0.783  0.6480 -0.2078  0.0462
 7427W        W23901   3.510  18.247   2.047 -0.5680  0.1382  0.1226
 7428W        W23902   3.093   5.769  10.945  0.1023  0.0590  0.0814
 7429W        W23903   6.152   3.999   4.744  0.2167  0.0722  0.0906
 7430W        W23904  17.376   3.519   3.961  0.0950  0.1593 -0.0549
 7431W        W23905   7.924   0.205  14.060  0.1314  0.2191  0.1207
 7432W        W23906  16.145  11.179  10.409  0.0659 -0.0231  0.0051
 7433W        W23907   8.783   4.197  14.478 -0.2995  0.2621  0.1454
 7434W        W23908   5.787   7.838  14.440  0.0062 -0.1856 -0.2355
 7435W        W23909  10.253   6.644  11.028  0.2251 -0.2724  0.1596
 7436W        W23910  12.831  11.295   5.629 -0.0251  0.0589 -0.0925
 7437W        W23911  15.351   4.596   3.722 -0.2698 -0.2232 -0.1420
 7438W        W23912   3.808  16.595  11.841  0.2131  0.1954 -0.2489
 7439W        W23913   9.849   1.916   2.052 -0.1407 -0.1572 -0.2255
 7440W        W23914   7.711   4.387  14.944 -0.1728  0.1090  0.0672
 7441W        W23915  13.503   3.247   3.492 -0.0056  0.0368  0.1301
 7442W        W23916   6.137  16.721  13.819  0.0679  0.0901  0.2649
 7443W        W23917   9.043  16.154   3.532 -0.1027 -0.1856  0.1971
 7444W        W23918   9.164  12.379  12.587 -0.2628  0.3188 -0.3155
 7445W        W23919   6.385  13.039  13.222  0.0133  0.0981 -0.0688
 7446W        W23920   5.237   6.221  15.497  0.2586  0.2991  0.3356
 7447W        W23921   9.774  11.512   1.333 -0.1299 -0.3509 -0.2321
 7448W        W23922   6.283  14.019  11.150 -0.0711 -0.0259 -0.1736
 7449W        W23923  13.870  16.645  12.410 -0.2099 -0.1860 -0.2783
 7450W        W23924   5.329  15.096  11.419 -0.3890 -0.2082  0.0869
 7451W        W23925   4.707  11.163  12.363  0.0322  0.4171 -0.1156
 7452W        W23926   1.268   5.176  12.764 -0.0330 -0.1831  0.2837
 7453W        W23927  10.191   6.162   1.599  0.2667  0.2083 -0.2181
 7454W        W23928   8.701   6.900   4.249 -0.1325 -0.0237 -0.4493
 7455W        W23929   0.578   9.387  14.552 -0.1065  0.3652  0.0156
 7456W        W23930   8.606  11.557   4.641 -0.0344 -0.1215 -0.0988
 7457W        W23931  10.384   2.452   4.011  0.2708  0.5092 -0.0316
 7458W        W23932   0.370   8.205   4.177  0.2214  0.1990  0.0559
 7459W        W23933   5.535  16.050   1.995  0.0284  0.2074  0.1932
 7460W        W23934  12.313   2.926   2.193  0.1528 -0.2707  0.1509
 7461W        W23935   1.758   5.233  13.900 -0.2431 -0.1504  0.0592
 7462W        W23936  14.637   6.574   1.228  0.1979  0.1504  0.2006
 7463W        W23937   1.694   6.556   0.567  0.0552  0.0612 -0.2561
 7464W        W23938   9.617  11.784   5.555  0.1907 -0.1317 -0.2443
 7465W        W23939   2.083   3.201  15.255  0.0997  0.1184  0.2133
 7466W        W23940   1.477   7.054   4.829 -0.1653  0.3732  0.1455
 7467W        W23941   1.413   1.321   3.172 -0.1164  0.0002  0.3072
 7468W        W23942  14.376  17.001   1.341  0.2612 -0.0396  0.0036
 7469W        W23943   5.485  11.759  14.402  0.4009 -0.2747  0.1665
 7470W        W23944   7.234  10.831   4.634 -0.0723 -0.2719  0.2739
 7471W        W23945   7.871  12.348  13.752  0.0367  0.2318 -0.0451
 7472W        W23946   4.369   8.603  12.062  0.0700  0.2345 -0.1577
 7473W        W23947   0.997   5.332  15.022 -0.1470  0.1077  0.0546
 7474W        W23948  12.475  18.349  14.869  0.1461  0.3315 -0.0274
 7475W        W23949  12.176   4.885  11.466  0.1805 -0.4643  0.0437
 7476W        W23950   6.843  10.041   2.968  0.1394  0.0554  0.1577
 7477W        W23951  16.374  15.742  10.651  0.1870 -0.0902 -0.0121
 7478W        W23952  15.585   0.718  14.782 -0.1533 -0.1601 -0.2025
 7479W        W23953  11.575   9.456  13.578 -0.1505 -0.1594  0.2773
 7480W        W23954   4.048  15.425   2.463 -0.1923  0.1584  0.0168
 7481W        W23955  16.986  16.959  13.501  0.1031  0.1576 -0.3386
 7482W        W23956  14.322   3.939   1.500 -0.1235  0.0354 -0.0943
 7483W        W23957   8.979   3.174   3.779 -0.4180 -0.2405 -0.2129
 7484W        W23958  11.050  11.348   1.817  0.2234  0.1973  0.1192
 7485W        W23959  13.848  13.493  11.185 -0.0775 -0.2025 -0.0288
 7486W        W23960   1.192   0.125  14.163  0.0043  0.0084 -0.0181
 7487W        W23961   5.352   3.558  12.839  0.3133 -0.1569 -0.0670
 7488W        W23962   7.042  13.800  15.371 -0.1484  0.2494  0.1859
 7489W        W23963   3.571   3.756   3.857 -0.2243  0.0063  0.0509
 7490W        W23964  17.949   7.454   5.115  0.0262  0.0343  0.0088
 7491W        W23965   2.987  14.197  11.427 -0.1236  0.3780 -0.2901
 7492W        W23966   0.563  12.378   3.547 -0.1912  0.2754 -0.1397
 7493W        W23967  15.270  13.260   4.821  0.1806  0.1318  0.3487
 7494W        W23968  16.756  16.535  12.165 -0.1709  0.0761  0.0903
 7495W        W23969  15.822  18.760   3.516 -0.0330  0.2092  0.2273
 7496W        W23970   2.641   9.616   0.300 -0.2394 -0.2572  0.0581
 7497W        W23971   5.810   7.770   0.570  0.1293  0.0578 -0.1766
 7498W        W23972   5.649  10.166  12.532  0.1707  0.0179  0.1226
 7499W        W23973   5.260   0.869  11.367 -0.2274 -0.2835  0.3737
 7500W        W23974   7.061  13.601  13.747 -0.1059  0.1491  0.1503
 7501W        W23975   6.815   6.653   3.565 -0.1352 -0.0401  0.1484
 7502W        W23976   5.020   3.638   2.204  0.0515  0.1892 -0.0598
 7503W        W23977  15.573  17.071  13.180 -0.2708  0.1533  0.0598
 7504W        W23978   4.493   2.659   2.778  0.2921  0.1103  0.2053
 7505W        W23979   0.188   1.622   3.383  0.2484  0.0478  0.4207
 7506W        W23980  11.968  10.131   0.044  0.3011 -0.0779 -0.0293
 7507W        W23981  11.565   5.465   1.975 -0.1318  0.0785 -0.2215
 7508W        W23982   9.539   1.236  12.967 -0.3345  0.1962  0.0276
 7509W        W23983  13.753  10.162   2.318  0.0727  0.2206  0.0161
 7510W        W23984   9.275   9.787  12.958  0.0769 -0.1460  0.1862
 7511W        W23985  14.955   4.341   4.563  0.1376 -0.2321 -0.3087
 7512W        W23986   7.580  13.582  14.734  0.3893  0.3045  0.0685
 7513W        W23987  12.132   9.278  14.825  0.2289 -0.1350 -0.1632
 7514W        W23988   2.075  14.273  11.987 -0.0139 -0.2038  0.0426
 7515W        W23989   3.441   3.683  11.058  0.2148 -0.4027 -0.3255
 7516W        W23990  15.897  11.907  12.812 -0.2980  0.0753  0.1206
 7517W        W23991  17.637  18.754   9.552  0.2693 -0.0333 -0.1473
 7518W        W23992   7.655   9.902  11.314  0.1543 -0.1256  0.0409
 7519W        W23993  17.984   9.322  13.543 -0.0323  0.0947 -0.0173
 7520W        W23994  13.694  15.716   1.257  0.0072 -0.0214  0.0482
 7521W        W23995   5.114  12.071  11.265 -0.0808 -0.3577  0.0507
 7522W        W23996   4.659   2.690  11.744  0.3033  0.1070  0.1725
 7523W        W23997  16.577   1.325  15.533  0.0118  0.1621  0.3129
 7524W        W23998   4.504  10.433   3.719  0.1058 -0.0938 -0.0922
 7525W        W23999   2.663   6.382  13.003  0.3250  0.1038  0.1338
 7526W        W24000   0.344   9.238   2.021  0.0394  0.2691 -0.1521
 7527W        W24001   9.212  18.180   4.013 -0.2205 -0.0449  0.2227
 7528W        W24002  18.093  18.240  14.392 -0.0594 -0.0973  0.1178
 7529W        W24003  15.076   7.055  11.365 -0.1424 -0.1701  0.0124
 7530W        W24004  13.733   1.013  12.032 -0.0028 -0.2921 -0.0027
 7531W        W24005   5.907  15.283  13.551 -0.1688  0.2915 -0.0827
 7532W        W24006   9.733  14.927  14.046  0.0021 -0.1612 -0.3173
 7533W        W24007   1.044   1.511   1.201  0.0662 -0.1151  0.1944
 7534W        W24008  14.450   7.756  15.257 -0.1813  0.1332 -0.1048
 7535W        W24009   4.913   1.805   2.882  0.1192  0.2284  0.0965
 7536W        W24010   4.764   8.664  13.103  0.0357  0.0356 -0.0541
 7537W        W24011   2.219   0.855   3.262 -0.0831 -0.5057  0.1295
 7538W        W24012  12.485   2.520   1.380 -0.1552  0.3136 -0.0633
 7539W        W24013  16.350   9.609  12.288 -0.4878 -0.0631 -0.0625
 7540W        W24014  17.890  10.385   0.223 -0.0814 -0.1971 -0.2184
 7541W        W24015  18.115   8.354  10.617 -0.1134 -0.0233  0.1094
 7542W        W24016   4.861  13.479   3.480  0.2002  0.0256  0.3036
 7543W        W24017   9.161  16.292   0.664  0.0434 -0.2758  0.0110
 7544W        W24018   6.757   5.721   2.920 -0.0287 -0.1054 -0.1812
 7545W        W24019   5.899   7.260   4.493 -0.0143 -0.3232  0.2074
 7546W        W24020  16.179   9.714  14.342 -0.0213 -0.0871  0.0117
 7547W        W24021   6.832  14.066  11.792 -0.3294 -0.0147  0.4483
 7548W        W24022   1.471  14.544  13.896  0.4016  0.1278  0.0040
 7549W        W24023  11.019  16.398   5.024  0.0886  0.0136 -0.0051
 7550W        W24024  10.168  16.869   0.766 -0.3701  0.2098  0.2326
 7551W        W24025   6.689  18.393   3.331 -0.1543 -0.4630  0.2004
 7552W        W24026  14.327   3.714   3.012 -0.0503  0.1286 -0.2906
 7553W        W24027   6.760  18.265   5.489  0.0302 -0.0324 -0.0439
 7554W        W24028  17.665   0.964   4.373 -0.2658 -0.0075 -0.0556
 7555W        W24029   8.121  11.421  11.147  0.0553 -0.3305  0.1097
 7556W        W24030   3.886  12.208  12.834  0.3154  0.2214 -0.3173
 7557W        W24031   4.455   0.029   4.801  0.1838 -0.0137  0.1247
 7558W        W24032  13.712   1.531  12.891 -0.0436  0.2352  0.1047
 7559W        W24033  17.542  13.616   4.933  0.2016 -0.0198 -0.0575
 7560W        W24034   1.636   0.141   1.265  0.0974 -0.1877  0.1529
 7561W        W24035   7.017   3.994  13.145 -0.1489  0.1923 -0.0151
 7562W        W24036   0.284  17.666   9.560  0.3024 -0.1110 -0.1100
 7563W        W24037  16.988   6.209  12.931 -0.1361 -0.0310 -0.1400
 7564W        W24038  16.540   4.320  10.887  0.0090 -0.1347 -0.0797
 7565W        W24039  16.017  10.684   5.362 -0.2263  0.3755 -0.1871
 7566W        W24040   4.488   2.749  14.456 -0.2234  0.1725 -0.0557
 7567W        W24041  17.014   9.729   4.424 -0.0859 -0.1907 -0.1487
 7568W        W24042  17.658  15.064  13.446 -0.0540 -0.0348  0.1499
 7569W        W24043  13.961  17.917  13.619 -0.0600  0.1619 -0.3763
 7570W        W24044  13.769  17.943  15.556 -0.1540  0.0857 -0.0183
 7571W        W24045   0.143   6.590   4.912 -0.0820  0.2265 -0.0674
 7572W        W24046  13.275   1.539   2.721 -0.0117 -0.0599 -0.0606
 7573W        W24047   7.149   1.755  12.495 -0.1673  0.0931  0.0500
 7574W        W24048   1.840   8.742   4.502 -0.1376  0.0047 -0.1623
 7575W        W24049   5.799  15.114   2.143  0.0145 -0.0831 -0.1641
 7576W        W24050  11.498   1.375  13.105 -0.0552 -0.0202  0.1633
 7577W        W24051   1.748  18.280   0.093  0.0448  0.0457  0.1058
 7578W        W24052   5.125   9.839   3.860 -0.3127  0.0063  0.4022
 7579W        W24053   5.350  12.322  12.544 -0.0092 -0.0735  0.1794
 7580W        W24054  12.194  10.005  12.634 -0.3209  0.1834 -0.2012
 7581W        W24055   8.570  17.153  12.855  0.0775 -0.2701 -0.0027
 7582W        W24056  14.618   9.000   5.507  0.2348 -0.2940 -0.1425
 7583W        W24057  12.524   8.019   2.659  0.2120 -0.0218 -0.1141
 7584W        W24058  13.623   9.000   3.289 -0.0186  0.1406  0.1941
 7585W        W24059  15.381  11.820  12.696  0.1444 -0.0357  0.2070
 7586W        W24060   0.680   6.485  11.909  0.1888  0.2407  0.0833
 7587W        W24061  14.690  11.954  11.623  0.1213  0.0735  0.2847
 7588W        W24062   6.952   1.628   1.166  0.3845  0.0313 -0.0528
 7589W        W24063   6.159  10.025  11.550  0.2081  0.1744 -0.1946
 7590W        W24064   8.327  11.602   0.783 -0.0260 -0.1115  0.0840
 7591W        W24065  14.871   6.132  11.024 -0.1940  0.0203 -0.0365
 7592W        W24066  14.205  14.721  15.118  0.3941 -0.0710  0.2442
 7593W        W24067  16.125  10.362   1.619 -0.1688 -0.0814 -0.3915
 7594W        W24068   5.008   1.128   1.925 -0.2539  0.0905 -0.4247
 7595W        W24069  15.902  12.546  10.549  0.2344  0.1307  0.2482
 7596W        W24070   3.676   4.984  13.776  0.1532 -0.1105 -0.0514
 7597W        W24071  11.931   9.128  13.493  0.0923 -0.1525  0.1656
 7598W        W24072  18.198   1.515   0.656 -0.1689 -0.2439 -0.0285
 7599W        W24073   3.157   4.115   1.779  0.0071 -0.2308 -0.3340
 7600W        W24074   3.742  18.549   0.535 -0.1022  0.0380 -0.0842
 7601W        W24075  13.717  16.179  10.829  0.0405  0.2471 -0.2763
 7602W        W24076  14.225   1.033   0.685 -0.0113  0.0713 -0.0830
 7603W        W24077  18.636   3.717  12.543 -0.0885  0.0297 -0.0422
 7604W        W24078   2.023  15.657   3.525 -0.0196 -0.0191  0.1173
 7605W        W24079   5.804   1.182  11.392  0.0952 -0.0129 -0.0116
 7606W        W24080   1.612   3.341   2.255  0.3871 -0.1192 -0.1685
 7607W        W24081   7.992   0.611  14.339 -0.0890  0.1446  0.0267
 7608W        W24082   8.525  17.585   5.178 -0.0732  0.0479 -0.3075
 7609W        W24083   0.249  16.439  13.859 -0.1727 -0.1266  0.0295
 7610W        W24084   1.284  18.526  15.026  0.0322  0.0157  0.4987
 7611W        W24085  12.949  10.024   3.644 -0.0609  0.1271  0.0578
 7612W        W24086   7.851   4.843  11.864 -0.1315 -0.3976 -0.1448
 7613W        W24087   9.612  16.683  13.829  0.1996 -0.1636 -0.2815
 7614W        W24088   2.309   1.270  13.607 -0.0329 -0.0553 -0.0021
 7615W        W24089   6.009   7.136   3.879 -0.3736 -0.1585  0.2791
 7616W        W24090   3.058  16.533   4.095  0.2657  0.1451 -0.1638
 7617W        W24091   7.413   4.303   1.134 -0.0671 -0.0987 -0.0328
 7618W        W24092  11.915  18.295   1.930 -0.2549  0.3529  0.1616
 7619W        W24093  12.712  11.643   0.056  0.0209  0.3264  0.4704
 7620W        W24094   3.749  12.755  12.773 -0.3473  0.0280 -0.0254
 7621W        W24095  15.769  11.994  10.758 -0.2625 -0.2552  0.3894
 7622W        W24096   1.921   2.630  12.561 -0.1931 -0.0954  0.0330
 7623W        W24097   9.127  12.061   1.766 -0.1421 -0.0335  0.0019
 7624W        W24098  14.625  15.486   3.043 -0.3559  0.0508  0.0642
 7625W        W24099   0.495  16.067  13.132 -0.1706 -0.0984  0.1745
 7626W        W24100   1.825  13.975   3.589  0.1320  0.1074 -0.2938
 7627W        W24101  12.582   9.894  11.530  0.5338 -0.1800  0.1308
 7628W        W24102  11.108   5.530   2.202  0.1437  0.0631 -0.1775
 7629W        W24103  10.410   6.352   6.454 -0.0147 -0.0198 -0.1225
 7630W        W24104   5.393  14.842   2.401 -0.0497 -0.0896 -0.1234
 7631W        W24105   5.295   2.690  15.027 -0.0763  0.1424  0.0371
 7632W        W24106   0.261   6.577  12.267 -0.2871 -0.0790  0.0491
 7633W        W24107   5.535  12.268  12.030 -0.1248 -0.2483 -0.0887
 7634W        W24108  13.685   3.400  11.541  0.0815  0.3234 -0.1908
 7635W        W24109   4.179   6.477   0.515  0.2179  0.1878  0.0262
 7636W        W24110  16.016  18.752   0.846 -0.1908 -0.1868  0.1751
 7637W        W24111   5.965  11.865  11.403  0.0283  0.2895  0.0472
 7638W        W24112  12.262   1.016   1.642  0.1153 -0.1178  0.2243
 7639W        W24113   1.070  15.786   5.030  0.1196 -0.1744  0.0991
 7640W        W24114   9.569   6.466  13.857 -0.2776 -0.0745  0.1890
 7641W        W24115  16.397  17.039   4.259  0.0529 -0.0209  0.2386
 7642W        W24116   9.819  10.555   1.624 -0.1402 -0.1054 -0.0227
 7643W        W24117   3.445   1.961   2.720  0.0719  0.1220  0.3866
 7644W        W24118  12.313   5.895  15.598  0.1262  0.0868 -0.1340
 7645W        W24119  14.562   0.351   1.571  0.2391  0.2117 -0.1249
 7646W        W24120  13.866   5.790  14.214  0.0172 -0.0459 -0.3509
 7647W        W24121  17.423   8.268   3.455  0.3621 -0.0394  0.1960
 7648W        W24122  14.616  13.935  15.093  0.2523 -0.0329 -0.0567
 7649W        W24123  11.420  13.929  11.339  0.1842 -0.2241  0.2145
 7650W        W24124   1.546   0.658  11.346  0.1735  0.0498  0.1753
 7651W        W24125   1.437  16.105  15.276  0.0352  0.1410  0.1534
 7652W        W24126  10.495  12.009  14.819  0.0933  0.0033  0.1081
 7653W        W24127   1.603   0.147  13.221  0.1541  0.0627 -0.2588
 7654W        W24128  11.264  10.731  13.072 -0.2064 -0.4255  0.2928
 7655W        W24129  15.974  14.351  13.159  0.2247  0.1862 -0.1623
 7656W        W24130   6.805  15.144  11.464 -0.3997 -0.1444  0.1290
 7657W        W24131   1.296  15.144  11.754 -0.1672 -0.1644 -0.1007
 7658W        W24132   3.165   8.362   3.490 -0.1824 -0.1023 -0.2914
 7659W        W24133   8.077  17.947   3.183  0.1157  0.0209 -0.1179
 7660W        W24134  15.406  15.550   0.856  0.1143  0.0712 -0.0459
 7661W        W24135   5.358   2.530  13.784 -0.1154 -0.0392 -0.0812
 7662W        W24136  17.353  11.904   3.933 -0.1508 -0.3635  0.2799
 7663W        W24137   3.302  12.501   4.982  0.0651  0.3267 -0.4772
 7664W        W24138  17.956   3.118   1.150 -0.1787 -0.0956  0.2164
 7665W        W24139  18.101   7.554  15.512  0.1661  0.0852 -0.1377
 7666W        W24140  13.283   7.980  12.447  0.2129 -0.0957 -0.1813
 7667W        W24141  13.280  17.476  13.377 -0.0705  0.1037  0.0996
 7668W        W24142   5.489   8.827   0.358 -0.0652 -0.2403 -0.0950
 7669W        W24143   9.144  18.337   2.935  0.0200  0.3656 -0.3616
 7670W        W24144   0.971   5.224   1.539  0.1748 -0.0419  0.1156
 7671W        W24145   4.747   3.090   1.303 -0.0158  0.2500  0.0368
 7672W        W24146   3.497   7.082  11.039  0.3434  0.5320 -0.0999
 7673W        W24147  14.394  12.743   4.821 -0.1347 -0.1300 -0.2646
 7674W        W24148  12.369   6.625  11.898 -0.0041  0.1009 -0.0153
 7675W        W24149  12.596   9.772   4.559 -0.0709 -0.0448  0.1304
 7676W        W24150   2.828   3.456   4.610  0.4083 -0.1847  0.0259
 7677W        W24151  15.355   7.712  10.796 -0.0449  0.2447 -0.0792
 7678W        W24152  15.930  16.656   3.976  0.0843 -0.0684 -0.0660
 7679W        W24153  13.689   1.439   4.369 -0.0556 -0.0637  0.3496
 7680W        W24154  10.269   2.668   0.470 -0.1009 -0.0929  0.1315
 7681W        W24155   5.211   8.279   5.034 -0.1458 -0.0615  0.0614
 7682W        W24156  16.585  14.647   2.993 -0.1305 -0.1472 -0.1933
 7683W        W24157  14.218   4.590   3.087 -0.0427  0.0859 -0.2252
 7684W        W24158   4.433   2.467   1.787 -0.2226 -0.1393 -0.3115
 7685W        W24159  14.007  16.668   2.476 -0.1784 -0.0360  0.2209
 7686W        W24160  15.341   5.520   1.275 -0.4655 -0.3770  0.0320
 7687W        W24161   0.707  16.595  15.617  0.1875 -0.0050 -0.2793
 7688W        W24162   5.456   7.849  13.013 -0.0558  0.0659 -0.2479
 7689W        W24163  12.374  15.340  10.832 -0.0956 -0.1085 -0.0825
 7690W        W24164  13.833   4.204  11.338 -0.1501 -0.5782 -0.4433
 7691W        W24165  13.162  18.847  13.418 -0.2911  0.0061 -0.1687
 7692W        W24166   7.227  16.279  12.187 -0.1356  0.0259  0.0784
 7693W        W24167  10.518   8.884   2.123  0.3841 -0.0585 -0.2250
 7694W        W24168   4.864  17.873   1.998  0.1530 -0.0815  0.2077
 7695W        W24169   3.501  10.364   0.932  0.2030  0.0973  0.0706
 7696W        W24170  11.796  12.056   5.170  0.0210  0.3440  0.1813
 7697W        W24171   8.424  14.329   0.634  0.1579 -0.2403 -0.1488
 7698W        W24172   7.620   0.038  12.857  0.1225 -0.4192 -0.1486
 7699W        W24173  13.658  11.649  14.294 -0.0350  0.0567 -0.4207
 7700W        W24174  12.520  13.688  12.940  0.1072 -0.3002  0.0141
 7701W        W24175  16.282   9.893  15.591 -0.0284 -0.0086 -0.0214
 7702W        W24176   6.916   3.181   3.014 -0.0635 -0.2795  0.0236
 7703W        W24177  14.828   8.887  12.747  0.0541 -0.1102  0.0656
 7704W        W24178   1.128  13.880   1.742  0.2399 -0.2827  0.4885
 7705W        W24179   0.976  15.435  12.026  0.2192 -0.3468  0.1088
 7706W        W24180  15.694   0.732  13.250 -0.1117  0.0538 -0.0533
 7707W        W24181   1.791  12.543   0.732 -0.0973  0.0885 -0.0451
 7708W        W24182  13.151  16.874  13.641  0.1672 -0.3105 -0.0726
 7709W        W24183  14.505   8.060   0.724 -0.1064 -0.0097 -0.3467
 7710W        W24184  17.431  13.357  13.779 -0.0725 -0.3469  0.2877
 7711W        W24185  15.115   5.469   3.926 -0.3727  0.4275  0.0317
 7712W        W24186   5.668  11.336   5.465  0.0328  0.0871 -0.0888
 7713W        W24187   0.239  12.025  11.158 -0.3631  0.1588 -0.1424
 7714W        W24188   1.675  17.358  14.000  0.0432  0.1071  0.0081
 7715W        W24189   2.395  13.815   3.610  0.1387  0.0261 -0.2285
 7716W        W24190  16.649  16.607  14.425  0.0251 -0.1080  0.1230
 7717W        W24191   1.303  10.592  13.358 -0.0388  0.0091  0.1324
 7718W        W24192  18.288  12.550   1.616  0.4052 -0.1245 -0.0489
 7719W        W24193  11.465  15.565  13.018 -0.0197 -0.0518 -0.1905
 7720W        W24194   2.898  16.847  12.136  0.0586  0.1103  0.0575
 7721W        W24195  17.122  16.645  14.515 -0.2631  0.1105  0.1877
 7722W        W24196  15.404  12.293   5.062  0.1745  0.2339  0.1390
 7723W        W24197  17.483  12.636  15.674  0.3165  0.0178 -0.1277
 7724W        W24198  16.844  17.279  11.535  0.0730 -0.3391  0.1790
 7725W        W24199  13.452   0.235   0.781 -0.0412 -0.0967  0.1298
 7726W        W24200   1.341   7.245  11.594  0.1270 -0.1831 -0.3525
 7727W        W24201   7.415  13.319  12.051 -0.1043 -0.3388 -0.0507
 7728W        W24202  16.360  10.581   0.668 -0.0427  0.0152  0.1034
 7729W        W24203   7.692  16.688   1.734 -0.0566 -0.3194 -0.3000
 7730W        W24204  10.143   6.134  15.688  0.0392 -0.1275 -0.4334
 7731W        W24205  11.041   5.172   0.650 -0.1180  0.0451  0.2905
 7732W        W24206   7.657  13.686  15.200  0.0790  0.2328  0.1065
 7733W        W24207  13.412  15.274   3.834 -0.3366  0.0641 -0.0121
 7734W        W24208   1.530   2.363  11.421 -0.2508  0.1012  0.1408
 7735W        W24209   9.403   2.375   4.022  0.0636  0.1054  0.1163
 7736W        W24210   2.115  11.847   3.450 -0.0073 -0.2325  0.1187
 7737W        W24211  12.836  15.566  13.386  0.1355 -0.1268 -0.1628
 7738W        W24212   2.740   1.986   0.809 -0.1001  0.0477  0.2385
 7739W        W24213   8.273   4.773  12.532 -0.0141  0.1010  0.2836
 7740W        W24214  15.604  10.637  12.325 -0.2155  0.1033  0.0030
 7741W        W24215  17.426   3.013   3.167 -0.0417 -0.2149 -0.0201
 7742W        W24216   1.298   1.545  10.744  0.0510  0.1231  0.0482
 7743W        W24217  10.419   9.964  14.296  0.2566 -0.0099  0.2037
 7744W        W24218  18.493  10.602  13.437  0.1315 -0.2155  0.0485
 7745W        W24219  12.138   0.457  11.125  0.1094  0.2462 -0.3225
 7746W        W24220   4.256   6.667  12.617  0.4233  0.4053 -0.2829
 7747W        W24221  15.780  11.186   4.977 -0.0521 -0.1008 -0.3981
 7748W        W24222   1.469   8.693  15.245  0.1556 -0.1984 -0.3799
 7749W        W24223   0.523   7.747   4.137  0.0096  0.1015  0.1034
 7750W        W24224  17.717   8.117   4.876  0.1855  0.1566 -0.0670
 7751W        W24225   6.740   5.785  14.784  0.1329 -0.3091 -0.2486
 7752W        W24226   8.273  18.522  11.852  0.0375  0.0081 -0.2562
 7753W        W24227   8.989  16.370  11.761  0.1074  0.2902  0.2112
 7754W        W24228   2.867  12.058  10.721  0.0741 -0.0921  0.0849
 7755W        W24229   0.631  10.966  13.758  0.1742 -0.1129  0.0113
 7756W        W24230  10.523   5.928  12.530  0.1604  0.0019  0.0176
 7757W        W24231  12.208  15.031  13.227  0.1101  0.1128 -0.0564
 7758W        W24232   6.200   9.043  11.189  0.2397  0.3252 -0.1631
 7759W        W24233  17.405  11.192   0.071  0.1004 -0.2495 -0.0430
 7760W        W24234   8.441   5.193   0.303  0.2317  0.1384 -0.4407
 7761W        W24235   4.712   2.083   0.503  0.0823 -0.0751  0.0182
 7762W        W24236   4.108   8.536  12.835 -0.1867 -0.3587  0.2618
 7763W        W24237   8.113  15.081  11.532 -0.0201  0.2565 -0.0556
 7764W        W24238   7.184   7.762   5.421 -0.2101 -0.2304 -0.1303
 7765W        W24239   0.978   5.940   0.629 -0.2217  0.1690  0.3663
 7766W        W24240  16.148  16.047   3.475 -0.4570  0.1523  0.3358
 7767W        W24241   3.158   2.681  14.387 -0.2113 -0.1500  0.0326
 7768W        W24242   8.203   2.150  13.913  0.0724 -0.0806  0.2312
 7769W        W24243   1.243  14.640   0.445 -0.1083 -0.0402 -0.2145
 7770W        W24244  14.014   5.846  11.161  0.0958  0.4443 -0.0276
 7771W        W24245   6.475  14.196   2.129 -0.1884  0.3126  0.1759
 7772W        W24246   2.117   2.148   2.962  0.1508  0.3375  0.2173
 7773W        W24247   0.090  15.602   2.586 -0.3846 -0.1687 -0.2975
 7774W        W24248   1.368  13.129  10.893 -0.1298  0.1804 -0.1811
 7775W        W24249   0.509  15.374  10.629  0.1059 -0.1567 -0.1952
 7776W        W24250   7.495  15.828  12.956 -0.0541  0.0319 -0.0692
 7777W        W24251   2.061  15.538  13.162  0.1112 -0.6725  0.4185
 7778W        W24252  17.914   7.053  10.330 -0.0495  0.1497  0.0074
 7779W        W24253   6.322   5.634  12.795 -0.1328  0.0258 -0.0529
 7780W        W24254   8.526  12.295   2.954 -0.1352  0.1733 -0.0388
 7781W        W24255   2.195  16.683   1.718 -0.1049 -0.1836 -0.0092
 7782W        W24256  15.953  17.193   3.983  0.1369 -0.0129  0.2033
 7783W        W24257   0.428   5.915   4.121  0.0836 -0.1150  0.1591
 7784W        W24258   7.860  13.240  15.634  0.0312  0.4259 -0.0181
 7785W        W24259   4.276  11.601  12.380  0.0481  0.1061  0.1200
 7786W        W24260  14.568  13.761   3.636  0.3691  0.0352 -0.4962
 7787W        W24261  10.752   2.415   1.765  0.4020 -0.3357  0.0676
 7788W        W24262  16.900   8.131  14.696 -0.3428  0.4596  0.4587
 7789W        W24263  13.002  17.542   0.306  0.0462 -0.0033 -0.6787
 7790W        W24264   4.837  16.737   4.098 -0.0546 -0.0686  0.3286
 7791W        W24265  14.358  12.160  10.918 -0.0500  0.3109 -0.0634
 7792W        W24266   9.321  17.069   4.925  0.0734  0.1372  0.0175
 7793W        W24267   4.140  12.798   1.766 -0.0723 -0.0426 -0.0102
 7794W        W24268  17.728   3.639  13.502  0.1412 -0.1708  0.0766
 7795W        W24269  10.718  14.885   5.123 -0.0842  0.0829  0.0139
 7796W        W24270   5.089   7.410   0.571 -0.1434 -0.1829 -0.1516
 7797W        W24271   4.336   5.869  11.412  0.0836 -0.0123 -0.1321
 7798W        W24272   2.584  11.725  13.768  0.1936 -0.3379  0.4109
 7799W        W24273   0.235   3.198  11.811  0.0408 -0.1876  0.0942
 7800W        W24274   9.568   8.470  14.591  0.0449  0.2061  0.0208
 7801W        W24275   0.589  14.767  13.794 -0.0853 -0.1210  0.1286
 7802W        W24276  17.953  12.001  15.355  0.2136 -0.0299 -0.1133
 7803W        W24277   0.243  15.075   4.026  0.0099 -0.3486 -0.0031
 7804W        W24278   8.721   1.749  14.827  0.3767  0.1378  0.1404
 7805W        W24279   0.568   3.182   0.260 -0.0567 -0.3907  0.2909
 7806W        W24280  17.077  11.823  10.169  0.1260 -0.0288  0.0554
 7807W        W24281  14.774  11.896   3.107  0.1048 -0.0883 -0.2438
 7808W        W24282   0.895   6.821  14.459  0.6061  0.1676  0.1506
 7809W        W24283  14.190   1.336  12.983  0.0531 -0.2551  0.0784
 7810W        W24284   1.018  13.744   4.652 -0.0205 -0.0908 -0.0122
 7811W        W24285   1.010  11.962   1.027 -0.2117  0.1424  0.1223
 7812W        W24286  17.380   7.045   3.843 -0.0322 -0.0451 -0.0445
 7813W        W24287  16.388   7.379   5.454 -0.1866  0.1658  0.2071
 7814W        W24288   9.573   7.053   3.138 -0.1353 -0.0800 -0.0420
 7815W        W24289   2.631   8.590  10.468 -0.0519  0.2424  0.0026
 7816W        W24290   9.921  13.078   3.747  0.1758  0.2537 -0.2830
 7817W        W24291   5.558  13.392   3.077 -0.0031  0.1348 -0.1644
 7818W        W24292   5.533   7.330  14.245  0.1620 -0.0792 -0.3464
 7819W        W24293  17.661  17.219   1.791 -0.1707  0.1846 -0.3041
 7820W        W24294   1.560   2.844  10.521 -0.0841  0.1217 -0.0583
 7821W        W24295   3.751   8.817   3.692 -0.1785  0.0411  0.0333
 7822W        W24296  18.808   0.648   0.017  0.1992  0.1072  0.0054
 7823W        W24297   3.954  17.869   1.357  0.1233 -0.0198 -0.1505
 7824W        W24298   9.660  14.156   2.806 -0.0619 -0.0699 -0.0695
 7825W        W24299   0.079   5.106  15.244  0.0826  0.2956  0.0336
 7826W        W24300   6.283   2.800   0.599 -0.0150 -0.0588 -0.3467
 7827W        W24301   8.500  12.956  13.954  0.1973 -0.0545 -0.1310
 7828W        W24302  18.241   7.936   0.683 -0.3718 -0.3374  0.0314
 7829W        W24303  10.625  14.077  14.297 -0.0934 -0.0716  0.0378
 7830W        W24304  12.610   8.931  11.797  0.1724  0.0352  0.2105
 7831W        W24305   2.768  15.297  14.766  0.1721  0.3425  0.1407
 7832W        W24306   0.821  16.258   3.723 -0.2800  0.1766  0.0609
 7833W        W24307  14.078  15.329  11.229 -0.1077 -0.0330 -0.0187
 7834W        W24308   0.016  18.109  11.595  0.0114 -0.1006 -0.2708
 7835W        W24309   8.515   3.896   5.648 -0.0641 -0.2399  0.0230
 7836W        W24310  10.452   1.268   2.629  0.3608 -0.0954  0.0243
 7837W        W24311  11.124   4.374  14.833 -0.3477  0.0569  0.2000
 7838W        W24312  13.422   2.374   4.016 -0.1044 -0.2657 -0.0824
 7839W        W24313  13.529  10.611   3.964  0.4158  0.0232  0.0488
 7840W        W24314  14.697  17.145  13.202  0.0439  0.0111 -0.0378
 7841W        W24315  10.663   2.694  12.688 -0.0302  0.0200 -0.2883
 7842W        W24316  14.314  10.282   0.281 -0.2141  0.2711 -0.0784
 7843W        W24317   5.794   0.861  12.227 -0.2523 -0.2881  0.2621
 7844W        W24318   4.131   9.612   1.869  0.2300  0.0514 -0.5052
 7845W        W24319   3.763   8.699   1.817 -0.0772 -0.1411  0.0890
 7846W        W24320   4.660  16.249  11.352 -0.2421  0.3261  0.2068
 7847W        W24321  14.341  10.145  15.392 -0.0868  0.0013  0.1355
 7848W        W24322  15.418  17.144   2.779 -0.1869 -0.0160  0.3468
 7849W        W24323   7.777   7.016   4.119 -0.0126 -0.2267 -0.2392
 7850W        W24324   7.004   7.643  15.172  0.1845  0.0452  0.3233
 7851W        W24325   6.759   9.947  12.643  0.0160 -0.0917  0.1478
 7852W        W24326   1.527   0.880  12.443 -0.0645  0.1556 -0.1558
 7853W        W24327   2.002  13.779   4.004  0.0457  0.2225 -0.0420
 7854W        W24328   3.881  10.463  11.010 -0.0868 -0.2568 -0.1787
 7855W        W24329   9.208   5.146   1.707 -0.2413  0.1227  0.0127
 7856W        W24330   6.925   6.141  13.845  0.0460  0.0112 -0.2515
 7857W        W24331  13.960   8.978   5.571  0.0186 -0.0692 -0.1785
 7858W        W24332  12.777   7.128   1.698  0.1604 -0.1462 -0.1117
 7859W        W24333   6.566  11.343   3.711 -0.0885 -0.1049  0.0618
 7860W        W24334   6.511   5.605   1.128 -0.0794 -0.2410  0.1709
 7861W        W24335  12.578  15.188  15.453  0.1592 -0.2104 -0.0894
 7862W        W24336  11.233  15.936   0.122  0.1105 -0.2556 -0.2836
 7863W        W24337   5.723  18.724  11.434  0.2746  0.2560 -0.0934
 7864W        W24338  16.844   4.095   4.452 -0.1494  0.1727  0.0332
 7865W        W24339  11.072   1.553  11.560  0.1350 -0.0526 -0.0758
 7866W        W24340   6.705  12.334  13.794  0.1926 -0.1644 -0.3111
 7867W        W24341  18.044   4.067  14.890  0.0560 -0.1548  0.3587
 7868W        W24342  14.901  17.941   9.194 -0.1055 -0.1456  0.1535
 7869W        W24343   5.551   2.559  12.711  0.4510 -0.1387  0.0450
 7870W        W24344  16.258  13.398   2.448 -0.2885 -0.1869 -0.1978
 7871W        W24345  11.114  15.887  14.962  0.1173 -0.0280 -0.0489
 7872W        W24346  10.840   6.044  15.206 -0.1477 -0.0112 -0.0179
 7873W        W24347  10.207   4.038  11.226 -0.1387  0.0515 -0.0095
 7874W        W24348  16.704   1.477   2.482 -0.0999  0.0358 -0.1228
 7875W        W24349   3.765  14.520  11.482  0.2604  0.0128 -0.0383
 7876W        W24350  18.634  18.183  13.296  0.2136  0.0339 -0.3815
 7877W        W24351  14.640   6.135  13.678  0.2087 -0.1412 -0.2200
 7878W        W24352   8.977   4.283  15.679  0.0323  0.0446  0.0260
 7879W        W24353   0.608  17.215   2.155  0.0210 -0.1188 -0.0337
 7880W        W24354  13.201   2.059   1.116  0.2605 -0.0612  0.1410
 7881W        W24355  12.462   3.937   3.696  0.1802 -0.1277  0.0554
 7882W        W24356  15.063   1.304   0.552 -0.5097  0.0411 -0.0873
 7883W        W24357   8.462  18.245  11.387  0.0594 -0.0774 -0.2092
 7884W        W24358   6.620  13.058   3.056  0.0104  0.2372 -0.2372
 7885W        W24359   7.534   2.740   0.244 -0.1113 -0.0493 -0.0626
 7886W        W24360  17.030   6.696  11.298  0.2305 -0.0800 -0.6523
 7887W        W24361   1.721   2.567   2.856 -0.0131 -0.0022  0.2484
 7888W        W24362  13.449   5.856  13.787 -0.1972  0.0380  0.0535
 7889W        W24363   4.743   1.576   0.236  0.2112 -0.0049  0.1955
 7890W        W24364   3.097   1.023   0.584  0.1002  0.0015  0.2156
 7891W        W24365  17.869   7.371   2.010 -0.0047 -0.0178 -0.0886
 7892W        W24366   5.951   8.206   4.114  0.1349  0.0642 -0.0831
 7893W        W24367  10.310  18.022  12.670  0.0170 -0.0251  0.0995
 7894W        W24368   5.582  16.911   0.864 -0.3778  0.0351  0.2343
 7895W        W24369   7.035  10.543  14.782 -0.0774  0.1442 -0.0663
 7896W        W24370   6.946  10.557   3.692  0.1120 -0.0489  0.0720
 7897W        W24371   4.436   3.841   5.740  0.1880 -0.0629  0.3665
 7898W        W24372   6.818   9.432  11.824 -0.3822  0.0507 -0.1738
 7899W        W24373  12.640  13.300   1.163 -0.0770  0.1002 -0.1794
 7900W        W24374  18.186   9.273   1.221  0.0822 -0.3397 -0.0480
 7901W        W24375  12.861  15.059   0.258  0.0818 -0.1144 -0.0282
 7902W        W24376  16.223  17.410   1.387  0.0151  0.0355 -0.0418
 7903W        W24377   7.549  17.443   4.891 -0.1315 -0.1294  0.0761
 7904W        W24378   1.463  17.902  14.831  0.0665  0.0372 -0.1857
 7905W        W24379  17.673  18.192   2.060  0.1576 -0.1651 -0.0761
 7906W        W24380  16.621   8.850   5.373  0.0500  0.1908 -0.1617
 7907W        W24381  18.008   8.061  15.318 -0.1472  0.3721  0.2641
 7908W        W24382  17.190  15.583   2.969 -0.2047 -0.0555 -0.3076
 7909W        W24383  16.430  11.773  11.464 -0.0574  0.0298 -0.0092
 7910W        W24384   3.571   5.173  14.499 -0.0197  0.0439  0.0617
 7911W        W24385   0.116  12.112   5.599  0.0118  0.0255  0.0763
 7912W        W24386  14.224  14.025   9.579  0.1964 -0.1679 -0.2650
 7913W        W24387  10.559  12.256  14.368  0.0429  0.3153 -0.0279
 7914W        W24388  11.484  14.920   1.841  0.0402  0.0133 -0.3131
 7915W        W24389  17.655  18.183   5.050  0.1283 -0.1110  0.0519
 7916W        W24390   4.948  11.612  11.034  0.1646 -0.3283 -0.2736
 7917W        W24391  18.740   7.122   1.608 -0.3196  0.3226 -0.0785
 7918W        W24392   3.137  17.787  12.267 -0.2195  0.3286  0.1611
 7919W        W24393  12.724  18.696   4.566 -0.2067 -0.3265  0.0360
 7920W        W24394  16.027  17.185  12.964 -0.0484 -0.1518 -0.2246
 7921W        W24395  17.402   6.850   5.650  0.0894 -0.4231  0.2101
 7922W        W24396   5.152   6.278   3.326  0.2957 -0.2773  0.0206
 7923W        W24397  14.077   0.312  13.413 -0.2395  0.0157 -0.5578
 7924W        W24398   8.293  15.742  13.060  0.2068  0.0248  0.2808
 7925W        W24399  16.953  13.470  14.158  0.0166  0.0990  0.1971
 7926W        W24400   4.765   4.189   0.635  0.1338  0.4334  0.0034
 7927W        W24401   0.047   1.486  15.606 -0.2211  0.0096  0.2914
 7928W        W24402   3.465   8.729  14.578 -0.0238  0.0747 -0.1210
 7929W        W24403   5.364   8.352  12.272  0.1945 -0.2427  0.2684
 7930W        W24404   3.049  18.294  13.712  0.3138 -0.2329  0.0134
 7931W        W24405   7.905   9.820   5.079  0.0639 -0.3932  0.0553
 7932W        W24406  16.961  17.320   1.260 -0.0543  0.0318 -0.0214
 7933W        W24407  16.018   8.577  15.592 -0.0069  0.0501 -0.0898
 7934W        W24408   7.521  15.020   1.629 -0.2744 -0.1456  0.1850
 7935W        W24409   7.246   5.272   5.433  0.1260  0.0030 -0.2445
 7936W        W24410   7.608   9.151  14.540 -0.1467  0.0174  0.2920
 7937W        W24411  18.519   4.321   1.988  0.2237 -0.1939  0.1832
 7938W        W24412   8.044  15.702   2.807  0.2704 -0.1094 -0.2026
 7939W        W24413  13.524  13.591   0.802 -0.3147  0.1441  0.0566
 7940W        W24414   4.611   5.653   3.847  0.0198 -0.0668  0.1163
 7941W        W24415   4.976  16.405   2.096  0.0236  0.1317 -0.4061
 7942W        W24416  12.813  18.059   3.345  0.1952  0.2845  0.2984
 7943W        W24417  15.412  14.235   0.877  0.1515  0.0080 -0.0558
 7944W        W24418  11.696   3.952   1.087  0.0893  0.1437  0.2268
 7945W        W24419  10.712   2.247  12.954  0.2087 -0.2147 -0.2241
 7946W        W24420  13.860  15.050   4.486  0.1632 -0.0063 -0.4208
 7947W        W24421  17.615   7.769  15.442  0.2781  0.1765 -0.0934
 7948W        W24422   5.501  10.339   5.280 -0.1941 -0.0401 -0.0709
 7949W        W24423   0.995   0.202  11.265 -0.0507  0.1247  0.0089
 7950W        W24424   3.733  12.431   3.579  0.1259  0.2331  0.0035
 7951W        W24425  11.204   8.448  15.500  0.0785  0.2522  0.0275
 7952W        W24426   8.372  12.450  11.730 -0.2913 -0.2236 -0.3248
 7953W        W24427   0.871   0.159  11.807 -0.0365  0.2070  0.0192
 7954W        W24428   3.693   7.151   3.098 -0.0637  0.0894  0.1771
 7955W        W24429  10.609   5.488   5.641  0.1177  0.1260  0.4560
 7956W        W24430   0.606   9.124  15.105  0.1833  0.0312  0.0819
 7957W        W24431  10.215  14.589  12.965  0.0907  0.0044  0.0424
 7958W        W24432   8.089  18.745   4.833 -0.2161 -0.0007 -0.2137
 7959W        W24433  13.085  13.461   5.517  0.1282  0.1178 -0.2220
 7960W        W24434  15.338   2.469  12.952  0.0613 -0.2052  0.0778
 7961W        W24435   2.755   7.283   1.455  0.2971 -0.2049  0.2414
 7962W        W24436   1.180   6.640  12.023 -0.2937 -0.0666  0.0721
 7963W        W24437   8.698   4.843   4.879  0.3443 -0.1090 -0.0308
 7964W        W24438  16.451  12.386   2.580  0.1654  0.4180  0.0415
 7965W        W24439   9.353  12.981   2.266 -0.0327  0.0657 -0.2463
 7966W        W24440   7.494  18.371   4.864  0.5448 -0.1355  0.0938
 7967W        W24441  13.517  10.647  12.619  0.0210 -0.2739 -0.4225
 7968W        W24442  17.529   1.548  11.684 -0.1686  0.0432  0.7429
 7969W        W24443  18.137  14.948  13.747 -0.3424  0.0426 -0.0080
 7970W        W24444  17.389  18.129  10.905 -0.0700 -0.0287  0.1643
 7971W        W24445  11.055  10.639  12.070  0.0538 -0.1471  0.0638
 7972W        W24446   5.011  11.573   5.228  0.1447  0.2841  0.0899
 7973W        W24447   4.975   7.132   3.533 -0.2305 -0.0525  0.1043
 7974W        W24448   2.364  11.816  15.556  0.1089  0.1086 -0.0582
 7975W        W24449  16.316  13.188  14.479  0.2005  0.2704  0.0608
 7976W        W24450   4.195   3.184  12.582 -0.2498  0.0820 -0.1649
 7977W        W24451   6.219  18.807   4.390 -0.0024 -0.1311 -0.1173
 7978W        W24452   5.428   6.708  15.661  0.1877  0.1259 -0.0526
 7979W        W24453   7.486   9.703   0.162 -0.3245 -0.0111  0.0411
 7980W        W24454  15.140  17.410  11.845  0.0909  0.0179 -0.1684
 7981W        W24455   2.992   4.826   2.974 -0.3904  0.4040 -0.0843
 7982W        W24456   4.089   3.534   4.429 -0.2048  0.1393  0.0586
 7983W        W24457  15.779  11.559   2.504 -0.2336 -0.3377  0.0793
 7984W        W24458   1.436  10.575   1.094  0.1677 -0.2172 -0.0599
 7985W        W24459   8.503   3.833   0.603 -0.2132  0.1466 -0.0453
 7986W        W24460  18.341   2.840   1.212 -0.0108  0.0841 -0.0415
 7987W        W24461   7.290   4.719   4.765  0.1111  0.0803 -0.2192
 7988W        W24462  15.722   7.317  10.779 -0.0642 -0.0867  0.3350
 7989W        W24463  10.103   4.838  10.900 -0.0410  0.1412 -0.1233
 7990W        W24464   8.400   0.346   1.929  0.1632 -0.0009  0.5405
 7991W        W24465   9.963  10.877   0.069 -0.0991  0.0687 -0.0988
 7992W        W24466   0.625  12.699  10.984 -0.1813 -0.0465  0.0855
 7993W        W24467  18.173  18.152   4.535  0.1066  0.3197  0.0985
 7994W        W24468   9.156   8.834   1.939  0.0394 -0.0402 -0.2394
 7995W        W24469   2.637  16.080   4.729 -0.0911  0.3489 -0.2830
 7996W        W24470  13.844  15.993   4.819  0.0538 -0.1682 -0.4302
 7997W        W24471  17.685   6.825  12.358  0.1635 -0.3750 -0.3870
 7998W        W24472   6.427   8.745   4.821 -0.3449  0.0661 -0.0184
 7999W        W24473   0.750   6.771   9.775 -0.0537  0.1249  0.2117
 8000W        W24474   9.786   6.054   4.947  0.2439  0.0393  0.1844
 8001W        W24475  13.437   7.920  11.037 -0.0361 -0.0477 -0.0422
 8002W        W24476   4.345   5.573  15.255 -0.2098  0.0330 -0.0662
 8003W        W24477  17.144  13.505  10.230 -0.2390  0.1656 -0.1255
 8004W        W24478   1.261  15.025  11.259  0.2292 -0.1413 -0.2056
 8005W        W24479  15.984   5.166  10.228 -0.1810  0.0776 -0.0220
 8006W        W24480  16.844  17.752   0.168  0.2276 -0.0987  0.2414
 8007W        W24481  12.017   1.698   1.865  0.2782  0.3425  0.1044
 8008W        W24482   3.580   6.428  12.605  0.0953  0.0014  0.2932
 8009W        W24483  12.465  17.929   3.019  0.0951  0.3327  0.0162
 8010W        W24484   0.875  13.176  12.819 -0.2053 -0.2560 -0.1294
 8011W        W24485  18.012  17.325   0.449  0.0308  0.2222  0.0106
 8012W        W24486  11.456  11.669   5.224  0.0443  0.1545  0.0332
 8013W        W24487  12.243  15.512   1.877  0.0849 -0.2094  0.3752
 8014W        W24488  17.090   2.852  13.450  0.1322 -0.0547  0.0774
 8015W        W24489   6.344  10.179  15.462 -0.2228 -0.1200  0.2682
 8016W        W24490   0.322  16.845  14.197 -0.1607  0.1594 -0.1031
 8017W        W24491   1.681   3.031  15.369  0.3061  0.2357  0.1131
 8018W        W24492   8.948   9.790  10.613 -0.0478 -0.2052 -0.0976
 8019W        W24493  11.368  11.703   0.625  0.1995 -0.0490 -0.2077
 8020W        W24494  15.891  17.729   5.502 -0.2409  0.2464 -0.0932
 8021W        W24495   6.381   9.593   4.260  0.0761 -0.0621 -0.2390
 8022W        W24496  11.027   1.115  15.190  0.4995 -0.3650 -0.0874
 8023W        W24497   9.019   9.572   3.282 -0.0759 -0.0507 -0.2518
 8024W        W24498  14.402  17.856   3.185  0.0563 -0.3476 -0.3512
 8025W        W24499   1.145  17.349   2.259 -0.0054 -0.0286 -0.1901
 8026W        W24500  18.458  18.228   4.900  0.0745 -0.0604 -0.1392
 8027W        W24501  12.300   8.654  12.908  0.2934  0.3737  0.1853
 8028W        W24502  14.144   0.758   5.208 -0.0853  0.2617  0.1600
 8029W        W24503   2.552   2.291   4.604  0.1166  0.0454 -0.2798
 8030W        W24504  13.220  17.334   2.240  0.5464  0.1609  0.0357
 8031W        W24505   9.383   9.800   2.361 -0.1854  0.0785 -0.2526
 8032W        W24506   1.162  18.833  10.836 -0.1179  0.1755 -0.1664
 8033W        W24507   6.317   9.950  14.984  0.0068  0.1846  0.0985
 8034W        W24508   4.893  17.773   0.288 -0.2536 -0.4453  0.2507
 8035W        W24509   6.610  13.112  13.642 -0.1349 -0.0396  0.2760
 8036W        W24510  10.776   4.363  11.395 -0.0676 -0.0555 -0.0507
 8037W        W24511  12.013   0.934  14.629  0.1504  0.2640 -0.2219
 8038W        W24512  17.988   0.247  10.247  0.2021  0.1008 -0.0517
 8039W        W24513   6.604   7.406  12.647 -0.0342 -0.1061  0.0725
 8040W        W24514   1.105  14.274  12.185 -0.1602  0.0212  0.0857
 8041W        W24515   6.913   1.106   4.758  0.2262 -0.1083  0.1485
 8042W        W24516  13.388   1.114  14.282 -0.2122 -0.0679 -0.1628
 8043W        W24517  10.714   8.133   5.737  0.1037  0.4619 -0.1309
 8044W        W24518   1.303   5.882  13.966 -0.0755  0.0432  0.0802
 8045W        W24519  12.631  10.319   4.714 -0.0243 -0.0113 -0.1111
 8046W        W24520  13.168  16.947  10.770 -0.0940 -0.0176  0.0577
 8047W        W24521   6.011   4.808  12.466 -0.0722 -0.2138 -0.2814
 8048W        W24522   9.618  18.265  14.172  0.0254 -0.2963  0.2792
 8049W        W24523  11.205   1.761   4.276  0.1047  0.1363 -0.1873
 8050W        W24524   0.482   6.819  11.444  0.0873  0.2085 -0.2570
 8051W        W24525   2.300   1.747   0.624 -0.1999  0.0438  0.1215
 8052W        W24526   4.975   8.497  11.348  0.0726 -0.0969  0.0422
 8053W        W24527  12.773  18.152   4.614 -0.0741 -0.1717 -0.1826
 8054W        W24528  14.631   5.956  15.657  0.0050  0.0200 -0.1756
 8055W        W24529   1.985  15.807  12.291 -0.0969 -0.0673 -0.0755
 8056W        W24530   9.269  13.148   0.817  0.5591 -0.0451 -0.1669
 8057W        W24531  17.308   8.613   2.488 -0.2536 -0.0827 -0.0539
 8058W        W24532   4.964   7.898  12.122 -0.1352 -0.0742 -0.0345
 8059W        W24533   2.514  14.743  14.146  0.1775  0.0583  0.1901
 8060W        W24534   2.514   1.815  12.921  0.0925  0.1911  0.4788
 8061W        W24535  14.037  10.003   4.116  0.2488 -0.0707 -0.1386
 8062W        W24536   9.570  12.112   2.736  0.3659  0.0318  0.3291
 8063W        W24537   7.654  11.769  11.509  0.0134  0.2445  0.0871
 8064W        W24538  11.050  16.957   3.797  0.2776  0.1370  0.0162
 8065W        W24539  14.165   8.844  13.673 -0.2872  0.3333  0.3748
 8066W        W24540   0.083  11.005  15.372 -0.0595 -0.3271 -0.0538
 8067W        W24541  15.788  16.077  13.348 -0.0003  0.2162 -0.0617
 8068W        W24542  17.757  18.560  11.455  0.0978  0.0509 -0.0113
 8069W        W24543   1.851   0.462   0.733 -0.1998 -0.2051  0.0850
 8070W        W24544  16.110   2.686   3.533  0.0310  0.1200  0.3485
 8071W        W24545   7.550  13.312   6.002 -0.2596  0.2698 -0.0275
 8072W        W24546   1.459  18.040  11.313  0.1256 -0.0486  0.3468
 8073W        W24547  15.245   4.762  15.010 -0.2047  0.0182  0.1076
 8074W        W24548  18.749  11.001   1.131  0.0990 -0.1742 -0.1472
 8075W        W24549   5.813  16.960   2.181  0.0256  0.1298 -0.2642
 8076W        W24550  16.577   9.849  14.047 -0.3792 -0.2164  0.1816
 8077W        W24551   0.718   0.452   0.581  0.0441  0.1117  0.0208
 8078W        W24552  14.761   6.897  13.016 -0.0821  0.2769  0.2240
 8079W        W24553   0.071   9.146  11.767  0.2580  0.3316 -0.3520
 8080W        W24554   7.214  12.909  14.095  0.6478  0.2370  0.1188
 8081W        W24555   2.396  10.924   2.723  0.1075 -0.2598  0.2413
 8082W        W24556   9.135  17.847  14.335  0.1808  0.1589 -0.0197
 8083W        W24557   8.030   6.912   3.597  0.0165  0.1049 -0.0389
 8084W        W24558  11.024   3.994  12.728  0.1597 -0.1464 -0.1375
 8085W        W24559   7.657   6.346  14.819 -0.4484 -0.3255 -0.2036
 8086W        W24560  11.628  10.706   1.983 -0.0042 -0.4551 -0.2369
 8087W        W24561  14.837   1.986  11.289 -0.1745 -0.2698  0.2653
 8088W        W24562   8.632  17.811   0.907  0.2700  0.0352  0.1095
 8089W        W24563   8.030  15.099  10.207 -0.1129 -0.1173  0.2375
 8090W        W24564  10.596  13.614  13.004  0.0396 -0.0343  0.0872
 8091W        W24565  12.073  12.932  14.973 -0.0030 -0.0228 -0.0744
 8092W        W24566  18.547  11.550   1.298 -0.2248  0.1959  0.1186
 8093W        W24567  16.257   9.023   4.025  0.2016 -0.0617 -0.3085
 8094W        W24568  15.434   1.937  14.596 -0.1991 -0.0425  0.0075
 8095W        W24569   5.525  10.950  11.467  0.3375 -0.1527 -0.2347
 8096W        W24570  17.918  12.485  15.499  0.0727 -0.0348  0.1057
 8097W        W24571   2.343   7.531   3.865  0.1672  0.0571  0.0294
 8098W        W24572   0.637   4.664   4.219  0.3418 -0.1563 -0.0136
 8099W        W24573  18.137   0.198   4.176  0.1096 -0.0709 -0.1372
 8100W        W24574  10.798  17.182  13.984 -0.4109  0.0131  0.1965
 8101W        W24575  15.186   6.700  10.881  0.2005  0.0748  0.1077
 8102W        W24576  14.711  17.247  12.584  0.0487  0.4645 -0.0555
 8103W        W24577   8.860   1.004  12.803  0.0045 -0.1251  0.2421
 8104W        W24578   3.663  12.042   5.762  0.2396 -0.0925 -0.3944
 8105W        W24579  17.513  15.092  10.501  0.0673 -0.2974 -0.0970
 8106W        W24580  16.491  11.938   2.088  0.2728 -0.2101  0.3023
 8107W        W24581  12.195   1.016   0.334 -0.1443 -0.2187  0.0823
 8108W        W24582  18.146  16.954  11.896 -0.2280 -0.0119 -0.0140
 8109W        W24583  15.542  12.725   9.794 -0.0658 -0.0771  0.1770
 8110W        W24584   4.659  12.214   3.992  0.2439  0.1378 -0.0501
 8111W        W24585  12.690   6.643   0.362 -0.2859 -0.1450  0.1329
 8112W        W24586  16.078   0.566   4.406 -0.0794 -0.0729 -0.0881
 8113W        W24587  13.556  17.709  15.162  0.1983  0.0216  0.1357
 8114W        W24588   2.197  11.090   0.431 -0.1429 -0.1256 -0.3337
 8115W        W24589  18.827   2.516   2.937 -0.0645  0.1889  0.0504
 8116W        W24590   9.401  18.138   4.898 -0.0668 -0.2347 -0.0931
 8117W        W24591  10.619   1.343  15.007 -0.0585  0.2963 -0.1193
 8118W        W24592  16.291   1.023   0.978 -0.1929 -0.0363  0.2486
 8119W        W24593  16.575  15.853   3.872 -0.1904 -0.0985  0.2986
 8120W        W24594   7.273   9.060   3.530 -0.1715  0.0852  0.1125
 8121W        W24595   8.475   0.225   5.448 -0.2235 -0.1587  0.1329
 8122W        W24596   6.623   1.390   0.189  0.0964  0.0202  0.3029
 8123W        W24597   3.047   0.279  12.468 -0.2289 -0.1204  0.1809
 8124W        W24598  10.661   0.416   2.857  0.2024 -0.0019  0.1511
 8125W        W24599   4.383   7.878   5.166  0.1706 -0.2568  0.0869
 8126W        W24600  18.714  11.991  12.250  0.2570  0.3297  0.0519
 8127W        W24601   8.045   1.744   1.314 -0.1214  0.2839  0.1025
 8128W        W24602  18.284   0.528   1.492 -0.0990  0.3171  0.2487
 8129W        W24603   3.478  13.357   0.677 -0.0529  0.1791  0.0752
 8130W        W24604  15.174  11.859  14.378 -0.1755  0.1926 -0.2405
 8131W        W24605  14.126  17.168  15.180 -0.0432  0.0308 -0.1770
 8132W        W24606   7.431  18.547   0.712 -0.2646 -0.1364  0.4163
 8133W        W24607  17.523   2.624   4.708  0.5617 -0.0389  0.2839
 8134W        W24608  16.755  14.906   4.219  0.3714  0.0058  0.0634
 8135W        W24609   1.549   7.187   1.879 -0.1975  0.2484 -0.3878
 8136W        W24610   2.923  17.543  10.799 -0.0647 -0.0880 -0.1850
 8137W        W24611   1.447  12.322   3.059 -0.1564  0.1560 -0.0878
 8138W        W24612   8.377  12.017   4.735 -0.3883  0.0539 -0.0802
 8139W        W24613   3.958  13.281   1.629 -0.0139  0.1982 -0.3273
 8140W        W24614   9.223   8.307  15.340  0.1768  0.3795  0.1851
 8141W        W24615   4.800  17.251   1.475 -0.0045 -0.0181  0.0112
 8142W        W24616  17.128  15.218   2.389  0.1803  0.2021  0.3032
 8143W        W24617   0.019  16.561   2.420  0.0456 -0.1199  0.0405
 8144W        W24618   7.574  10.282   5.900 -0.3033 -0.0460  0.0568
 8145W        W24619  12.024  10.523   1.677  0.2089  0.1753 -0.0853
 8146W        W24620  12.569   7.799   2.198  0.1234 -0.1226 -0.3494
 8147W        W24621  12.438   6.163  12.181 -0.0552  0.0412 -0.0020
 8148W        W24622   8.507  13.236   5.821  0.1812 -0.2061  0.1627
 8149W        W24623   0.569  14.959   5.047  0.1412 -0.0163 -0.3438
 8150W        W24624   5.147   9.387   3.394 -0.3076 -0.0433  0.0076
 8151W        W24625  14.754   5.436  13.562  0.0753  0.0742 -0.2040
 8152W        W24626  12.100   5.357  13.333  0.4612  0.1236  0.1096
 8153W        W24627   8.700  15.976  13.698  0.2142  0.1169 -0.0599
 8154W        W24628  11.980   0.970  11.745 -0.1101  0.0894 -0.1129
 8155W        W24629   4.469   4.975   2.685  0.1463  0.0342 -0.0197
 8156W        W24630  14.419   5.794   3.998 -0.0502 -0.1600 -0.0115
 8157W        W24631  16.359  18.038  13.664  0.0352  0.1957  0.3210
 8158W        W24632   4.927   1.935  13.951  0.0176  0.0579 -0.0950
 8159W        W24633   7.245   6.598   3.299  0.0046  0.2507 -0.3042
 8160W        W24634  15.236  14.004  11.717 -0.1566 -0.3393  0.5354
 8161W        W24635  12.384  18.764   2.855 -0.1737 -0.3230 -0.1170
 8162W        W24636   7.299   9.769   2.119 -0.2119 -0.3913  0.3551
 8163W        W24637  11.537   6.710   5.053 -0.0665  0.1112  0.3955
 8164W        W24638  13.662   9.901   4.693  0.0379  0.0360 -0.0512
 8165W        W24639   1.087   2.050   0.984 -0.1346  0.3644 -0.1051
 8166W        W24640   3.087  10.385  13.325 -0.2974  0.0854  0.2363
 8167W        W24641   8.057   4.793   4.303  0.0364 -0.2994  0.0016
 8168W        W24642  12.074  17.719  13.456 -0.0977  0.2072  0.2269
 8169W        W24643  13.652  14.550  13.532 -0.2126 -0.1967 -0.1833
 8170W        W24644  15.463   3.456   0.160  0.0325  0.4907 -0.3456
 8171W        W24645   3.868   9.669   4.923 -0.2760  0.3455 -0.1524
 8172W        W24646  11.390  12.975   5.902 -0.1668 -0.5147 -0.2354
 8173W        W24647  16.599  15.159   0.103  0.1191  0.1946  0.0930
 8174W        W24648   9.469   0.263  11.921 -0.0924  0.2419  0.0101
 8175W        W24649   5.632   4.681   2.553 -0.0860 -0.1614  0.0329
 8176W        W24650  13.229   0.244   3.499  0.2875 -0.2194  0.1670
 8177W        W24651  11.194  11.567  14.113  0.2026  0.1580 -0.2327
 8178W        W24652   3.868   3.169   0.504  0.0476  0.2515 -0.1264
 8179W        W24653  13.728  18.470   1.864  0.1392 -0.2142 -0.2233
 8180W        W24654   9.531  18.851   3.534 -0.0322  0.2755  0.3730
 8181W        W24655   8.175   9.507   4.099  0.0513  0.0447  0.0732
 8182W        W24656   5.017   0.621   1.760  0.0644  0.1298  0.0116
 8183W        W24657   2.567  10.077   0.564  0.1241 -0.2005  0.2386
 8184W        W24658  11.615   2.284   1.258 -0.2372 -0.2688  0.1420
 8185W        W24659   1.755  11.249  10.733 -0.0761  0.4175  0.1613
 8186W        W24660  16.392   8.875  14.206  0.3326  0.1739  0.0752
 8187W        W24661   4.936   2.385   1.941 -0.1837  0.0677  0.1513
 8188W        W24662  16.400   0.871   1.530  0.2182 -0.2365 -0.0231
 8189W        W24663  14.475   4.154   3.410  0.0446 -0.0590  0.0397
 8190W        W24664   0.491  10.437  15.166 -0.0908 -0.2264  0.1544
 8191W        W24665  11.198   0.032  13.909  0.2807  0.0672 -0.1088
 8192W        W24666   6.259  13.693   3.125 -0.2560  0.1082 -0.0611
 8193W        W24667   2.039   4.105  15.322  0.2213 -0.0120  0.4405
 8194W        W24668  16.286   2.234  11.335 -0.1103  0.1136  0.0340
 8195W        W24669   2.322   3.699  15.165  0.1895  0.2621  0.0064
 8196W        W24670   8.666  18.079   2.850  0.0202  0.0703 -0.2057
 8197W        W24671   5.991  12.115   3.889  0.2642 -0.0426  0.3017
 8198W        W24672   0.070   5.366  12.655 -0.2104  0.0791  0.0313
 8199W        W24673  17.745  17.436   3.809  0.1497 -0.2463  0.1832
 8200W        W24674  16.566  13.160  10.735 -0.1976 -0.2908  0.0606
 8201W        W24675  16.521  11.035   0.385 -0.0427  0.0615  0.1653
 8202W        W24676  15.606   1.248   0.704  0.6467 -0.0073  0.2481
 8203W        W24677   5.554   0.506  14.807 -0.3739 -0.0403 -0.2756
 8204W        W24678   6.773   3.108   4.880  0.2097  0.0099 -0.2482
 8205W        W24679   4.957   9.187   4.609 -0.0980 -0.2605 -0.1425
 8206W        W24680   5.772  13.130  13.807  0.0616 -0.4505 -0.0819
 8207W        W24681  17.426  15.597  10.492  0.0267  0.3050 -0.1169
 8208W        W24682  11.580   4.450   4.675  0.0109  0.2763 -0.1720
 8209W        W24683   2.845   3.009   0.644 -0.0077  0.0441  0.0565
 8210W        W24684  16.103  13.025   1.034 -0.1016 -0.0221 -0.0193
 8211W        W24685   7.286   4.847   3.858 -0.1111  0.1836 -0.1783
 8212W        W24686  16.455   3.425  10.762 -0.1485 -0.3231  0.0170
 8213W        W24687   5.806   7.180  13.824 -0.0934  0.0259 -0.1761
 8214W        W24688  11.517  13.818  15.356  0.0931 -0.0585  0.0114
 8215W        W24689  18.552  13.626  13.631 -0.2843  0.2163  0.0116
 8216W        W24690   5.923  14.079  14.920 -0.0346  0.0950  0.1966
 8217W        W24691  17.949  12.585  12.095 -0.2026 -0.4162 -0.0925
 8218W        W24692   1.079   0.602  11.629  0.1599  0.1899  0.2808
 8219W        W24693  15.383   8.993   2.875  0.0654  0.0149  0.4878
 8220W        W24694  16.942   1.576  14.410 -0.0752  0.3636 -0.4050
 8221W        W24695  12.705   7.374  14.764  0.1992 -0.2777 -0.2476
 8222W        W24696  15.056   7.708   4.646  0.3875  0.0102 -0.4221
 8223W        W24697   5.249  13.126  10.316  0.1490 -0.0583 -0.0759
 8224W        W24698   5.993  18.368   3.176 -0.1445  0.1619  0.1914
 8225W        W24699   0.565  18.467   2.029 -0.2823 -0.0766  0.0254
 8226W        W24700  11.877   7.417   0.466  0.0199 -0.0087  0.0076
 8227W        W24701   9.953   5.314   2.725  0.0338  0.0423 -0.0791
 8228W        W24702   0.611  15.591  13.864 -0.1344  0.0428  0.0042
 8229W        W24703   1.945   1.593  13.551  0.0575  0.0678  0.0781
 8230W        W24704   0.084  14.747  15.244 -0.3726 -0.1469  0.1413
 8231W        W24705  17.032   9.008  10.215  0.0501  0.0798  0.1279
 8232W        W24706  11.380   0.189  15.129 -0.2532 -0.0026 -0.0539
 8233W        W24707  18.721   5.867   0.063 -0.1163  0.3326 -0.0020
 8234W        W24708   8.332   7.058  15.445  0.2206 -0.0592  0.1187
 8235W        W24709  10.162   2.641  10.890 -0.4044 -0.0680  0.0324
 8236W        W24710   6.665   3.882  15.065  0.1426 -0.4354 -0.1423
 8237W        W24711  18.014  11.548  12.092  0.1227 -0.4645 -0.2047
 8238W        W24712  13.173   6.863   5.753 -0.1324  0.0981 -0.1608
 8239W        W24713  12.215   2.666  12.064 -0.1556  0.1133 -0.3098
 8240W        W24714  12.001  14.481  15.686  0.2237 -0.0451 -0.1145
 8241W        W24715  12.510   7.423  15.320  0.1038 -0.1864  0.1400
 8242W        W24716  10.052   4.834  15.259 -0.4134 -0.0242 -0.0122
 8243W        W24717  18.483  13.833   1.768  0.1827 -0.1134  0.0130
 8244W        W24718   5.389   5.950   2.095 -0.0816 -0.0713  0.2749
 8245W        W24719  16.750  13.731   4.094 -0.0071 -0.3670  0.0835
 8246W        W24720   8.684   2.133   2.382 -0.0982  0.2336  0.0505
 8247W        W24721  14.698  14.802  14.994 -0.0056  0.2357 -0.0052
 8248W        W24722   7.393  17.304  13.383 -0.0755 -0.1464 -0.1515
 8249W        W24723   9.271   4.429  12.616 -0.2262 -0.1071 -0.2208
 8250W        W24724   5.956   1.366  13.222  0.2830  0.1684 -0.1064
 8251W        W24725  14.425  15.973   3.358 -0.2140 -0.2779  0.0317
 8252W        W24726  18.556  14.665  12.385  0.2240 -0.1106  0.0801
 8253W        W24727  17.717  16.860  10.955 -0.2106 -0.0627  0.1255
 8254W        W24728  13.096   4.351  15.675  0.0641  0.1857  0.1287
 8255W        W24729   6.414  17.184  11.454  0.0557 -0.0920 -0.1396
 8256W        W24730   0.862   5.425  11.517  0.1256  0.0887  0.0079
 8257W        W24731   7.765  17.900   4.286  0.1977 -0.1617  0.1166
 8258W        W24732   5.067   2.287  12.843  0.1686 -0.1340  0.0881
 8259W        W24733  18.124   8.159   2.442  0.0473 -0.3742 -0.2725
 8260W        W24734  14.810  11.951  13.840  0.2181  0.0606 -0.0057
 8261W        W24735  18.341  10.338  10.156  0.1591 -0.2375 -0.3214
 8262W        W24736   4.090   9.416   4.427 -0.0466 -0.1989  0.2197
 8263W        W24737   8.743   3.429   2.178 -0.0309 -0.1165 -0.0439
 8264W        W24738  18.797  11.368   4.028  0.0555  0.0189 -0.0396
 8265W        W24739   8.153  14.759   4.084  0.0541 -0.0240 -0.3125
 8266W        W24740   7.811  14.127   5.344 -0.1273 -0.2230  0.0922
 8267W        W24741  18.819  14.848  14.703 -0.1262  0.0397 -0.0010
 8268W        W24742   3.584   8.054   2.997 -0.1996 -0.0772  0.0578
 8269W        W24743   5.673  13.540   3.959 -0.4148  0.0008 -0.0512
 8270W        W24744  13.605   6.715  13.205  0.1947  0.2414 -0.0356
 8271W        W24745  16.372   3.987  10.573 -0.0347 -0.1456  0.1089
 8272W        W24746  18.045  13.936   1.544 -0.3138 -0.2476  0.1171
 8273W        W24747   7.828   7.789   2.880  0.1302  0.2050  0.0490
 8274W        W24748  11.702   9.795   4.014 -0.4206 -0.1225 -0.1534
 8275W        W24749  14.596   1.416   0.623 -0.1473  0.1017 -0.2537
 8276W        W24750   2.676  12.844  11.014  0.1619 -0.0725  0.0756
 8277W        W24751   9.470   8.418   3.000  0.0991  0.1843  0.0449
 8278W        W24752   9.934   6.765   5.296 -0.1124  0.0414 -0.1799
 8279W        W24753  15.770   9.226   5.520  0.1027 -0.0397  0.3317
 8280W        W24754   8.679  14.545  12.378  0.0722  0.0097 -0.2024
 8281W        W24755   5.455  14.759   2.940  0.0242 -0.1889 -0.0371
 8282W        W24756   9.783   4.853   0.690  0.1550  0.0144  0.4003
 8283W        W24757   6.970  16.810   3.789 -0.0759 -0.2107 -0.0522
 8284W        W24758  13.340   4.118  11.102  0.2272  0.2438  0.1411
 8285W        W24759   0.955   9.284  15.381 -0.2496  0.1706 -0.1197
 8286W        W24760   2.950   1.732  13.225 -0.3060 -0.1885 -0.0610
 8287W        W24761   4.047  12.970   3.421 -0.1190  0.2583  0.0069
 8288W        W24762  17.368  11.159  13.795 -0.4413  0.0895 -0.0169
 8289W        W24763   3.309  16.225   0.858  0.2415  0.1612 -0.0289
 8290W        W24764   6.689  17.113   2.507  0.4143  0.2238 -0.0965
 8291W        W24765  13.022  18.139   2.811 -0.3497 -0.1422 -0.0738
 8292W        W24766  12.684   4.304   0.238  0.0125  0.2410  0.1433
 8293W        W24767  10.780   8.347   3.293  0.0358  0.2091  0.1117
 8294W        W24768   4.153   9.560  11.644  0.2025  0.0854 -0.1945
 8295W        W24769  10.541  15.895  11.990 -0.2855  0.2139 -0.1270
 8296W        W24770   1.384   8.346   2.635 -0.0437  0.2764  0.0711
 8297W        W24771   0.265   8.103   3.027 -0.1391  0.0835 -0.1016
 8298W        W24772  15.520  16.912  13.667 -0.0784 -0.0287 -0.0593
 8299W        W24773   5.380  17.508  14.251 -0.4972  0.1782 -0.1429
 8300W        W24774   4.799   6.898   0.121 -0.0112  0.0977 -0.1646
 8301W        W24775  14.978   7.995   3.958 -0.0187 -0.2532 -0.3860
 8302W        W24776   5.711  15.628  14.229  0.1311  0.2823  0.0670
 8303W        W24777   8.927  11.188   2.389  0.3131 -0.0326  0.0755
 8304W        W24778   5.964   3.736   1.760  0.4439 -0.0064  0.0973
 8305W        W24779   7.556   7.341  15.017  0.0242 -0.2446  0.0998
 8306W        W24780   3.229  13.925   4.030 -0.4631  0.3747 -0.0440
 8307W        W24781   9.556   6.986   1.471 -0.1904 -0.1206 -0.1674
 8308W        W24782   8.141  12.314  11.045 -0.1958 -0.0556  0.0517
 8309W        W24783  14.921   6.379   0.233  0.0832 -0.3651  0.2280
 8310W        W24784  17.674   1.568   2.625 -0.0127  0.0895  0.3725
 8311W        W24785   2.866  13.227  10.626 -0.1130 -0.0147  0.2115
 8312W        W24786  17.926  17.099  14.940 -0.1648 -0.0018  0.0007
 8313W        W24787   8.546  10.451   1.373 -0.2617  0.0732  0.2616
 8314W        W24788   5.249  17.853  12.876  0.1840  0.1357  0.1219
 8315W        W24789   1.954   5.283   2.386 -0.5088  0.0431  0.0374
 8316W        W24790   1.252  13.286   4.387  0.2002 -0.2224  0.0388
 8317W        W24791   3.049  15.238  15.219  0.0078  0.1162  0.0625
 8318W        W24792  17.420   8.783   1.199 -0.0511 -0.0020  0.0519
 8319W        W24793   2.823   6.855   4.143  0.0168  0.2729 -0.0357
 8320W        W24794   7.629   3.402   1.616 -0.0427 -0.2931 -0.1053
 8321W        W24795   8.986  15.282  11.621 -0.1518  0.0695  0.2794
 8322W        W24796  11.994   4.270  13.895  0.3786  0.0513  0.2237
 8323W        W24797  11.763   6.166  14.994 -0.2854  0.0410 -0.2229
 8324W        W24798   4.013   2.109   3.945  0.0156  0.0834 -0.0583
 8325W        W24799  12.542   1.213  13.112 -0.0227 -0.2075 -0.0934
 8326W        W24800  14.119  15.225   3.306  0.0035  0.2385  0.0448
 8327W        W24801  16.792   3.605  12.709  0.0059  0.2611  0.1055
 8328W        W24802   6.251   0.906  15.139 -0.0264 -0.0521  0.2154
 8329W        W24803  17.168  17.797   2.701 -0.0900 -0.1837 -0.2528
 8330W        W24804  16.011  13.407   1.900  0.1063 -0.2134  0.1864
 8331W        W24805   9.197  14.424  12.282 -0.0577 -0.1296 -0.0110
 8332W        W24806   0.823   6.008  10.913  0.1447 -0.0086  0.2918
 8333W        W24807  16.137   5.801  15.429  0.3415  0.0611 -0.2376
 8334W        W24808  11.321  16.709   5.282 -0.0045  0.0897  0.0460
 8335W        W24809   7.847  13.181   1.718  0.1770 -0.1223  0.1903
 8336W        W24810  15.841   4.950   0.947  0.0271  0.2840  0.0122
 8337W        W24811   5.772  16.039   5.477 -0.1112  0.0034  0.1871
 8338W        W24812  18.049  18.829   3.754 -0.0431 -0.2146  0.1661
 8339W        W24813  16.711  15.865   0.271  0.0592 -0.0933  0.3681
 8340W        W24814   8.069   9.054  14.334 -0.3434 -0.2541  0.0704
 8341W        W24815  13.238  18.466   0.058  0.3878 -0.3927 -0.2165
 8342W        W24816   2.167  18.019  12.281 -0.0833  0.0390  0.0312
 8343W        W24817   3.460  10.761   1.810  0.1106  0.2313  0.0010
 8344W        W24818   2.477  11.943   3.069  0.0804  0.1393  0.0449
 8345W        W24819  18.160  16.567  12.874  0.0217 -0.1610 -0.0211
 8346W        W24820   6.035   1.867  15.176  0.3170 -0.5673  0.0299
 8347W        W24821   2.354  10.040  13.381 -0.0607  0.2410 -0.0799
 8348W        W24822   7.780  15.658   3.262  0.1751  0.0430  0.0577
 8349W        W24823   9.544  11.131   1.106 -0.0401  0.0639 -0.0026
 8350W        W24824   7.912   9.043   5.609  0.0501  0.2022  0.0741
 8351W        W24825   9.704   0.698   2.736  0.0950 -0.1661 -0.0521
 8352W        W24826   5.659   3.947  13.925  0.0029  0.0035 -0.0163
 8353W        W24827   2.746  10.055   1.220 -0.1111  0.2268 -0.0244
 8354W        W24828   2.569   3.322  13.148 -0.0247 -0.0114  0.0740
 8355W        W24829  18.307  10.562   3.558 -0.1449  0.1754 -0.1609
 8356W        W24830  17.483   1.256  15.162 -0.0824  0.2050  0.0723
 8357W        W24831   9.751  17.599  11.745  0.1056  0.0059 -0.0004
 8358W        W24832   5.782   2.653   0.742  0.3577  0.3641  0.2566
 8359W        W24833   8.189  15.894   3.241  0.0043 -0.0440 -0.0822
 8360W        W24834   0.569  18.361  12.231 -0.1696  0.4492  0.2786
 8361W        W24835   3.133   6.752  11.312 -0.2155  0.2504 -0.1920
 8362W        W24836   2.260   7.143   4.926  0.0421 -0.2447 -0.0082
 8363W        W24837  15.003  14.131   0.585  0.2762 -0.2746  0.2092
 8364W        W24838   1.681  10.619  13.716 -0.0208 -0.0967  0.0575
 8365W        W24839   6.678   3.988   4.687  0.3157 -0.1617  0.1295
 8366W        W24840   5.785   8.828   4.135 -0.0661  0.2336 -0.1811
 8367W        W24841   1.055  16.935   0.983 -0.1730  0.1810  0.0908
 8368W        W24842   9.056   7.564   0.924 -0.1061  0.3023  0.2168
 8369W        W24843   5.840   4.666  14.911  0.0803  0.0292  0.1316
 8370W        W24844  18.047  14.769   3.779 -0.2317 -0.0264 -0.1203
 8371W        W24845   2.612   7.934   1.538 -0.3038  0.0061  0.1446
 8372W        W24846  13.116   5.794   3.458 -0.0578  0.2866  0.1223
 8373W        W24847  11.774  15.999   1.372 -0.0328  0.1074  0.1780
 8374W        W24848   6.071  11.168   3.655 -0.1692 -0.0604 -0.3983
 8375W        W24849   1.313  17.817   2.280 -0.0072 -0.3318  0.4275
 8376W        W24850  16.288   2.135  10.582 -0.0261 -0.2816 -0.3360
 8377W        W24851   2.574  10.763  14.876  0.0318 -0.1096 -0.0053
 8378W        W24852  12.291  16.913  14.766 -0.3205 -0.0308 -0.2812
 8379W        W24853  15.978   3.663   1.184  0.0702  0.0543  0.0782
 8380W        W24854  17.293   3.547   3.472  0.0619  0.1146 -0.3068
 8381W        W24855  16.333  12.454  12.536  0.1052  0.2596  0.0540
 8382W        W24856   3.581   6.552  14.209  0.0468 -0.2648 -0.1322
 8383W        W24857  16.749  17.952   1.735 -0.2885  0.1612  0.1088
 8384W        W24858  12.536   6.831   2.444 -0.0226  0.1143 -0.2234
 8385W        W24859   4.677   4.365   2.261  0.1058  0.1986 -0.2029
 8386W        W24860   4.311   6.126   3.623 -0.1098  0.0740 -0.1508
 8387W        W24861   7.065  12.593   5.843  0.0268  0.0259 -0.0062
 8388W        W24862  13.805   7.400   0.309 -0.1424  0.0654  0.0508
 8389W        W24863  16.220  18.595   2.131 -0.2126  0.2040  0.2473
 8390W        W24864  14.362  13.744   4.239  0.1296  0.0189  0.1166
 8391W        W24865  14.055   2.872  10.445 -0.0820 -0.0918 -0.0169
 8392W        W24866   3.409  11.039  12.226  0.0638 -0.3794  0.0951
 8393W        W24867  17.562   4.137  15.129  0.0287  0.1183 -0.1676
 8394W        W24868   7.203   5.695   0.498  0.1075 -0.2628  0.0026
 8395W        W24869   8.864   6.680   1.972 -0.2322 -0.1166  0.1399
 8396W        W24870   5.114   2.972   3.379  0.1177  0.0618 -0.0158
 8397W        W24871   2.484   8.794  11.708  0.0662  0.0935 -0.0335
 8398W        W24872   0.325   6.339   3.370 -0.0065 -0.2786 -0.1964
 8399W        W24873  12.036   5.611   3.573  0.2483 -0.1682  0.2772
 8400W        W24874  18.494   0.080  12.890  0.3113 -0.1335 -0.1171
 8401W        W24875   6.683   7.795   4.841  0.2378  0.0293 -0.2074
 8402W        W24876   4.328   4.319  13.993 -0.3222 -0.3167 -0.3239
 8403W        W24877   1.301   6.364   3.141 -0.1038  0.3073 -0.2182
 8404W        W24878   1.276   0.309   4.299  0.3213 -0.2787 -0.0077
 8405W        W24879  11.985   8.813  15.671 -0.1050 -0.0181  0.0223
 8406W        W24880  16.843   4.392   4.824  0.1217 -0.3560 -0.1984
 8407W        W24881   1.918  11.786  10.795 -0.2144  0.2198  0.0790
 8408W        W24882   2.376   2.768   4.170 -0.1523  0.2036  0.0007
 8409W        W24883   9.230  11.270  14.498  0.1499 -0.0229 -0.1060
 8410W        W24884   2.858  16.518   2.967  0.1802  0.1898 -0.2343
 8411W        W24885  11.679  15.395   4.628 -0.3307 -0.1882  0.2577
 8412W        W24886   8.657  10.489   3.631  0.2901 -0.2388  0.2028
 8413W        W24887  11.294  11.624  15.313 -0.0149  0.1946  0.0577
 8414W        W24888  11.892  15.992  11.629 -0.0125 -0.2678  0.3336
 8415W        W24889   8.441  14.187  14.395 -0.1341 -0.2128  0.0579
 8416W        W24890   3.698   6.522   2.867  0.0335 -0.0827 -0.2451
 8417W        W24891   2.742  12.345   0.415 -0.1611  0.1498 -0.1760
 8418W        W24892  14.541   9.183  11.353 -0.2135  0.1401  0.1475
 8419W        W24893   8.502   4.046  13.754 -0.4826 -0.0917 -0.3976
 8420W        W24894  14.899   2.818   1.784  0.3046 -0.0625 -0.0284
 8421W        W24895  12.575   8.509   1.749  0.0911 -0.3027  0.0421
 8422W        W24896   8.781   7.929  12.413  0.1691 -0.1002 -0.1822
 8423W        W24897  11.883  10.331  12.380 -0.1474 -0.1047  0.0396
 8424W        W24898  10.271  15.265   0.743 -0.3560 -0.3198  0.5623
 8425W        W24899   8.848  18.527  14.235  0.2340  0.1183 -0.1322
 8426W        W24900   2.417  15.564   4.834 -0.2256 -0.2770 -0.1086
 8427W        W24901   7.628   7.244   3.661 -0.1942  0.2808 -0.1199
 8428W        W24902   0.723   6.268   0.297  0.0839  0.1692 -0.0944
 8429W        W24903  13.055  18.218  13.891 -0.0976  0.3298 -0.0576
 8430W        W24904  13.964  10.237  15.053  0.0416 -0.0412 -0.1025
 8431W        W24905   0.674  13.584  13.596 -0.1787 -0.0663  0.0264
 8432W        W24906  11.972  11.650   4.920  0.0186  0.2310  0.1309
 8433W        W24907  17.430  12.830  13.961  0.0143  0.2681 -0.0753
 8434W        W24908  11.460   4.889  12.444 -0.2774 -0.1896 -0.2795
 8435W        W24909  13.519  14.772  14.008 -0.2247  0.0017 -0.0075
 8436W        W24910  13.425   9.250  15.343 -0.2065 -0.0332 -0.1023
 8437W        W24911   4.421   3.823   1.009 -0.1902 -0.0651  0.3065
 8438W        W24912  10.495  14.824   1.957  0.0416 -0.0329 -0.3100
 8439W        W24913   6.547  10.883  11.511 -0.1879 -0.0415 -0.2491
 8440W        W24914  15.262   3.832  11.632  0.1023  0.1703  0.1542
 8441W        W24915   9.381   0.843   1.210 -0.1385  0.1250  0.1101
 8442W        W24916   6.985  16.329   3.967 -0.3972 -0.0472 -0.3020
 8443W        W24917  13.092  11.873   3.234  0.5257  0.3184  0.2649
 8444W        W24918   1.406   9.600   1.307 -0.0559 -0.2482 -0.0172
 8445W        W24919  14.193  16.573   1.225  0.2246  0.1179  0.1985
 8446W        W24920  10.582   5.233  12.206 -0.0063 -0.2339  0.2212
 8447W        W24921   5.498  16.730   0.332 -0.1989 -0.3924 -0.0839
 8448W        W24922   1.069  12.127  11.421  0.1939  0.0068  0.2083
 8449W        W24923   9.031  15.052  12.985  0.2049  0.2854  0.1392
 8450W        W24924   1.516  16.576  11.151 -0.0397 -0.1469 -0.1965
 8451W        W24925  14.800   3.341   3.860 -0.1857  0.2224  0.4250
 8452W        W24926  11.905   4.918  12.075  0.2510  0.1113 -0.2274
 8453W        W24927  15.665  11.729   0.317 -0.0801  0.1763  0.1307
 8454W        W24928  11.969   3.750   0.304  0.0166  0.0305 -0.2880
 8455W        W24929   8.388  10.460   0.388 -0.0253 -0.4082 -0.1366
 8456W        W24930  12.150   5.363  11.077 -0.0918  0.0267  0.2271
 8457W        W24931   2.287  13.852   3.070  0.2608 -0.2577  0.0312
 8458W        W24932   1.227   5.710   3.010 -0.1761  0.1142 -0.2700
 8459W        W24933   9.845   1.035  11.413 -0.1126 -0.1893  0.0545
 8460W        W24934   4.268   7.631   0.597  0.3096 -0.0340 -0.0912
 8461W        W24935   5.877   5.036   1.772 -0.1104  0.0804 -0.1532
 8462W        W24936  17.028   2.173  14.564 -0.3042  0.0545  0.1109
 8463W        W24937  13.788   7.896  12.516 -0.3296  0.2914  0.1157
 8464W        W24938  16.406   5.059  12.556  0.0086  0.4408 -0.1202
 8465W        W24939   9.357  11.708  14.173 -0.0360 -0.3265 -0.1943
 8466W        W24940   6.112   5.178  15.662  0.0941  0.0636  0.1213
 8467W        W24941  18.076  16.939   0.801  0.2298 -0.1998  0.1101
 8468W        W24942  11.646   3.827   4.641 -0.1547 -0.1387  0.0930
 8469W        W24943   5.938   5.078   3.267  0.0616  0.3489 -0.0243
 8470W        W24944   8.615  12.503  11.059  0.0966  0.1375  0.0123
 8471W        W24945  12.799   7.779  14.568  0.1688  0.1096 -0.2089
 8472W        W24946   5.892   7.314  14.708 -0.0636 -0.0298 -0.4496
 8473W        W24947   2.394  12.754   1.236  0.3149  0.2838 -0.1488
 8474W        W24948  11.012  13.997  13.121  0.0072 -0.2264  0.1939
 8475W        W24949   9.543   5.902   3.916  0.2293 -0.1702 -0.4707
 8476W        W24950   2.545   3.091  13.638  0.0653 -0.0092  0.3341
 8477W        W24951   1.267   4.191  13.063  0.1794  0.2324 -0.2830
 8478W        W24952  12.594   9.549  14.867 -0.1794 -0.1814 -0.0739
 8479W        W24953   4.103   1.057  12.040 -0.2581  0.0652 -0.0112
 8480W        W24954  16.003  18.787   4.405 -0.0755 -0.1190  0.2922
 8481W        W24955   3.442   5.216   2.840 -0.0363 -0.0265 -0.2962
 8482W        W24956   7.319   3.550  14.402 -0.1950 -0.1524 -0.0761
 8483W        W24957  13.032   0.153   4.831 -0.2481  0.0301  0.0800
 8484W        W24958   2.815   4.809  13.077  0.0273  0.1959  0.2288
 8485W        W24959   3.430   7.581   3.189  0.3544 -0.1732  0.1768
 8486W        W24960  11.956  13.196  14.418  0.3321  0.2609 -0.3232
 8487W        W24961  10.007   9.667  12.697  0.1499  0.3528 -0.0973
 8488W        W24962   0.883   1.641   0.223 -0.0643  0.1776  0.1393
 8489W        W24963   7.220   8.414   2.916  0.1271  0.2469 -0.0295
 8490W        W24964  13.663   8.297   2.707  0.4788 -0.1719 -0.1709
 8491W        W24965   3.050  17.863   0.351  0.2200  0.0627  0.0374
 8492W        W24966  18.379  13.427  13.124  0.2816 -0.0180  0.2745
 8493W        W24967   6.706  18.807   5.379 -0.1497 -0.0239  0.2256
 8494W        W24968   0.886   4.962  15.410  0.0446 -0.2634  0.4754
 8495W        W24969   7.211   2.202  12.124 -0.2593  0.0434  0.0411
 8496W        W24970   1.722  14.352  13.047  0.0212  0.0673 -0.2783
 8497W        W24971   7.444   4.975   4.328  0.0245 -0.0640  0.4906
 8498W        W24972  16.055   8.374   2.626  0.0801 -0.1842 -0.2510
 8499W        W24973  12.518  12.414  12.802  0.1665 -0.1468 -0.0011
 8500W        W24974  14.833  16.278   5.272  0.1241  0.0878 -0.0617
 8501W        W24975   2.093   7.402  10.980 -0.2061 -0.2451 -0.2205
 8502W        W24976   6.064   2.775   3.755 -0.2488 -0.0027 -0.3728
 8503W        W24977  13.197  12.085  13.386 -0.0265 -0.2082  0.1334
 8504W        W24978   7.364  11.752  14.667 -0.1937  0.3614  0.0640
 8505W        W24979  15.823   9.780   1.748  0.0816  0.0003 -0.1711
 8506W        W24980   3.210   2.739   1.827  0.2647  0.0604 -0.2960
 8507W        W24981   7.190  15.296  14.688 -0.0023  0.4131 -0.3966
 8508W        W24982   6.467   1.856   5.705 -0.4332 -0.1578 -0.0357
 8509W        W24983   5.828   2.985  12.318  0.2189 -0.0286 -0.0617
 8510W        W24984   8.375   0.897  12.234  0.2237  0.1307  0.1683
 8511W        W24985  12.916   7.611  15.106  0.0586 -0.0161  0.0609
 8512W        W24986  14.814  13.815   4.061 -0.0293  0.2151  0.2250
 8513W        W24987   3.606   1.840   4.038 -0.2588 -0.2096 -0.1443
 8514W        W24988   2.118   5.033   3.313 -0.1331 -0.0178 -0.1511
 8515W        W24989   8.119   1.473   2.145  0.0636  0.0299 -0.0417
 8516W        W24990   3.706   2.304  13.930  0.2296 -0.2011 -0.0200
 8517W        W24991   2.913  12.584  15.520  0.0511 -0.3951  0.1103
 8518W        W24992   3.357   9.040  15.540  0.1826 -0.0371 -0.2033
 8519W        W24993  15.944   5.049   1.792 -0.4853 -0.2010  0.0026
 8520W        W24994   8.097  14.281  11.170  0.3187 -0.4815 -0.0546
 8521W        W24995  18.674  13.797   2.409 -0.1539 -0.0620  0.2176
 8522W        W24996   4.699   5.382  13.883  0.0560 -0.1294  0.5333
 8523W        W24997   5.032   5.442   0.561  0.3812 -0.3401 -0.0038
 8524W        W24998  14.477   9.976   1.884  0.0219 -0.2090  0.0531
 8525W        W24999   1.662   6.554   1.664 -0.0893 -0.0240 -0.2660
 8526W        W25000  11.780  12.327  12.486  0.2408 -0.2113  0.2275
 8527W        W25001   7.115   3.387   1.820 -0.3682 -0.2274 -0.0524
 8528W        W25002  12.071  11.486   2.200  0.1649  0.1053  0.1566
 8529W        W25003  11.851   3.976   5.982  0.0615 -0.2534 -0.0502
 8530W        W25004   9.170   6.660   0.763 -0.2193  0.2298 -0.0061
 8531W        W25005   3.374  13.779  14.103 -0.1509  0.0150 -0.2668
 8532W        W25006   6.182   0.339   4.987  0.1555 -0.2832 -0.0222
 8533W        W25007   9.156  15.058   5.870 -0.1437  0.0997  0.3209
 8534W        W25008  11.016   8.452   2.304 -0.0596  0.1781 -0.0575
 8535W        W25009   1.050   5.285   2.053  0.2926 -0.1418 -0.4770
 8536W        W25010  15.781  18.760   2.257 -0.1302 -0.3631  0.3310
 8537W        W25011  12.100   5.101  12.899 -0.1078  0.1765  0.0932
 8538W        W25012  12.766   1.831   2.877 -0.1351 -0.2415  0.0819
 8539W        W25013  17.495  16.184   1.946  0.2259  0.2392 -0.1034
 8540W        W25014   2.402   0.967  15.235  0.0658 -0.0525 -0.0158
 8541W        W25015  12.104   4.146  10.107  0.1564 -0.1102 -0.1295
 8542W        W25016  17.441   7.234  12.221 -0.1797 -0.2551 -0.1863
 8543W        W25017   5.758  15.570   1.881 -0.0374  0.1010 -0.1081
 8544W        W25018   3.884   6.623   1.897  0.0797 -0.1237 -0.0970
 8545W        W25019  17.367   0.846   2.550 -0.1240 -0.3049  0.1134
 8546W        W25020   4.717   7.822  14.404 -0.1691 -0.2106 -0.0231
 8547W        W25021  16.091  18.221   0.751 -0.1353 -0.1631 -0.0616
 8548W        W25022  17.789   1.520  10.802 -0.0821 -0.0572 -0.0665
 8549W        W25023   6.456   1.915   4.193  0.1313 -0.3124  0.1510
 8550W        W25024   2.645  16.404  14.296  0.1097  0.2179 -0.0175
 8551W        W25025  16.702   6.827   9.728  0.1985  0.3080  0.0608
 8552W        W25026   5.424   4.877  13.045  0.1507 -0.3673 -0.0330
 8553W        W25027  18.366  18.554   2.803 -0.1402  0.0001 -0.1921
 8554W        W25028   2.326  14.400   1.892 -0.0491  0.0868 -0.1376
 8555W        W25029  17.768   3.816   1.989  0.1009 -0.0680  0.2349
 8556W        W25030  15.714   8.892  14.134 -0.0712  0.2128  0.1116
 8557W        W25031   2.722  15.385  11.710  0.1145 -0.0403 -0.1527
 8558W        W25032  11.049   7.114  12.596 -0.2850 -0.1295  0.4729
 8559W        W25033  11.251   5.247   4.521  0.0600  0.1971  0.1002
 8560W        W25034   1.118   3.939   1.480  0.4303 -0.1647 -0.3010
 8561W        W25035  11.780  17.003  10.611 -0.3634  0.0515 -0.1095
 8562W        W25036  18.442  16.353  10.812  0.1710  0.1750 -0.0140
 8563W        W25037  13.487   3.604  14.311 -0.2950 -0.0775  0.0638
 8564W        W25038   1.453  15.806   5.486  0.0332 -0.1064 -0.0411
 8565W        W25039  10.058  18.566  12.877  0.0573  0.1160 -0.2266
 8566W        W25040  12.348   9.132   0.914  0.1701  0.0364 -0.0824
 8567W        W25041   6.807   1.746  11.411 -0.0717  0.2851 -0.2796
 8568W        W25042   0.736   2.796  13.296  0.2542 -0.2772 -0.0750
 8569W        W25043  15.596   8.944  11.217 -0.0285  0.0557 -0.0702
 8570W        W25044  14.925  13.997   4.944  0.0353 -0.0291  0.0605
 8571W        W25045  10.194  14.341   0.283  0.3648  0.0624  0.0407
 8572W        W25046   7.267   7.570   3.656  0.0077 -0.4562  0.0846
 8573W        W25047  12.000   2.751   3.822  0.4452 -0.0060 -0.4160
 8574W        W25048   3.287  11.675  10.985 -0.0315 -0.0873 -0.1939
 8575W        W25049  12.302  17.014  11.505 -0.2181  0.1062  0.0278
 8576W        W25050   4.692   4.576  13.740 -0.2329  0.0775 -0.3204
 8577W        W25051  13.836   4.557   1.514 -0.1271 -0.1275 -0.0342
 8578W        W25052   3.679   3.552   3.403 -0.0775 -0.3373 -0.3754
 8579W        W25053   1.420  14.509   5.923  0.0864 -0.2110  0.0033
 8580W        W25054  12.460   4.595   4.343  0.1447 -0.1317  0.0233
 8581W        W25055  16.696   2.968   4.596  0.0737  0.2743  0.1685
 8582W        W25056   1.158   1.123  15.181 -0.1240  0.1740 -0.4169
 8583W        W25057  14.828  17.948  14.102  0.2902  0.2385 -0.0645
 8584W        W25058   4.989   7.036   1.685 -0.0185  0.0717 -0.0546
 8585W        W25059  12.103   9.893   4.687 -0.0059  0.0652  0.1546
 8586W        W25060   9.562  13.167  14.483 -0.0391 -0.1587  0.0836
 8587W        W25061   1.726   0.231   2.920 -0.0605 -0.1884 -0.0291
 8588W        W25062   1.103   8.102  13.013 -0.0148 -0.0177 -0.1027
 8589W        W25063  11.713  15.842   3.112  0.4346  0.0965 -0.0930
 8590W        W25064  14.873  15.333   5.025 -0.0079 -0.1920 -0.0751
 8591W        W25065   9.358   5.988   2.305  0.2625  0.0315 -0.0087
 8592W        W25066   3.507   0.401   3.099 -0.1001  0.1336  0.1154
 8593W        W25067  18.750   6.966   2.520 -0.0607  0.1218  0.0216
 8594W        W25068  15.856   3.244   4.792 -0.0806 -0.1911  0.1420
 8595W        W25069   9.506  10.180   4.609  0.0359  0.0195 -0.1764
 8596W        W25070   3.739  11.271   2.044 -0.1334  0.0908  0.1223
 8597W        W25071   9.472  15.793   0.572  0.0063 -0.1988  0.1167
 8598W        W25072  13.468  15.426  11.780 -0.1639  0.0853  0.2959
 8599W        W25073   1.004  16.812  11.399  0.3153 -0.0124  0.2939
 8600W        W25074  14.977  16.434  14.471 -0.0553  0.2564  0.0041
 8601W        W25075  17.113   5.145   0.139  0.3804  0.0263  0.1196
 8602W        W25076   6.174  17.035   4.731 -0.0843  0.1311  0.1911
 8603W        W25077  16.315   8.646  12.422 -0.1743  0.2633  0.1818
 8604W        W25078   1.870  13.888  13.307  0.0637 -0.0540 -0.0431
 8605W        W25079   1.891  11.629   3.087 -0.0728 -0.2558  0.2343
 8606W        W25080  12.077   7.945   3.611  0.0484 -0.1180  0.2721
 8607W        W25081   9.212  18.750   1.628 -0.0508  0.2470 -0.0223
 8608W        W25082  13.603  11.406   0.187 -0.0690 -0.2688 -0.3275
 8609W        W25083  14.527   7.904   1.672 -0.2524 -0.2485 -0.3003
 8610W        W25084  11.489  16.978  14.024 -0.1631  0.0868 -0.1276
 8611W        W25085   9.304  10.501   2.808  0.4032  0.1840 -0.1041
 8612W        W25086   1.467   9.618  12.413  0.2736  0.0284 -0.2313
 8613W        W25087  16.420  16.288   0.307 -0.1126  0.4289 -0.2486
 8614W        W25088   2.056   5.174   5.426 -0.1909  0.2717  0.4726
 8615W        W25089   7.591   1.865  13.340  0.0528 -0.2758  0.2043
 8616W        W25090  11.488   2.284  13.171 -0.0397 -0.1556 -0.2765
 8617W        W25091  18.217   5.786  10.580  0.1188  0.0902  0.0832
 8618W        W25092  10.034   6.301  13.776 -0.3472  0.0898  0.0313
 8619W        W25093   5.580  13.930   3.292  0.1214  0.1879  0.2798
 8620W        W25094   6.036   8.926   3.604 -0.2021  0.0467 -0.0424
 8621W        W25095   5.763  13.252   5.326  0.0777 -0.2904 -0.1121
 8622W        W25096  18.798  12.988  10.290  0.0989  0.0268 -0.0791
 8623W        W25097   0.184   9.210   4.119  0.0216 -0.0735 -0.0267
 8624W        W25098   0.719   1.794  12.300  0.1317 -0.1394 -0.4074
 8625W        W25099  17.887   1.294   1.231 -0.2137  0.2690  0.0204
 8626W        W25100   6.417  17.483   4.695  0.2677  0.1843  0.0643
 8627W        W25101   8.953   2.740   3.337 -0.0260 -0.0348  0.1155
 8628W        W25102  16.854   5.677  13.578  0.2233  0.1696 -0.3353
 8629W        W25103   6.508  12.390   1.743 -0.0569 -0.2383  0.3431
 8630W        W25104   3.680   2.877   1.931  0.0435 -0.0267  0.0486
 8631W        W25105  13.672  10.554  11.244 -0.0682  0.0939 -0.0297
 8632W        W25106  10.992   2.605  14.883 -0.1586  0.0163  0.0252
 8633W        W25107  14.532   5.928  12.766 -0.1167 -0.0533 -0.1584
 8634W        W25108  13.530   9.641  12.648  0.1304 -0.1270  0.0824
 8635W        W25109   4.535   8.404  14.306 -0.1699  0.4900  0.0975
 8636W        W25110  15.612   8.936   2.163 -0.1641  0.1330 -0.1382
 8637W        W25111  18.374  12.676   5.292  0.3946 -0.3681  0.2680
 8638W        W25112   9.263   7.995  14.767  0.1361 -0.2609 -0.0908
 8639W        W25113   7.003   2.231   4.070  0.2108  0.0977 -0.0745
 8640W        W25114   0.422   0.647   4.242 -0.0046  0.0117 -0.6692
 8641W        W25115  13.246  18.649   4.548 -0.0804  0.2009  0.1512
 8642W        W25116   2.965  18.196   2.634  0.0323  0.0920  0.1414
 8643W        W25117  15.802  13.722   3.279 -0.3637 -0.1450 -0.2356
 8644W        W25118   3.950   3.549   2.433 -0.1995  0.0764 -0.0015
 8645W        W25119  10.942   5.846  13.910  0.1735  0.2146 -0.0549
 8646W        W25120   3.057  18.235   0.813 -0.0229 -0.0987 -0.1575
 8647W        W25121   3.906   1.741   3.651 -0.1633  0.1043  0.0991
 8648W        W25122  13.063   5.838   4.136  0.1975 -0.2337  0.0029
 8649W        W25123  10.987   2.704   6.076  0.0498  0.0917 -0.0733
 8650W        W25124   2.235   2.784   2.872  0.2750  0.2501 -0.0003
 8651W        W25125  17.662  18.482  12.422  0.0143 -0.1336 -0.2636
 8652W        W25126  10.970  13.327   3.127  0.2365  0.2333  0.1887
 8653W        W25127   7.342   7.689  11.460  0.2213 -0.0711 -0.0906
 8654W        W25128   7.942   8.591  14.213 -0.0742  0.0508 -0.2407
 8655W        W25129  14.479   9.414   0.623  0.1391  0.2818  0.1519
 8656W        W25130   0.104  18.159   4.160 -0.3192  0.0029  0.1871
 8657W        W25131  12.068   7.779  13.174  0.1182 -0.0744  0.1798
 8658W        W25132   8.463  10.261  13.428 -0.0771  0.0878  0.0863
 8659W        W25133  17.349   7.292  10.922 -0.0113 -0.3038  0.1582
 8660W        W25134  15.020  13.117   5.341 -0.0090 -0.2301  0.1596
 8661W        W25135   6.041  16.105  11.770 -0.0642  0.1293  0.2548
 8662W        W25136   3.431  14.755   3.289  0.1619  0.1162 -0.0257
 8663W        W25137  16.664  11.213  14.220  0.2933  0.1694  0.1015
 8664W        W25138   2.412  16.499   0.603  0.1852  0.0846  0.1789
 8665W        W25139   3.077   5.150  12.712 -0.0897  0.0542  0.1843
 8666W        W25140   3.703  15.377  15.506  0.0320 -0.1788  0.0094
 8667W        W25141  12.713  13.421  14.657  0.2234 -0.0690  0.2807
 8668W        W25142  17.433  18.561   0.283  0.4290  0.0984  0.2393
 8669W        W25143   8.042   7.480  15.609 -0.2708 -0.0297 -0.0038
 8670W        W25144   8.800   6.444   1.027  0.0320 -0.0210  0.0420
 8671W        W25145   2.695  17.376  11.309  0.1523 -0.0438 -0.0291
 8672W        W25146   7.694   2.206   1.555  0.2201  0.0405 -0.2494
 8673W        W25147   9.940   5.060   2.280 -0.3066 -0.2386 -0.2533
 8674W        W25148  11.154   2.265   2.134  0.3295  0.1253  0.2294
 8675W        W25149  12.328  11.356  12.717  0.2614  0.1137  0.2102
 8676W        W25150   3.725  12.988  13.287 -0.0913  0.0249  0.1834
 8677W        W25151   2.810  18.751  12.056  0.2897 -0.2217 -0.0831
 8678W        W25152  13.273  16.515   0.564  0.0285  0.0469 -0.0901
 8679W        W25153   0.102  10.907  12.773  0.0918  0.1141 -0.1298
 8680W        W25154   7.820   8.205  14.819 -0.3180 -0.1326 -0.0501
 8681W        W25155   2.871  16.286  11.431  0.0479 -0.0079 -0.1985
 8682W        W25156  13.868   2.238  15.383 -0.1447  0.0627  0.3421
 8683W        W25157   3.871   3.424  14.409 -0.0568 -0.0747 -0.1748
 8684W        W25158   4.209  12.448  11.979 -0.2107 -0.0812  0.1195
 8685W        W25159  11.671  15.028  12.333  0.3623 -0.2076  0.2403
 8686W        W25160   8.798  12.785  11.485 -0.1543  0.2283  0.0900
 8687W        W25161  14.114   4.366   0.187  0.1627 -0.1532  0.0161
 8688W        W25162   5.169   1.790   3.598  0.1403  0.0155 -0.0571
 8689W        W25163   7.034  15.593  11.659  0.1872 -0.1389 -0.3410
 8690W        W25164  18.270  14.555  10.213 -0.1164  0.1287  0.0496
 8691W        W25165   4.601   5.440  12.965  0.1531  0.0679 -0.0545
 8692W        W25166   2.532   9.933  11.038 -0.3483  0.1470 -0.1872
 8693W        W25167   0.313  11.755   3.796  0.0087 -0.1133  0.0810
 8694W        W25168   7.032  15.135   0.795 -0.1619 -0.1042  0.1262
 8695W        W25169  15.018   5.615   1.915 -0.0231  0.1050  0.1364
 8696W        W25170  11.083   8.520   3.918 -0.2030 -0.2943  0.0336
 8697W        W25171  17.837   1.110   0.760 -0.0739 -0.2429 -0.0648
 8698W        W25172   4.174   3.939  13.613  0.0398  0.1220 -0.2710
 8699W        W25173   9.129  17.237  12.713 -0.0807 -0.0453 -0.0220
 8700W        W25174  14.969   2.005  13.940 -0.2372  0.1363  0.1262
 8701W        W25175   9.711   9.202   4.069  0.2663  0.1680  0.1197
 8702W        W25176   6.049   9.070   4.641  0.3076 -0.1905  0.0172
 8703W        W25177   2.430  15.102   2.318  0.1338 -0.2189 -0.1275
 8704W        W25178   3.532   1.985  12.333 -0.3384 -0.3824  0.0786
 8705W        W25179   6.941   6.670  13.906  0.1811 -0.2311  0.1017
 8706W        W25180  14.245   0.800  11.435  0.3980 -0.1707 -0.0458
 8707W        W25181   8.040  15.373  13.586  0.1811  0.4647 -0.1569
 8708W        W25182   8.393   6.321   2.057  0.0146  0.1695 -0.1946
 8709W        W25183  11.535   3.573   2.259 -0.2007  0.0493  0.1525
 8710W        W25184   9.027   5.680  14.390 -0.0578  0.0654 -0.1319
 8711W        W25185  16.876   5.845   2.569  0.0739  0.0483 -0.0129
 8712W        W25186  10.837   5.981   1.321 -0.1934  0.0479  0.0771
 8713W        W25187   8.596  11.812  13.013 -0.3792  0.0383  0.5968
 8714W        W25188  10.319   3.951  15.428  0.2143  0.0391 -0.3622
 8715W        W25189   0.666  17.672  10.498  0.3887  0.0060  0.1940
 8716W        W25190   4.618  18.171  14.575 -0.0519  0.1638  0.0621
 8717W        W25191   3.782   0.617   0.031  0.0632  0.3490  0.1576
 8718W        W25192  10.879  17.596   5.416 -0.0942  0.1513 -0.3767
 8719W        W25193  16.408   6.495  12.105  0.1594  0.2245 -0.4261
 8720W        W25194   5.011   6.272   2.859  0.1867 -0.1132 -0.2269
 8721W        W25195  16.465  10.616   0.028 -0.1595 -0.1709 -0.1959
 8722W        W25196   1.416   6.713   3.491 -0.4483  0.1685  0.2428
 8723W        W25197  13.341  11.620   5.969  0.0120 -0.1976 -0.1486
 8724W        W25198  15.293   5.842  11.139 -0.1787  0.0686  0.0975
 8725W        W25199   4.334  15.437   2.945 -0.3970 -0.2630  0.1790
 8726W        W25200  14.606   3.698   0.281 -0.0573 -0.2637  0.1563
 8727W        W25201  17.772   3.388   3.400 -0.1710 -0.0592 -0.3579
 8728W        W25202   6.640   4.404   4.375 -0.0404  0.3298 -0.3227
 8729W        W25203   5.910   6.275   1.069 -0.0440  0.2399 -0.0686
 8730W        W25204  11.387   5.030   5.762 -0.2306  0.0006 -0.1281
 8731W        W25205   5.234   1.176  15.374 -0.2009  0.0348 -0.0245
 8732W        W25206   7.231  14.522  11.647 -0.1907  0.2214  0.0614
 8733W        W25207  14.967   8.552  13.289 -0.1507 -0.1371  0.0166
 8734W        W25208  18.156   2.072   2.088  0.0352  0.1971  0.1365
 8735W        W25209   1.950  11.973  12.585 -0.0805  0.1711 -0.1129
 8736W        W25210   7.236  10.098  14.731 -0.0763  0.2014 -0.1781
 8737W        W25211  11.468  15.515   1.392 -0.0615  0.0100 -0.0468
 8738W        W25212  10.461  17.434  15.499  0.1821 -0.0085  0.2435
 8739W        W25213  10.264   1.148  15.350 -0.4212 -0.1692 -0.1278
 8740W        W25214   7.461   1.016  13.350  0.2967  0.0694 -0.1124
 8741W        W25215   9.393   5.322  12.747  0.1317 -0.1714 -0.0976
 8742W        W25216   1.094  12.800   5.235 -0.2070 -0.0198  0.0758
 8743W        W25217  17.900   4.294  12.290  0.0798  0.2055  0.1380
 8744W        W25218   4.374  14.047   2.660 -0.1725  0.0800  0.0484
 8745W        W25219  11.812  11.234  12.924  0.1690 -0.1373  0.0596
 8746W        W25220  17.755   6.125  11.015  0.1580  0.0073  0.0004
 8747W        W25221   8.573  13.401   4.345 -0.2293 -0.0851  0.1782
 8748W        W25222   3.825  18.689  13.048  0.0176  0.1236 -0.1705
 8749W        W25223  18.622  14.197   1.402 -0.4645 -0.0834 -0.2114
 8750W        W25224  17.827  14.535  10.463 -0.1214  0.4299 -0.0062
 8751W        W25225   7.662  14.136  15.354  0.1804  0.0616  0.0274
 8752W        W25226   7.178   9.449   3.150  0.2261 -0.3049 -0.1183
 8753W        W25227   5.078  16.420  12.706 -0.1111  0.1105 -0.0599
 8754W        W25228  10.412   9.906   2.354  0.0684  0.0453  0.1100
 8755W        W25229   8.709   3.481   0.386 -0.2961  0.2594  0.1176
 8756W        W25230  13.150  10.650   2.681 -0.2176  0.1774 -0.1740
 8757W        W25231  14.084   4.636   3.690  0.2187 -0.0873 -0.0417
 8758W        W25232   6.587   7.240  11.706 -0.1943 -0.2981 -0.1287
 8759W        W25233   3.681  15.757  11.446 -0.0049 -0.0576  0.1119
 8760W        W25234   5.450   7.079  14.699 -0.2891 -0.0327 -0.0041
 8761W        W25235  15.215  11.960  12.160 -0.2053 -0.0699 -0.3033
 8762W        W25236   5.589   5.494  11.766 -0.1507  0.0206  0.0139
 8763W        W25237  14.130   4.047  13.254 -0.0972  0.2294 -0.3707
 8764W        W25238  13.519  18.584  12.409 -0.0161  0.1895  0.1730
 8765W        W25239  12.844   8.986   4.422 -0.1769  0.2960 -0.0990
 8766W        W25240  16.042   8.316   3.138 -0.1006 -0.2316 -0.2164
 8767W        W25241   3.722   8.495  12.137  0.0519  0.1547 -0.0230
 8768W        W25242   7.998   0.780   2.705 -0.0267 -0.0203 -0.0223
 8769W        W25243   8.665  12.425   4.075 -0.0863  0.0111 -0.0180
 8770W        W25244  15.012   7.863  11.947 -0.0842  0.1088 -0.0446
 8771W        W25245   0.071   0.579  14.430  0.5091 -0.0390 -0.5146
 8772W        W25246   6.641  14.723  15.257 -0.3019  0.1033 -0.2149
 8773W        W25247   8.557   7.482   5.137  0.0473  0.2283  0.0890
 8774W        W25248  10.190   2.523  11.404 -0.0164 -0.1125 -0.0973
 8775W        W25249  15.655  12.732  13.540 -0.0795 -0.1479  0.2000
 8776W        W25250  18.049  11.738   0.046 -0.1318  0.1240 -0.0084
 8777W        W25251   5.540   9.720  15.049  0.0606 -0.1652  0.0884
 8778W        W25252  17.119   1.614   0.620  0.0842 -0.0926  0.2402
 8779W        W25253  14.344  18.378   1.112  0.0641 -0.0329  0.1607
 8780W        W25254   9.168   3.240   1.036  0.1221 -0.1339  0.0574
 8781W        W25255   4.202   9.112   4.825 -0.3296 -0.1340  0.1994
 8782W        W25256  11.218  14.127   4.041  0.1794 -0.0336 -0.3373
 8783W        W25257   9.268   1.482  13.327 -0.1874  0.1134  0.2406
 8784W        W25258  14.196  14.751   5.016  0.0166 -0.1292  0.0699
 8785W        W25259  14.166   2.254   0.677  0.2196  0.3124 -0.2593
 8786W        W25260  14.608  18.721   3.295 -0.0475  0.1114 -0.3922
 8787W        W25261   8.713   6.288   1.690  0.1511 -0.0851  0.1734
 8788W        W25262   0.204  14.932   1.616 -0.2289  0.0752  0.0238
 8789W        W25263   1.843  15.896  12.908 -0.1187  0.0738 -0.0266
 8790W        W25264  13.822   4.899   1.031  0.1717 -0.1145  0.3217
 8791W        W25265  13.620  17.392   3.915  0.1295 -0.2406 -0.0522
 8792W        W25266  10.058  14.134  15.008  0.2461  0.4286  0.0312
 8793W        W25267   8.952   3.581   4.212  0.4395  0.1750 -0.4711
 8794W        W25268   3.927  15.164   2.882 -0.0680  0.0956 -0.2896
 8795W        W25269   6.174  16.017   3.611  0.0303 -0.2265  0.1520
 8796W        W25270   5.701   4.026   2.671 -0.2421  0.2055 -0.0782
 8797W        W25271  11.209  18.506  13.075  0.2461 -0.0945  0.2983
 8798W        W25272   9.166   8.480  14.879  0.0340  0.0160 -0.1031
 8799W        W25273   7.252   8.454   2.342  0.0055  0.0107 -0.0237
 8800W        W25274   5.604   8.276   4.579  0.0710 -0.2361 -0.1997
 8801W        W25275   1.700   0.631  13.392  0.1860 -0.3516  0.0305
 8802W        W25276  10.486  18.507  12.579 -0.2889 -0.0296 -0.1877
 8803W        W25277   8.628   8.323   4.140 -0.1692  0.1044 -0.1248
 8804W        W25278  13.585   4.645   0.632  0.0812  0.3624  0.1224
 8805W        W25279   6.160  11.751  11.873  0.0929  0.0645 -0.2190
 8806W        W25280   4.666   0.794  14.429  0.3319  0.2264  0.0048
 8807W        W25281  13.589  17.016  12.699  0.0980 -0.0070  0.1371
 8808W        W25282   9.596   2.238   1.334 -0.1785  0.0460  0.0344
 8809W        W25283   6.171   7.342   2.164  0.3898 -0.3619 -0.2598
 8810W        W25284  17.484   5.309  15.146  0.0306 -0.0523 -0.0629
 8811W        W25285   1.780   6.535  11.754 -0.1751 -0.3734  0.2400
 8812W        W25286   7.711  10.661   2.389 -0.0406 -0.0951 -0.0734
 8813W        W25287  15.388   7.946  12.955  0.0069 -0.0713 -0.2733
 8814W        W25288   2.944   1.435  11.181  0.2190  0.3940  0.0299
 8815W        W25289   4.379  13.722  11.194  0.3206  0.0901 -0.1469
 8816W        W25290   4.277   9.742   2.670 -0.2133  0.1903 -0.0063
 8817W        W25291  13.698  13.109  15.462 -0.2746  0.1430 -0.1165
 8818W        W25292   5.538   4.450   1.116  0.2394 -0.1604 -0.0550
 8819W        W25293  10.425   2.206   0.666 -0.0507 -0.0234 -0.0218
 8820W        W25294  15.332   9.964   0.665  0.3316  0.3613  0.0626
 8821W        W25295  15.891  16.336   2.474 -0.1754 -0.1450  0.2872
 8822W        W25296  17.046  12.314   4.098  0.0425  0.0160 -0.0178
 8823W        W25297   5.756  17.383   3.483  0.0702  0.2427 -0.0249
 8824W        W25298   7.995  12.379   4.668 -0.1765 -0.1759  0.0687
 8825W        W25299   8.130  12.500   3.766  0.0902  0.0648 -0.0960
 8826W        W25300  18.323  12.800  15.619 -0.1120 -0.0955 -0.0572
 8827W        W25301  13.097   3.549   3.684 -0.0451  0.2377  0.0454
 8828W        W25302   4.319   9.310   1.011  0.2215 -0.0038 -0.2290
 8829W        W25303   1.856   8.628   3.947  0.2035  0.2436 -0.2360
 8830W        W25304   8.924   8.939  13.289  0.1998 -0.3130  0.1736
 8831W        W25305  17.234   3.540  14.490  0.0159  0.3218  0.0331
 8832W        W25306   9.499  12.986  10.877 -0.0158  0.2016  0.3169
 8833W        W25307  10.129  13.725  14.055  0.1579 -0.1532  0.0396
 8834W        W25308  11.056  18.690  14.828 -0.1366 -0.0505 -0.2545
 8835W        W25309   3.861   8.625   1.300  0.0162  0.0478  0.0604
 8836W        W25310  16.925   3.068  14.496 -0.0901  0.1301 -0.1329
 8837W        W25311  16.111   7.734   3.795  0.1797  0.1603 -0.0769
 8838W        W25312   2.055  16.303  12.431  0.0241 -0.1986 -0.4326
 8839W        W25313   2.678  13.545  12.058 -0.3713  0.2897  0.0875
 8840W        W25314   0.181  18.646   1.095 -0.2141  0.2842  0.0697
 8841W        W25315  12.717   6.869   1.169  0.0659  0.1295 -0.0788
 8842W        W25316  17.840   7.301  13.691 -0.3164  0.0718 -0.2757
 8843W        W25317  16.061  13.960   0.008 -0.3179  0.4495  0.0218
 8844W        W25318   4.222  12.933  11.183 -0.4413 -0.2836  0.2147
 8845W        W25319  11.144   8.237  15.027 -0.0652 -0.0448 -0.2020
 8846W        W25320  10.732   3.468  14.079 -0.1900  0.0933 -0.0115
 8847W        W25321  10.483  10.231   1.306 -0.0036  0.1943 -0.2174
 8848W        W25322   9.203  17.990   0.729  0.1656 -0.0587 -0.3046
 8849W        W25323   7.506  16.847   3.669 -0.0915  0.1009 -0.2393
 8850W        W25324   8.744  12.903  13.353  0.0723  0.4593  0.2359
 8851W        W25325   3.599  17.118   4.323 -0.4031  0.0157 -0.0021
 8852W        W25326   9.374   6.152   0.971  0.1431 -0.2207  0.2442
 8853W        W25327   6.876   5.177  14.103  0.1895  0.1225  0.0512
 8854W        W25328  18.718  17.273   4.084 -0.1970 -0.0227  0.0623
 8855W        W25329  10.947  18.148  13.587  0.0101 -0.0762 -0.1331
 8856W        W25330   0.869   5.319   3.042 -0.1116 -0.0860 -0.2549
 8857W        W25331   7.423  14.244   1.976 -0.3298  0.0738 -0.0189
 8858W        W25332  10.876  15.587  11.532  0.2429 -0.1048 -0.1337
 8859W        W25333  17.057  16.495   5.262 -0.0234 -0.1731  0.0110
 8860W        W25334  13.010   3.447  14.517 -0.2754 -0.2554 -0.0349
 8861W        W25335  18.254  12.607   2.625  0.2314  0.2044 -0.0622
 8862W        W25336  16.436   3.140   1.365  0.2201 -0.0787 -0.0205
 8863W        W25337   2.671   5.617   2.649  0.2095  0.2629 -0.2304
 8864W        W25338  14.255  10.487  10.722 -0.0869 -0.1084 -0.0120
 8865W        W25339   8.050   5.946  12.191  0.2432  0.0288  0.1623
 8866W        W25340  17.788   9.498  11.802  0.1858  0.1389  0.0329
 8867W        W25341   8.078   6.237   0.724  0.3443  0.0535  0.0518
 8868W        W25342   8.159  14.667   2.572  0.2861  0.2772  0.2750
 8869W        W25343  10.236  15.466  12.091  0.0008 -0.1077 -0.1171
 8870W        W25344  17.491  16.394   2.462 -0.3203  0.1628  0.2791
 8871W        W25345   3.072  13.530   1.385  0.0725  0.1624 -0.0247
 8872W        W25346   1.101   5.473  11.024  0.0708  0.0571 -0.1474
 8873W        W25347   3.058   2.141   4.840 -0.0105  0.2070 -0.0273
 8874W        W25348  16.061   3.363   2.302 -0.1385  0.1937 -0.0067
 8875W        W25349  17.914   7.094  13.219  0.0438 -0.2291  0.1655
 8876W        W25350  13.118   0.911  13.913  0.0792  0.0896  0.1641
 8877W        W25351  12.185   1.316   3.304 -0.0653  0.2181  0.0593
 8878W        W25352   1.165   2.499   2.625 -0.4150  0.0402 -0.0599
 8879W        W25353  18.206  14.162   2.924 -0.3306  0.1529 -0.0716
 8880W        W25354  18.356  14.123   0.979 -0.0791  0.0446  0.0326
 8881W        W25355   0.699   0.905   4.924  0.1415  0.0716 -0.0409
 8882W        W25356   2.745   2.989   2.075  0.0157  0.3700 -0.1958
 8883W        W25357  12.896  10.734   4.959 -0.2659 -0.0172  0.0634
 8884W        W25358   0.101   4.502   2.952 -0.1712  0.3526  0.0086
 8885W        W25359   5.203   7.278   0.079 -0.0596  0.0486 -0.1336
 8886W        W25360  13.785   7.703  14.520  0.0265 -0.0762  0.0479
 8887W        W25361   1.331   2.727   4.368 -0.0912 -0.3242  0.0690
 8888W        W25362  14.735   4.251   1.588  0.2121 -0.2051 -0.0198
 8889W        W25363  12.643  10.500   1.672  0.3435 -0.1536  0.1322
 8890W        W25364  12.216   9.338   2.422 -0.2231  0.0445  0.0824
 8891W        W25365   5.583   1.548   0.422  0.1565 -0.2861  0.2619
 8892W        W25366   1.592  11.062  13.963 -0.1552  0.2075 -0.0118
 8893W        W25367   4.110  18.259   0.946 -0.1057 -0.0885  0.0531
 8894W        W25368   1.361   0.128   3.781 -0.1660 -0.2316  0.1352
 8895W        W25369   3.739  15.460  13.422  0.0091  0.1108 -0.0894
 8896W        W25370  12.320   1.155  15.457 -0.0811 -0.2796  0.0857
 8897W        W25371   4.187   0.933   0.342 -0.1128 -0.1199  0.2670
 8898W        W25372   2.205   6.459  12.254 -0.0911  0.1363 -0.1102
 8899W        W25373   5.797   8.795  10.968  0.0566 -0.1912  0.0158
 8900W        W25374   4.548  16.371   4.990  0.5020  0.0052 -0.1585
 8901W        W25375   6.547   3.505   3.021 -0.0063 -0.0177  0.2882
 8902W        W25376   7.052  15.919   2.030  0.0019 -0.0792 -0.2110
 8903W        W25377   3.088  10.034  10.891  0.1871 -0.0048 -0.0020
 8904W        W25378  13.483   3.486   4.920 -0.0320  0.0118  0.2413
 8905W        W25379   5.687  13.261  11.931 -0.1180 -0.0353 -0.1822
 8906W        W25380   0.407  17.756   5.021 -0.2206  0.1247 -0.1144
 8907W        W25381  15.538   5.429   2.673 -0.1739  0.3428  0.1918
 8908W        W25382   8.689   8.917   1.698  0.0979  0.1511 -0.0766
 8909W        W25383   2.615   5.831  13.937 -0.2287  0.1690  0.1535
 8910W        W25384   5.800   6.267  14.736  0.1901 -0.5084 -0.2630
 8911W        W25385   3.032  15.509   5.392 -0.2650 -0.4628  0.0149
 8912W        W25386   9.658   2.435   3.273  0.0885 -0.1290  0.2090
 8913W        W25387  16.250  10.925   9.992 -0.0866 -0.5316 -0.3195
 8914W        W25388  10.136  15.007   2.217 -0.0142  0.0573 -0.3031
 8915W        W25389  14.864  12.178  10.741  0.0015 -0.2780 -0.0537
 8916W        W25390   4.339  17.792  11.878  0.1640  0.0506  0.1122
 8917W        W25391   8.280  14.496   5.593 -0.0155 -0.0362  0.2356
 8918W        W25392  18.159   6.765  12.069 -0.1503  0.0549  0.0372
 8919W        W25393   0.115   7.795  15.480 -0.0207  0.0221  0.0277
 8920W        W25394  15.658   6.884   1.210  0.3477  0.0566  0.2284
 8921W        W25395  10.212  14.378   1.459  0.2248  0.1627  0.2525
 8922W        W25396   3.149  11.210  15.364  0.2869  0.0145 -0.0542
 8923W        W25397   5.502   9.756  13.787  0.3019 -0.1677 -0.0979
 8924W        W25398   8.492   2.863  12.653 -0.1180 -0.1067 -0.0118
 8925W        W25399  15.607   2.986   4.382  0.1796  0.1903  0.0304
 8926W        W25400   1.152   2.414   3.642 -0.3688  0.0738 -0.0763
 8927W        W25401  14.128  18.814   4.053  0.0140 -0.0465 -0.2810
 8928W        W25402  17.976  15.616   1.345  0.0671 -0.0855  0.1444
 8929W        W25403  15.874   2.488   3.151 -0.0158  0.0604 -0.4248
 8930W        W25404  13.822   7.845   2.518  0.0643  0.0533  0.1300
 8931W        W25405   5.824   0.324   4.227  0.2652 -0.0898  0.0133
 8932W        W25406   9.849  17.627  14.924  0.2925 -0.1009 -0.0255
 8933W        W25407  15.551  17.409  13.787  0.1733  0.1961  0.1479
 8934W        W25408  17.165   7.429   4.918  0.1202  0.1338 -0.1510
 8935W        W25409   6.612   8.225  12.094  0.5420  0.1355  0.0736
 8936W        W25410   7.444  12.119  11.849  0.0574 -0.0629 -0.0026
 8937W        W25411  14.220   9.311  14.536  0.0512 -0.3232 -0.3246
 8938W        W25412  13.132   0.841   3.518  0.2323  0.0403 -0.3377
 8939W        W25413   7.094  18.779  10.291 -0.0203 -0.0464  0.3797
 8940W        W25414  18.070   9.617  11.369 -0.0848 -0.1376 -0.0408
 8941W        W25415   0.577   8.996   0.118 -0.0230  0.2044  0.2568
 8942W        W25416  15.261  14.102  12.761 -0.0121  0.3851  0.2647
 8943W        W25417  13.899   2.763  15.279 -0.0449  0.0591  0.1898
 8944W        W25418  15.832  16.345   2.988 -0.0017  0.1372  0.3104
 8945W        W25419   2.154   8.565   3.015 -0.1533 -0.0093  0.0626
 8946W        W25420  17.622   8.404  15.455 -0.2942  0.2322 -0.1889
 8947W        W25421  17.003  10.048   3.605 -0.1020  0.1725  0.1678
 8948W        W25422  11.708  15.377   2.419 -0.1433 -0.0894  0.3216
 8949W        W25423  16.481   4.658  14.808  0.0773 -0.0460  0.3590
 8950W        W25424   7.130  13.081   4.744 -0.0379 -0.1801  0.1579
 8951W        W25425   0.932  10.336  12.593 -0.0148 -0.3414 -0.0918
 8952W        W25426  16.827  12.271  12.515  0.1607 -0.0620  0.0263
 8953W        W25427  15.042  15.626  11.883  0.1102  0.2128 -0.1275
 8954W        W25428  17.757  10.678  14.959 -0.0315 -0.0513  0.0499
 8955W        W25429   8.108  13.650  12.566  0.0233 -0.2107  0.0710
 8956W        W25430   8.292  15.315  12.644 -0.0468  0.0548 -0.1066
 8957W        W25431  15.877  15.194   1.763 -0.1665 -0.2982  0.1090
 8958W        W25432  18.711  11.819  12.757  0.2879 -0.1489 -0.0307
 8959W        W25433   4.970  18.228  14.205  0.0393  0.1075 -0.3574
 8960W        W25434   8.771   2.529  10.527  0.0329 -0.0250 -0.1259
 8961W        W25435  10.502  14.351   1.846 -0.3322 -0.1208  0.0295
 8962W        W25436   6.596  10.185   5.590 -0.2342  0.1588  0.0773
 8963W        W25437  17.466  17.917  13.874  0.0016 -0.1422 -0.1736
 8964W        W25438  14.178  12.442   0.897 -0.2261 -0.2944  0.0654
 8965W        W25439  11.691   7.859   0.266 -0.0103 -0.0585 -0.2766
 8966W        W25440   1.358   8.543   4.786 -0.3219  0.2543 -0.2258
 8967W        W25441   3.590  18.575  14.936 -0.1832 -0.0611  0.0298
 8968W        W25442  17.052   0.603  14.368 -0.1267  0.1995 -0.1112
 8969W        W25443  16.947   8.297  11.478 -0.4165  0.0438 -0.0006
 8970W        W25444   8.314   9.901   2.966  0.0578  0.3062 -0.1404
 8971W        W25445   6.607  15.419   0.847  0.0724 -0.0394  0.0305
 8972W        W25446   1.445   5.472  12.400  0.0325 -0.0149 -0.2310
 8973W        W25447  11.683   6.393   0.193  0.1633  0.1310 -0.1169
 8974W        W25448   4.069   8.522   3.886  0.3668 -0.1752  0.2649
 8975W        W25449  15.214   0.796   2.074  0.1435  0.0827 -0.0506
 8976W        W25450  17.475  13.238  10.568 -0.2655  0.0845  0.1494
 8977W        W25451   2.873   5.028  10.799  0.1420  0.3896 -0.3567
 8978W        W25452  11.731   4.172   0.620 -0.0493  0.1947  0.3391
 8979W        W25453   1.248   9.851  10.346 -0.1679 -0.0822  0.2396
 8980W        W25454   4.106  16.204  13.827 -0.1137  0.0780 -0.3090
 8981W        W25455   3.336   7.968  14.559  0.3814 -0.3235 -0.0072
 8982W        W25456   9.405   6.973   1.953  0.1085  0.1660  0.2882
 8983W        W25457   9.553   4.786   3.110  0.1453 -0.1572 -0.3374
 8984W        W25458  15.328   6.290   4.610  0.1538 -0.0277  0.2418
 8985W        W25459   3.293   9.249  10.500 -0.1949  0.0803 -0.1542
 8986W        W25460  13.756  17.263   5.178 -0.1667  0.1208  0.0308
 8987W        W25461  13.329   0.458   5.090 -0.3217  0.3324  0.1740
 8988W        W25462   6.660  14.559   2.419 -0.2003 -0.0395  0.0920
 8989W        W25463  13.465   6.783  14.833 -0.0820 -0.2157  0.0734
 8990W        W25464   7.248  14.023  14.974  0.0415 -0.1412  0.0238
 8991W        W25465   1.597   8.770  14.714  0.1915  0.0010 -0.2649
 8992W        W25466  14.570   0.497   0.046 -0.0494  0.2223  0.1209
 8993W        W25467   6.594   3.074   4.321 -0.0036 -0.1362  0.0963
 8994W        W25468  17.521   8.242  14.556 -0.2227  0.1254 -0.2549
 8995W        W25469   2.962  10.359   2.690  0.0800 -0.0984  0.0442
 8996W        W25470  16.629  17.853  15.071 -0.1685 -0.0743  0.0231
 8997W        W25471   1.477   9.291   2.290  0.0580  0.0171 -0.1288
 8998W        W25472   6.278  15.193  14.203 -0.1939  0.1702  0.1773
 8999W        W25473  16.943  17.880   4.841  0.1884  0.2908  0.0415
 9000W        W25474  13.977   7.814  15.153 -0.1726  0.0504 -0.5083
 9001W        W25475  13.955   6.146   4.792  0.1867 -0.1421 -0.2221
 9002W        W25476  17.223  18.132   3.477 -0.2597 -0.1539 -0.1126
 9003W        W25477  17.547  17.507   4.316  0.0004  0.0833  0.2144
 9004W        W25478   8.800  13.149   6.212 -0.1493  0.3974  0.0121
 9005W        W25479  12.024  15.169   0.745 -0.1186  0.1594  0.0365
 9006W        W25480   5.011  12.531   4.243 -0.0412  0.1547  0.0865
 9007W        W25481   5.244  13.734   4.197  0.1985  0.1518  0.1996
 9008W        W25482  17.556   4.489  13.565  0.0041  0.1221  0.0637
 9009W        W25483  12.207   3.086   1.675 -0.0792 -0.2440 -0.0170
 9010W        W25484  11.582   2.911  15.447 -0.0319 -0.0688 -0.0995
 9011W        W25485   6.645  18.090  12.258 -0.0928  0.2204  0.1893
 9012W        W25486  15.535  10.627  10.816  0.0526 -0.0981  0.1668
 9013W        W25487   2.921  13.373   5.267  0.1120  0.3008 -0.0345
 9014W        W25488  14.045  13.635   0.419  0.2886  0.1154 -0.2822
 9015W        W25489   5.372  18.251   1.626 -0.0852  0.0932  0.1536
 9016W        W25490  14.156  14.705   0.595 -0.0759  0.0100 -0.2747
 9017W        W25491   3.366   4.791  12.376  0.2377  0.0944  0.1831
 9018W        W25492  10.999   8.965   5.320 -0.4202  0.0286  0.2956
 9019W        W25493   8.121  11.591  12.247 -0.0051  0.0938 -0.2500
 9020W        W25494  11.693  18.380   6.020  0.4080 -0.0261 -0.3997
 9021W        W25495  14.441   2.836  13.533  0.1864  0.1315 -0.2440
 9022W        W25496   8.096  17.016  15.136  0.2162  0.1697 -0.0721
 9023W        W25497  16.311  17.765  14.563  0.2452 -0.0758 -0.1100
 9024W        W25498   7.691  10.676   4.787  0.2174 -0.2830 -0.1889
 9025W        W25499   1.331  11.308   1.785  0.4113  0.0106  0.1516
 9026W        W25500   9.513   5.704  15.341  0.2814 -0.0561 -0.0993
 9027W        W25501   5.359   2.481   4.514 -0.2873  0.0244  0.0892
 9028W        W25502   4.460   5.248  11.015  0.3161 -0.0381 -0.2577
 9029W        W25503   3.125  16.621  13.946 -0.1504 -0.2150 -0.1335
 9030W        W25504   2.358   1.448   5.136 -0.2844 -0.2446  0.0862
 9031W        W25505  17.296   5.488   1.825  0.2311 -0.2602  0.0786
 9032W        W25506  18.851  12.304  12.794  0.0606  0.0347  0.0639
 9033W        W25507  15.209  14.100  13.462  0.0456  0.3488  0.0383
 9034W        W25508   9.686  17.891   4.570  0.1575 -0.3715  0.0324
 9035W        W25509   7.191   7.142   2.490  0.1827  0.1463  0.1629
 9036W        W25510   5.496   3.589   3.448 -0.1131  0.0301 -0.0068
 9037W        W25511  17.651  12.568   0.468  0.0859  0.0026 -0.0145
 9038W        W25512  10.237   8.034   2.190 -0.1407 -0.1579 -0.1506
 9039W        W25513  16.094   0.912  10.865  0.0146 -0.1246 -0.2147
 9040W        W25514  13.065  17.881  11.986 -0.1882  0.0531 -0.0687
 9041W        W25515  16.267   7.821   0.715 -0.1079  0.2169  0.0481
 9042W        W25516   3.797  17.050   0.245 -0.0115 -0.1054 -0.1843
 9043W        W25517  16.955  10.664   2.459  0.0988  0.2788  0.5680
 9044W        W25518  12.344   6.902   1.600 -0.0453  0.3044 -0.0744
 9045W        W25519   8.661   9.454  13.265  0.1101 -0.1908 -0.1286
 9046W        W25520  11.583   2.148  13.927 -0.1644  0.0190  0.0798
 9047W        W25521  16.015  10.871   2.702  0.0774  0.3285 -0.2879
 9048W        W25522   2.875  17.020   2.812 -0.0047  0.1822 -0.0261
 9049W        W25523   9.828  10.275  13.030  0.1647  0.1129  0.1130
 9050W        W25524   6.122  16.337   2.715  0.1862  0.1806 -0.0880
 9051W        W25525   8.080  13.142   3.202 -0.0268  0.2498 -0.1635
 9052W        W25526   5.437  10.918  13.955 -0.0094  0.0214  0.0167
 9053W        W25527  10.336   7.142   4.371 -0.0217  0.1521 -0.0847
 9054W        W25528   3.012   6.850   0.634  0.1128 -0.0008  0.0584
 9055W        W25529  11.688   6.192   2.019 -0.1974 -0.2807 -0.0950
 9056W        W25530  10.145  18.755   0.127  0.2790 -0.1673  0.0750
 9057W        W25531   8.604  17.942   1.531 -0.0981 -0.0723  0.1594
 9058W        W25532   9.944   8.236   2.578 -0.2360  0.2632  0.0005
 9059W        W25533   0.191  15.126  11.528  0.0330  0.1302 -0.2761
 9060W        W25534   5.489  13.879   4.859  0.0392  0.0271  0.0980
 9061W        W25535  16.487  18.480   0.607  0.0338  0.0371 -0.0140
 9062W        W25536   4.398  18.248   5.474  0.1304  0.1001 -0.2240
 9063W        W25537  18.357   5.291  10.478 -0.3325 -0.0346 -0.1733
 9064W        W25538  14.762   2.674  11.748  0.1528 -0.1393  0.3011
 9065W        W25539   5.995  14.217   5.057  0.3134 -0.0079  0.1746
 9066W        W25540  18.825  14.216  12.255  0.0999 -0.2650  0.0946
 9067W        W25541  17.873  11.590   3.119 -0.3421  0.0111 -0.5717
 9068W        W25542   4.768   5.809  12.651 -0.1428  0.4469  0.0586
 9069W        W25543   0.497   2.301   5.202  0.3713 -0.1039 -0.0984
 9070W        W25544   1.092  13.103  12.366 -0.0763  0.1890 -0.1867
 9071W        W25545   8.261  13.199   5.318  0.0294  0.1222 -0.0168
 9072W        W25546  13.368   3.263  13.125  0.2588  0.0679 -0.2834
 9073W        W25547  11.860  10.126  13.006 -0.1235 -0.1097 -0.2590
 9074W        W25548   8.598  18.401  13.776 -0.1984  0.4121  0.1272
 9075W        W25549  12.004   9.288   3.259  0.4076 -0.1135  0.2330
 9076W        W25550   7.696   7.755  13.229  0.2057 -0.1401 -0.2244
 9077W        W25551   8.970   0.427  15.403  0.1868 -0.0809  0.3708
 9078W        W25552  13.124  12.151  12.014  0.0745 -0.0380 -0.0093
 9079W        W25553   9.018   1.086  13.646  0.3631 -0.1454  0.1860
 9080W        W25554   1.230  11.524   4.921 -0.0232  0.2713  0.1677
 9081W        W25555   4.691  12.698   1.986 -0.2262 -0.0642  0.0175
 9082W        W25556   6.739   8.988   1.818 -0.0853 -0.2642  0.0218
 9083W        W25557   9.831   8.571   5.347  0.0298 -0.1758  0.2418
 9084W        W25558   9.177   4.616  13.670  0.2592 -0.0994  0.0860
 9085W        W25559  10.236  14.114  15.479 -0.1127 -0.2065  0.1726
 9086W        W25560   2.036   6.438  13.653 -0.3145  0.1824  0.1555
 9087W        W25561   6.573  13.845   3.785 -0.1425  0.1801  0.1908
 9088W        W25562   2.819   0.272   4.503  0.0934  0.3121  0.2487
 9089W        W25563  14.592   0.032  14.611  0.2354 -0.0227 -0.2480
 9090W        W25564   3.809  11.570   5.684 -0.0707 -0.0048  0.1079
 9091W        W25565   5.229   7.667   2.713  0.1363  0.0367  0.0500
 9092W        W25566  14.515   0.675   3.211  0.0850  0.1580  0.1914
 9093W        W25567  10.682   1.586  13.567 -0.1870 -0.0434 -0.0465
 9094W        W25568   0.914   3.970  12.787  0.1614 -0.0633 -0.1143
 9095W        W25569  17.668   6.250  14.659  0.1561  0.0351 -0.1513
 9096W        W25570   9.807   2.772  12.497  0.1973 -0.3353  0.2724
 9097W        W25571   0.285  16.842   1.390 -0.1501 -0.1283  0.1672
 9098W        W25572  10.363  11.973  11.756  0.1824  0.0225 -0.0849
 9099W        W25573  11.045   4.512  14.043 -0.1497  0.1754  0.2934
 9100W        W25574   8.433   9.202  12.682  0.0100  0.0066 -0.2029
 9101W        W25575  17.455   7.066   0.920 -0.1469 -0.0188 -0.3171
 9102W        W25576   3.494   7.867  13.231 -0.2778  0.1002  0.2370
 9103W        W25577   9.420   8.242   5.116  0.0504 -0.2643  0.1128
 9104W        W25578   2.600  11.238   5.058  0.0046  0.4997  0.0706
 9105W        W25579   1.056  12.140   2.758 -0.0492 -0.1724 -0.1926
 9106W        W25580  10.646   3.829  13.079 -0.2483 -0.3566  0.0125
 9107W        W25581   8.786  10.814   2.651  0.1178  0.0573  0.2170
 9108W        W25582   2.624   5.948   5.472 -0.1706  0.2355  0.2779
 9109W        W25583  13.004   4.361  14.644 -0.0707 -0.0257 -0.1748
 9110W        W25584  14.590  11.513  13.162  0.1039  0.0389  0.0616
 9111W        W25585  15.486  18.578   1.125  0.1263 -0.1693  0.0385
 9112W        W25586  15.440   2.319   2.501  0.4692  0.0462 -0.0837
 9113W        W25587   7.035  15.757   2.710  0.0900  0.0123  0.1418
 9114W        W25588  18.828   7.947  12.125 -0.0505  0.0015  0.0959
 9115W        W25589  17.650   3.902   2.505  0.0631  0.2872  0.1771
 9116W        W25590   1.377   1.499  14.983  0.0063 -0.1928 -0.0192
 9117W        W25591  16.801  15.025   5.463 -0.1502 -0.1446  0.0763
 9118W        W25592   6.016  13.903   4.068  0.4456 -0.1639  0.2826
 9119W        W25593   7.086  13.630   0.254 -0.0988  0.2830 -0.2478
 9120W        W25594   3.808  15.647   5.759  0.1158  0.1481 -0.1568
 9121W        W25595  16.672  13.768  13.885 -0.2615 -0.4178 -0.3364
 9122W        W25596  18.525   7.046   0.091 -0.0984 -0.2453  0.0014
 9123W        W25597  17.562  12.585   9.560  0.0058  0.1849 -0.1497
 9124W        W25598   1.854  18.785   0.836 -0.0395 -0.0228 -0.0238
 9125W        W25599   1.193  16.049  13.678  0.3393  0.1312  0.2801
 9126W        W25600   3.293   9.585   1.527 -0.3097  0.1871  0.0745
 9127W        W25601  14.147   6.930  12.093 -0.3650 -0.0550 -0.0228
 9128W        W25602   9.506  17.806  13.252  0.0869  0.0561  0.0692
 9129W        W25603  11.054   7.110  11.995 -0.0407  0.3133  0.0496
 9130W        W25604  15.505  13.914   1.695 -0.0947  0.0655 -0.0102
 9131W        W25605   2.467   9.475  12.548 -0.0803  0.0098 -0.2524
 9132W        W25606  16.892   2.112   4.289 -0.1940  0.1098 -0.0937
 9133W        W25607   0.685   8.689   0.601  0.0158 -0.1775  0.0929
 9134W        W25608   4.180   3.626  12.323 -0.0002 -0.0860 -0.0661
 9135W        W25609   1.670   3.487  13.798 -0.1577  0.2724 -0.3497
 9136W        W25610   6.786   3.095  15.268 -0.0380  0.2161 -0.0866
 9137W        W25611  10.435   7.802  13.088 -0.2039  0.2567 -0.2311
 9138W        W25612   4.007   9.532   2.358 -0.1143  0.2371  0.2018
 9139W        W25613  13.377   1.821   3.507 -0.2215 -0.1762 -0.1781
 9140W        W25614   0.560  10.965  15.170 -0.0530 -0.1809  0.1439
 9141W        W25615  17.006  11.787   2.324  0.0451 -0.3074 -0.2292
 9142W        W25616  18.555   9.888  11.464 -0.1646 -0.1390 -0.1738
 9143W        W25617   4.821  12.498   3.330 -0.2655  0.0948 -0.0304
 9144W        W25618  12.341   3.863  12.313 -0.1605  0.0578 -0.0983
 9145W        W25619   2.906  17.743   5.544 -0.1537  0.1915 -0.2704
 9146W        W25620   5.296   5.002  11.624 -0.0089  0.1362 -0.1571
 9147W        W25621   6.075  10.824   4.612  0.2640 -0.1565  0.4086
 9148W        W25622   9.097   9.034   1.448  0.1381 -0.1941 -0.0924
 9149W        W25623  10.023  11.557  12.721  0.1586  0.2507 -0.1065
 9150W        W25624   7.653   2.252  11.617 -0.0839 -0.0337 -0.2607
 9151W        W25625  17.352  16.186  14.666 -0.2528 -0.4571  0.1879
 9152W        W25626   9.394   6.709  11.113 -0.2337 -0.2772  0.3658
 9153W        W25627  16.191   0.511  11.755 -0.3097  0.4399  0.2355
 9154W        W25628  17.084   8.965  11.504 -0.2280  0.1492  0.3439
 9155W        W25629   8.111   2.492   1.321  0.1869  0.0460  0.1623
 9156W        W25630   5.970   5.378  13.064  0.1124 -0.0558 -0.0874
 9157W        W25631  13.557  12.044   3.023  0.0100  0.0007  0.0002
 9158W        W25632   2.711   0.363  15.053  0.1895  0.0639 -0.2740
 9159W        W25633   1.690   6.196  15.148 -0.0891 -0.0571 -0.0158
 9160W        W25634   5.319  17.701   1.785  0.0685  0.0487  0.4033
 9161W        W25635  13.766  15.413   2.761 -0.0206 -0.0270 -0.1439
 9162W        W25636   3.461   6.357   0.650 -0.1740  0.0050  0.2679
 9163W        W25637  18.102  10.262   1.094  0.3464 -0.1713  0.0572
 9164W        W25638  12.982   8.048   4.772 -0.0805  0.2378 -0.0443
 9165W        W25639   3.889  15.027   1.530 -0.0260 -0.0346  0.2486
 9166W        W25640   1.460  12.920   0.630 -0.0551 -0.1088 -0.4630
 9167W        W25641  12.249   7.335  14.492  0.0593  0.1199 -0.1921
 9168W        W25642   7.481   0.144   2.672 -0.0718  0.0797 -0.0975
 9169W        W25643  10.245  10.678   1.173 -0.0194  0.2294 -0.1205
 9170W        W25644   9.553  17.982  12.107  0.1351  0.1816  0.5512
 9171W        W25645   4.502  15.964  13.206  0.1500  0.2174  0.2310
 9172W        W25646   9.660   0.230   0.043 -0.0056  0.2822 -0.0295
 9173W        W25647   1.823   9.961   0.497 -0.0986  0.4844  0.0016
 9174W        W25648  14.100   7.901  12.124  0.1178 -0.0878 -0.1339
 9175W        W25649   0.923   8.342   2.304  0.0678 -0.3629  0.0200
 9176W        W25650   2.461   9.768   1.540  0.3573  0.2015  0.0101
 9177W        W25651  12.900  18.573   5.454 -0.0532 -0.1490 -0.1506
 9178W        W25652   4.467   1.930   5.985 -0.0691 -0.0597  0.0197
 9179W        W25653   5.914   0.725   4.783 -0.0907 -0.0401  0.2660
 9180W        W25654  10.267  11.211  13.009 -0.0948  0.2197  0.0148
 9181W        W25655   6.710   1.182  14.321  0.3562  0.0844 -0.3617
 9182W        W25656  14.964  14.094   1.670  0.1126  0.1173  0.2605
 9183W        W25657  13.407   5.721   0.052 -0.2596  0.0526  0.0150
 9184W        W25658   7.987   3.478  11.564 -0.0479  0.1287  0.0551
 9185W        W25659  11.789   0.497   2.972 -0.1435 -0.0963 -0.3197
 9186W        W25660  13.081  13.692   1.279  0.1666 -0.2327  0.0993
 9187W        W25661   0.067   0.784  12.336 -0.1264  0.0145  0.1631
 9188W        W25662  14.157   9.855  13.529 -0.0042 -0.0587  0.0281
 9189W        W25663  14.875   7.536  10.882  0.0428  0.0517 -0.2700
 9190W        W25664   6.398   9.389  11.521 -0.0191  0.2283 -0.0148
 9191W        W25665  12.339  11.695  12.142 -0.0742  0.0393 -0.1382
 9192W        W25666  17.591  10.747  14.406 -0.0078 -0.3291 -0.0755
 9193W        W25667   1.342  16.013  11.394 -0.0371 -0.0888 -0.0906
 9194W        W25668  11.215   8.960  15.234 -0.1418 -0.1113 -0.0566
 9195W        W25669  14.835   4.839   2.529 -0.1018  0.1343  0.0996
 9196W        W25670   7.638   9.399  13.227 -0.3187 -0.0503 -0.0166
 9197W        W25671  11.650  15.642  14.969 -0.1303  0.2014 -0.0880
 9198W        W25672  18.677   4.324   3.324  0.0447 -0.0135  0.0578
 9199W        W25673  10.221   5.666   3.602 -0.3585  0.0020  0.0015
 9200W        W25674   2.255  11.382  13.670 -0.2580  0.0283 -0.0236
 9201W        W25675  11.229   4.229   0.658 -0.0960  0.2505 -0.0923
 9202W        W25676   2.479   4.859   2.925 -0.4198  0.1419 -0.5871
 9203W        W25677  17.120   2.528  12.034  0.3684  0.3453  0.1002
 9204W        W25678   9.724  15.594   2.054  0.1419 -0.0180  0.4477
 9205W        W25679  10.998  16.252  13.803  0.0175 -0.4247  0.2924
 9206W        W25680   1.079   9.275   2.626  0.2708 -0.2161 -0.0571
 9207W        W25681  11.628   2.078   3.022  0.2533  0.2944  0.0673
 9208W        W25682  15.610   7.915  11.740  0.1166 -0.3811 -0.1096
 9209W        W25683   7.268  14.127  13.658 -0.1264 -0.0397 -0.2066
 9210W        W25684   7.182   5.126  12.408  0.0453 -0.1616  0.0814
 9211W        W25685   7.472  10.811   0.600  0.0172 -0.1594 -0.0449
 9212W        W25686   0.234   2.078   1.167 -0.3460  0.2386  0.3904
 9213W        W25687   6.039  15.503  11.832  0.1017 -0.1364 -0.1291
 9214W        W25688   1.495   5.554   1.803 -0.2555 -0.1149 -0.3331
 9215W        W25689   0.047  13.698  13.231  0.0905 -0.3314 -0.2543
 9216W        W25690   5.466   2.289  11.879  0.1506 -0.0235  0.1590
 9217W        W25691  18.468  12.932  11.066 -0.0381 -0.1223  0.1475
 9218W        W25692   7.034  15.270   2.586  0.0862  0.3124  0.1344
 9219W        W25693   2.579  16.821  13.289  0.0995  0.0581 -0.2435
 9220W        W25694   4.856   9.523  13.107  0.2447  0.1203  0.1797
 9221W        W25695   9.601   5.724   2.654 -0.0426 -0.0568 -0.0978
 9222W        W25696  16.206  11.697   3.395 -0.0740 -0.1702 -0.0906
 9223W        W25697  15.245  12.353  11.125 -0.0193  0.1699 -0.3471
 9224W        W25698  12.283  11.433   1.360  0.0280 -0.0330 -0.0932
 9225W        W25699  11.952   6.421   3.634 -0.0916  0.3143  0.1553
 9226W        W25700   0.091   3.376  11.374 -0.1630 -0.0575  0.0834
 9227W        W25701   1.761   6.357   5.574  0.1459  0.2043  0.2196
 9228W        W25702   6.009   2.355  12.936  0.0956 -0.0000 -0.1124
 9229W        W25703   9.785  17.947   3.596  0.1590 -0.1544  0.1052
 9230W        W25704   8.797  17.175   0.801  0.2214 -0.3890  0.1713
 9231W        W25705  11.543   8.178   3.645  0.0515 -0.1053 -0.3144
 9232W        W25706  17.633   0.322  11.297 -0.1495 -0.0872  0.0276
 9233W        W25707  18.354   8.465  15.151 -0.2535  0.2420  0.2321
 9234W        W25708  14.002  14.458   2.568 -0.2751  0.1196 -0.0424
 9235W        W25709  16.655   7.647   5.085 -0.1082  0.0623  0.1010
 9236W        W25710   5.958  17.870   4.768  0.1524 -0.1003 -0.1928
 9237W        W25711  15.266  15.724   1.310 -0.4299  0.0943  0.0377
 9238W        W25712  16.051   8.816   0.537  0.1533  0.0040 -0.0651
 9239W        W25713   7.692  11.432  14.195  0.1163  0.2521  0.0340
 9240W        W25714  14.372  17.964  11.475 -0.0686 -0.0208  0.0090
 9241W        W25715   6.428  16.344  11.479  0.0227 -0.3814 -0.1786
 9242W        W25716  10.923   8.581   1.863  0.1137 -0.0963 -0.1851
 9243W        W25717   5.380   6.964   2.439 -0.3070  0.0396 -0.0502
 9244W        W25718   3.503  16.372   1.399 -0.2180 -0.1188  0.0288
 9245W        W25719  15.381  13.745   0.590  0.2782  0.0983 -0.1043
 9246W        W25720   5.670  10.678  12.251 -0.2123  0.1389 -0.1033
 9247W        W25721   3.179   1.461  10.657  0.2033  0.3083 -0.1287
 9248W        W25722   5.972  18.391   1.840  0.5222  0.2409  0.3403
 9249W        W25723  16.195   2.233  15.498 -0.0059  0.0298 -0.0801
 9250W        W25724  11.144   3.097  15.139  0.1885 -0.1358 -0.3781
 9251W        W25725   6.007   9.192   0.554  0.2992  0.1591  0.0369
 9252W        W25726   0.837  11.019   0.825 -0.0248  0.0051  0.0218
 9253W        W25727   8.243  12.399  14.083 -0.1206  0.0524 -0.0439
 9254W        W25728  14.428   5.177  14.774 -0.0234 -0.2633 -0.0322
 9255W        W25729   7.576  10.667  13.715  0.0224 -0.0016  0.1453
 9256W        W25730  15.805   3.650   0.517  0.2769  0.0288  0.1498
 9257W        W25731   1.355   0.088  11.654  0.2279  0.1461  0.1882
 9258W        W25732  13.100  16.565  13.146 -0.6494 -0.1647  0.1444
 9259W        W25733  11.576  12.514  13.466  0.0579  0.0870  0.1777
 9260W        W25734  15.560  11.776   2.116  0.1871  0.1133  0.4221
 9261W        W25735  16.764   7.060   0.300 -0.3866 -0.2139 -0.0490
 9262W        W25736  10.940   5.496   1.116 -0.1001  0.1999  0.0920
 9263W        W25737   6.383  15.105  13.659 -0.0008  0.4284  0.5891
 9264W        W25738   8.181   8.453   3.967  0.2484  0.0407  0.2556
 9265W        W25739  16.501   2.141  10.169 -0.0355  0.1348  0.3806
 9266W        W25740  11.974   3.286  14.647 -0.2098  0.0455 -0.0855
 9267W        W25741  18.804   6.123  10.921 -0.1211 -0.2403 -0.1492
 9268W        W25742  16.774   3.851  10.820 -0.0267  0.2149 -0.5628
 9269W        W25743  14.019   2.473  12.874 -0.0426 -0.4426  0.0640
 9270W        W25744  12.161   9.554   1.188  0.0653  0.1959 -0.2132
 9271W        W25745  14.911  13.400   5.766 -0.0718  0.2673  0.0082
 9272W        W25746  11.033  18.321   4.180 -0.1502  0.2928  0.1872
 9273W        W25747   7.599  10.902  13.105  0.1426 -0.0892  0.1949
 9274W        W25748   8.724  16.809   1.628  0.1244 -0.2228 -0.0763
 9275W        W25749   1.650  12.081   1.039 -0.0704  0.0775  0.0010
 9276W        W25750   6.861   0.658   2.434 -0.1379 -0.3086  0.2149
 9277W        W25751   1.697   0.128  14.048 -0.0910  0.2459 -0.2479
 9278W        W25752  18.545  14.742   1.204 -0.1348  0.1426  0.2907
 9279W        W25753  10.205  16.239   0.856 -0.2150 -0.0473 -0.0258
 9280W        W25754   5.014  13.302   3.951  0.2159  0.0545  0.3086
 9281W        W25755  15.962  12.738  11.421 -0.0151  0.2395 -0.0670
 9282W        W25756  18.212   8.096   2.917 -0.0530 -0.1875  0.5429
 9283W        W25757   9.830   2.635  13.251 -0.0291 -0.4192  0.0204
 9284W        W25758   9.931   2.963   0.782 -0.0099  0.0321  0.4051
 9285W        W25759  10.863   3.268  11.841 -0.1541 -0.0470 -0.0483
 9286W        W25760   5.804  11.105  13.682  0.0239 -0.1365  0.1699
 9287W        W25761   6.341  15.881  12.050 -0.2385  0.3239 -0.2759
 9288W        W25762  11.992   2.878   5.248  0.0193 -0.0584 -0.1987
 9289W        W25763  11.162   0.350   5.895 -0.0625  0.0492  0.1430
 9290W        W25764   8.862   5.230   0.642  0.3382  0.3457  0.0041
 9291W        W25765  13.779   1.516  13.707  0.0398  0.1597 -0.0637
 9292W        W25766  14.549   0.220  11.171 -0.1975 -0.1287 -0.3381
 9293W        W25767   7.183   4.882   3.365 -0.1312  0.1175 -0.1725
 9294W        W25768   6.750   1.587  13.185  0.4040 -0.2139 -0.0033
 9295W        W25769   5.524   1.486  14.517 -0.0186  0.1543  0.0363
 9296W        W25770   9.855  14.627  10.856  0.0337  0.2385  0.2207
 9297W        W25771   8.832  18.691   0.457 -0.1511  0.0242 -0.2648
 9298W        W25772  13.021   1.199  13.214 -0.2429  0.1436  0.1207
 9299W        W25773  10.408   8.202   2.912  0.2303 -0.0949  0.0457
 9300W        W25774   0.418  10.301   5.632 -0.0205  0.0873  0.1261
 9301W        W25775   3.112  17.121   1.391 -0.0092  0.1375  0.0142
 9302W        W25776   4.520   6.995   1.263  0.0264 -0.0372  0.0898
 9303W        W25777   8.395   2.467   5.274  0.0362  0.2558 -0.0418
 9304W        W25778   8.959   6.495   5.342 -0.1098  0.0305 -0.0566
 9305W        W25779   0.890   4.466  14.373  0.0231  0.0664  0.3504
 9306W        W25780   2.332  13.659   4.687 -0.0440 -0.0770 -0.2039
 9307W        W25781  18.407  17.901   1.637  0.0306 -0.0268 -0.1605
 9308W        W25782  14.464   0.709  10.976  0.2678  0.1239 -0.0120
 9309W        W25783  14.856  14.627   3.500 -0.1950 -0.0925  0.2034
 9310W        W25784  13.525  14.393   2.744  0.0369 -0.0491  0.3008
 9311W        W25785   4.193   3.846  15.315  0.2487  0.2795  0.3672
 9312W        W25786  14.484   7.012   3.577 -0.0401  0.0886 -0.0408
 9313W        W25787  16.146  17.363   3.419 -0.2801  0.2717  0.0415
 9314W        W25788  14.784  17.646  12.118 -0.1287 -0.0002 -0.0086
 9315W        W25789  14.499  12.221   1.853 -0.1160  0.0308  0.2496
 9316W        W25790  12.601  15.211   3.581  0.2145 -0.2591  0.3780
 9317W        W25791  18.080  13.213  14.643  0.1163  0.0336  0.0873
 9318W        W25792  10.285  10.624  12.214  0.0405  0.0921  0.0264
 9319W        W25793   1.390   3.722  14.723  0.1378  0.3288  0.0903
 9320W        W25794   3.486  17.537   3.418 -0.0527  0.2217 -0.2728
 9321W        W25795   4.265   2.224   0.222  0.2054  0.1281 -0.2697
 9322W        W25796  18.781  13.747  12.013  0.2155 -0.0807  0.2468
 9323W        W25797   0.007  12.044  15.421  0.0652  0.0719  0.0505
 9324W        W25798   0.346  17.927  12.097  0.3249  0.1297  0.3705
 9325W        W25799   1.724   4.609  15.166  0.3726 -0.1044 -0.2066
 9326W        W25800   2.252   0.540  11.887 -0.3642  0.1963 -0.0792
 9327W        W25801  18.061  11.223   1.723  0.0916  0.0026  0.2535
 9328W        W25802  13.174  14.095  14.180  0.0724  0.1908  0.2478
 9329W        W25803  11.253   9.849  11.867  0.0905 -0.0453  0.2348
 9330W        W25804   1.158   3.305  12.007  0.0465 -0.1437 -0.4658
 9331W        W25805   2.458  14.068   9.725 -0.4276 -0.1365  0.0736
 9332W        W25806   7.794   2.199   1.006 -0.2971  0.0018  0.1086
 9333W        W25807   3.532  16.609  12.773 -0.0048 -0.0754 -0.0023
 9334W        W25808   5.134  13.340  11.162 -0.1215  0.0848  0.1696
 9335W        W25809  13.348  12.126  12.501 -0.1288  0.2239 -0.0423
 9336W        W25810  14.101  18.768  12.385  0.1800  0.1195  0.0335
 9337W        W25811   2.495  12.992   3.089  0.0521  0.0850 -0.0317
 9338W        W25812  17.263   5.104   5.289  0.0674 -0.0753 -0.0263
 9339W        W25813  18.545   1.699  13.455 -0.0864  0.0876 -0.0303
 9340W        W25814   2.963  16.743   2.410  0.1227  0.1668  0.1204
 9341W        W25815   6.279  17.948   0.083 -0.1581 -0.0288 -0.1826
 9342W        W25816   8.361   8.165  14.407 -0.1852  0.0425  0.1477
 9343W        W25817  14.006  16.699  11.642  0.0451 -0.2149  0.3143
 9344W        W25818  16.930   0.336   2.633 -0.1188 -0.1153 -0.0807
 9345W        W25819  10.005   8.433  11.903 -0.1543  0.2211 -0.0992
 9346W        W25820  17.158   1.519   1.127 -0.1921 -0.2325 -0.3139
 9347W        W25821  17.342   3.678  15.278 -0.0703 -0.2306  0.4133
 9348W        W25822   2.261  16.208  14.646 -0.3832 -0.1181 -0.3103
 9349W        W25823   2.009  17.048  12.156  0.1930  0.3927  0.0519
 9350W        W25824   4.416   4.398   1.760  0.0907  0.2066 -0.4034
 9351W        W25825  10.413  11.193   0.018 -0.0112 -0.0854 -0.2577
 9352W        W25826   6.586  12.626  13.401 -0.5326  0.0302  0.1402
 9353W        W25827  15.216   1.570   3.518 -0.1381  0.0106  0.2524
 9354W        W25828  11.183   0.492   4.998  0.0863 -0.0628 -0.4497
 9355W        W25829  15.636  16.082   3.364 -0.0849  0.2087  0.0233
 9356W        W25830   2.792   4.729   0.406  0.0002 -0.4006  0.1691
 9357W        W25831   9.216   5.489   4.371  0.3986 -0.0403 -0.0716
 9358W        W25832   0.316  16.142   2.524  0.1513  0.0433 -0.3913
 9359W        W25833  10.853  10.875   0.342 -0.2266 -0.3277  0.2023
 9360W        W25834  11.337   3.162  11.696  0.0681  0.2474  0.3439
 9361W        W25835   0.922  14.812  12.077  0.0530 -0.2230 -0.2994
 9362W        W25836   1.904   0.862   3.744  0.0114 -0.3462 -0.2129
 9363W        W25837  10.921  18.406  15.296 -0.1535  0.0547 -0.0033
 9364W        W25838   7.111   8.483  11.700 -0.0525  0.0008  0.0497
 9365W        W25839   0.594  15.002  15.451  0.1609 -0.0574  0.1114
 9366W        W25840  17.526   2.941  11.404 -0.1456  0.2279 -0.2800
 9367W        W25841   6.931   3.830  11.374  0.1557 -0.0527  0.1918
 9368W        W25842   2.637   6.779  11.227  0.1959  0.0373 -0.4418
 9369W        W25843   6.610   2.320  13.058 -0.0847 -0.0841  0.2932
 9370W        W25844   0.351   0.932  11.085  0.2814  0.1076  0.1121
 9371W        W25845   2.113   5.609  13.016  0.1520 -0.4991  0.1669
 9372W        W25846  15.690  10.594  11.314 -0.1404 -0.0884  0.1419
 9373W        W25847   0.225   3.199   1.789  0.2128  0.1431 -0.3542
 9374W        W25848  13.326   7.838  13.332 -0.1149  0.1788  0.0470
 9375W        W25849   6.010  16.779  12.181 -0.2841 -0.2743  0.2000
 9376W        W25850   5.203  13.153   0.409  0.1584 -0.0558 -0.0724
 9377W        W25851  11.697  14.342   3.204 -0.2404 -0.0165 -0.2063
 9378W        W25852  16.671   4.133   1.710  0.1990 -0.3293  0.1738
 9379W        W25853   3.919   0.346   3.517 -0.0934 -0.1811 -0.1460
 9380W        W25854   0.022   4.415  10.583  0.0009  0.0332 -0.2046
 9381W        W25855   6.677   8.664   5.273  0.0891 -0.0713  0.0007
 9382W        W25856   8.007   7.233   2.291  0.4064 -0.1746  0.0350
 9383W        W25857   9.660   3.916   0.534  0.1879 -0.0591  0.0936
 9384W        W25858  14.083  18.361   2.216  0.0708  0.1448 -0.1296
 9385W        W25859   7.939   1.121  10.797 -0.0989 -0.2192 -0.0705
 9386W        W25860   4.322  13.249   4.378  0.1326 -0.1579  0.1643
 9387W        W25861   7.101  15.035   5.003  0.3941 -0.1648  0.0774
 9388W        W25862   4.963  10.804  14.140  0.2752 -0.3212  0.1763
 9389W        W25863  15.248  11.098   0.317  0.0519  0.2850 -0.0777
 9390W        W25864   8.129  17.897  11.216  0.0588 -0.0690  0.4879
 9391W        W25865  18.243   2.833  13.641 -0.0684 -0.0479  0.1398
 9392W        W25866   7.896   0.201  14.903 -0.3361  0.1743 -0.3593
 9393W        W25867  12.996   9.345  15.068 -0.1242  0.1721  0.1697
 9394W        W25868   2.892   7.605   1.818  0.1031  0.1464 -0.0607
 9395W        W25869   6.743  10.947   0.990 -0.0661 -0.1206  0.2844
 9396W        W25870   5.750  13.837  13.162  0.1539 -0.0347 -0.1681
 9397W        W25871   5.149  11.912  14.064  0.1647  0.0462 -0.1020
 9398W        W25872  12.170  11.325   4.101  0.3128  0.0718  0.0665
 9399W        W25873   3.449  11.888   1.040  0.3042  0.0460 -0.3910
 9400W        W25874   2.821   7.141  14.055  0.0829 -0.1105  0.3629
 9401W        W25875  18.611  10.000  15.302 -0.2626  0.2923 -0.0629
 9402W        W25876  11.674   9.751   0.342  0.0471  0.1066  0.3586
 9403W        W25877   2.711   2.160   1.573  0.4354  0.1548  0.0851
 9404W        W25878   2.140  15.170  12.314 -0.0020  0.0477  0.0754
 9405W        W25879   7.082  18.603   4.680 -0.1560 -0.1235  0.1972
 9406W        W25880   8.548   7.962  13.494  0.0710 -0.0174  0.2016
 9407W        W25881   3.136   3.125   1.552  0.1627  0.2200 -0.1052
 9408W        W25882   1.084  13.238  14.684 -0.1920 -0.0012  0.2382
 9409W        W25883  10.492   8.504  13.647 -0.1702  0.0189 -0.2061
 9410W        W25884  15.321  17.597  12.557  0.3045 -0.1141 -0.3793
 9411W        W25885   1.080   6.238  12.866 -0.1776  0.2461 -0.0604
 9412W        W25886   8.223   1.400  12.285  0.1198  0.1653 -0.0988
 9413W        W25887  18.167  17.961  13.987 -0.0581 -0.1150 -0.2665
 9414W        W25888   5.361  18.289   3.928  0.0922  0.2722  0.2378
 9415W        W25889  14.108  16.224  14.608 -0.0946  0.0472 -0.2358
 9416W        W25890  16.185  15.456   0.926  0.1561  0.3493 -0.0455
 9417W        W25891   5.636   4.291   4.002  0.2616  0.1413 -0.1244
 9418W        W25892  12.893  11.483   2.928  0.1285 -0.2305 -0.1077
 9419W        W25893   4.647  11.991  14.827 -0.0402 -0.1195 -0.0073
 9420W        W25894  14.236   4.323  10.941 -0.1863  0.2636  0.2840
 9421W        W25895   6.333   3.514  15.414  0.1154  0.1938 -0.0434
 9422W        W25896  14.188  12.983  14.228  0.0936  0.1140 -0.1024
 9423W        W25897  10.625   8.303   3.876 -0.1509 -0.0358 -0.0294
 9424W        W25898  18.272   4.626  12.411  0.0675 -0.3136  0.3326
 9425W        W25899   4.833  10.599   1.243  0.1992 -0.0206  0.1954
 9426W        W25900   0.391   5.174   2.429 -0.2613  0.0169  0.2904
 9427W        W25901   1.444  15.603  12.308 -0.2719  0.1344  0.0658
 9428W        W25902  18.488  16.954   9.633  0.1518  0.0364 -0.2617
 9429W        W25903  17.573   0.654  10.298  0.2720 -0.2085  0.3583
 9430W        W25904   9.655   5.195  14.591 -0.0816  0.2464 -0.2599
 9431W        W25905   2.483  16.584   4.851 -0.4402 -0.0293  0.0487
 9432W        W25906   9.725  15.185   1.796  0.0644 -0.1412  0.2462
 9433W        W25907  12.686  18.138   0.638  0.1462 -0.0223  0.0532
 9434W        W25908   6.694  10.474   1.071  0.3367 -0.1968 -0.1388
 9435W        W25909   3.985   7.347   0.300 -0.1026 -0.0270  0.0006
 9436W        W25910  14.367   0.629  15.194 -0.2507 -0.0162  0.0759
 9437W        W25911   4.297  18.764  13.735 -0.0881 -0.0952  0.0536
 9438W        W25912   2.572   4.542   2.118 -0.0521  0.0015  0.0053
 9439W        W25913   4.110   6.762   3.039  0.1133  0.1846  0.0531
 9440W        W25914   4.141  18.248  10.979  0.2944 -0.2593 -0.0852
 9441W        W25915   8.372   5.793  14.643 -0.1799  0.4072 -0.1030
 9442W        W25916   0.786   7.039   2.615  0.0142 -0.0247 -0.1186
 9443W        W25917   9.657  12.513  12.671 -0.1774  0.1676  0.0935
 9444W        W25918   7.956   5.652   1.350 -0.0552 -0.1941  0.4918
 9445W        W25919   2.899  11.812   1.914  0.0089  0.0579  0.0818
 9446W        W25920  18.655   4.958   1.356  0.2288  0.1318  0.1442
 9447W        W25921   4.930   6.870  12.008  0.2440 -0.2165  0.2290
 9448W        W25922  13.123   1.356  12.070 -0.1529 -0.0057  0.2125
 9449W        W25923   1.280  12.643  11.961  0.2121  0.0479  0.0868
 9450W        W25924   6.403   1.030   3.334 -0.1251 -0.0240 -0.0242
 9451W        W25925   1.211   0.563   5.015  0.4848  0.1857 -0.2105
 9452W        W25926   9.981   0.999   2.384 -0.2354  0.0844  0.2933
 9453W        W25927  17.596   7.217   0.034  0.0494  0.0714  0.0425
 9454W        W25928  17.354   9.408   2.137  0.1443  0.1632 -0.1798
 9455W        W25929  16.079  17.738  12.951  0.0363  0.1931 -0.0190
 9456W        W25930  11.398   8.859   2.459  0.4060  0.0373 -0.2663
 9457W        W25931   6.633   6.394  12.752 -0.1284  0.1339  0.2939
 9458W        W25932   5.152  15.608   3.205  0.3020 -0.0267  0.0206
 9459W        W25933   6.595   0.849   0.706  0.0642  0.2840 -0.1125
 9460W        W25934   4.406  13.133  13.545  0.0878  0.1817 -0.3039
 9461W        W25935  11.354  18.038  11.774 -0.0139 -0.1881 -0.3359
 9462W        W25936   9.181  17.475   0.824  0.1507 -0.1640  0.2462
 9463W        W25937   8.703   2.126   3.490 -0.2481  0.0110 -0.1495
 9464W        W25938   9.757  18.290  13.239  0.3029  0.1944 -0.0274
 9465W        W25939  17.782   2.854  11.960 -0.1286 -0.0924  0.2132
 9466W        W25940   2.625  10.763   1.767  0.2228 -0.1340  0.3402
 9467W        W25941   1.534  12.154  10.660  0.0816 -0.0529 -0.1354
 9468W        W25942  13.104  14.961   4.207 -0.3777  0.0086  0.1230
 9469W        W25943   5.755  10.644  12.776  0.0712  0.0517  0.1798
 9470W        W25944   3.207  13.155  12.815  0.0697  0.0056  0.1550
 9471W        W25945  13.240  17.074  14.870 -0.4786  0.1073 -0.1475
 9472W        W25946  15.631  13.126   4.347 -0.0119  0.0664 -0.0436
 9473W        W25947   6.905   8.328   1.419 -0.0719 -0.1617 -0.1709
 9474W        W25948   6.662   3.309   2.058 -0.3340  0.2278  0.0370
 9475W        W25949  12.446   3.898  11.308 -0.0634 -0.2122 -0.0424
 9476W        W25950  17.089   4.200   2.532  0.1237  0.1769 -0.0100
 9477W        W25951   0.572  17.374   1.666  0.1536 -0.3689 -0.0307
 9478W        W25952  11.592   6.398   5.911  0.0400 -0.0682 -0.1361
 9479W        W25953   0.464  16.715  10.607  0.0695 -0.2973  0.4984
 9480W        W25954   4.682  11.511   3.697 -0.4656  0.0207  0.1475
 9481W        W25955   1.418  11.499   3.240 -0.0196  0.3689  0.2016
 9482W        W25956  18.133  10.246   2.088 -0.0785  0.0657  0.1741
 9483W        W25957   5.538  14.170  11.678  0.0560  0.3529  0.0648
 9484W        W25958   5.792  12.837  13.270 -0.2092  0.2461 -0.1806
 9485W        W25959  11.859   7.474  12.101  0.1165  0.1071 -0.0781
 9486W        W25960   6.826  13.952  10.923 -0.1885 -0.0460 -0.0336
 9487W        W25961   4.954   4.517   1.300 -0.1765 -0.0959  0.2272
 9488W        W25962   5.137  13.494   1.368 -0.1889  0.0321  0.0536
 9489W        W25963   8.404   1.137   2.493  0.0656 -0.1834 -0.0708
 9490W        W25964  18.792  11.533  15.316 -0.1505  0.0800 -0.1537
 9491W        W25965  11.419   5.584   6.523  0.1193  0.2574 -0.1260
 9492W        W25966   8.266   9.236  11.859 -0.0764  0.0909 -0.2698
 9493W        W25967  13.144   6.989  14.040  0.0270 -0.3544  0.2237
 9494W        W25968  13.230   9.812   4.015 -0.0927 -0.0856 -0.0086
 9495W        W25969   8.515   0.601  15.220 -0.4278 -0.0220 -0.1363
 9496W        W25970  10.801   2.108  15.273  0.1013  0.3009  0.4167
 9497W        W25971   2.538   4.940   4.208  0.0470  0.0047 -0.0947
 9498W        W25972  13.538  15.725   0.103  0.2393  0.1120 -0.4522
 9499W        W25973  17.852   9.555   3.251 -0.1561 -0.0049  0.0408
 9500W        W25974   9.743   3.140   3.727 -0.0601  0.1635  0.4451
 9501W        W25975   1.948   4.746  12.593  0.1550 -0.0679  0.0427
 9502W        W25976   8.316   2.472   0.314  0.4223  0.1415  0.0004
 9503W        W25977  10.280   9.388   5.432  0.0667 -0.1711 -0.0796
 9504W        W25978  17.749   9.957   1.799  0.0895 -0.1377 -0.1839
 9505W        W25979   4.235   9.840   0.779  0.1859  0.1800  0.0785
 9506W        W25980  12.988   2.478   0.748  0.0088 -0.0854  0.1452
 9507W        W25981   0.046   8.064   1.422  0.1247  0.1278 -0.1412
 9508W        W25982   9.626  16.969  12.843 -0.1157 -0.0131 -0.1700
 9509W        W25983   6.925   0.512  14.709 -0.0562  0.1040  0.2230
 9510W        W25984   7.566   6.457   0.447  0.3000  0.2403 -0.0861
 9511W        W25985  12.858   3.406   0.789 -0.1925 -0.0723  0.2379
 9512W        W25986  10.049  17.380   1.659  0.0094  0.1269  0.0967
 9513W        W25987   2.159   6.230  11.799  0.2070 -0.1012  0.3369
 9514W        W25988  11.108  14.858  14.827 -0.0977  0.3482  0.3719
 9515W        W25989   2.949  18.272   4.371 -0.0059  0.0306  0.4408
 9516W        W25990  14.727   2.564   3.523 -0.0582  0.0016  0.0347
 9517W        W25991  12.385  15.674  14.582  0.0701  0.2268  0.0055
 9518W        W25992  18.340  11.357  10.139  0.1243 -0.0010  0.2032
 9519W        W25993  17.406   1.044  11.537  0.2080  0.3648  0.1637
 9520W        W25994   4.625   3.870  14.996 -0.3003 -0.2596  0.3564
 9521W        W25995  11.374  13.131  13.842  0.2701 -0.0409  0.1209
 9522W        W25996  13.858  18.184   1.226  0.1622  0.0978  0.1409
 9523W        W25997  10.804  15.420   5.073 -0.0675  0.0766  0.3285
 9524W        W25998   6.342  10.901   5.026 -0.0814 -0.1918 -0.0094
 9525W        W25999  10.588  16.743   3.751  0.2543  0.1197 -0.0961
 9526W        W26000   3.952  11.662  12.727 -0.0357  0.1856 -0.0164
 9527W        W26001   5.501   8.001  15.494 -0.0111 -0.1455 -0.1516
 9528W        W26002  13.560  18.603  14.005  0.0833 -0.2044 -0.3119
 9529W        W26003   2.108  17.974   5.467  0.0101 -0.3175 -0.1411
 9530W        W26004   2.760  14.211   5.271 -0.0829  0.2863 -0.1232
 9531W        W26005  17.586   9.020  10.452  0.3434  0.0341 -0.3410
 9532W        W26006  18.145   5.700  14.197  0.0410 -0.0992 -0.0029
 9533W        W26007   9.525   3.816   5.206 -0.0085  0.2316 -0.0861
 9534W        W26008  14.942   4.569  10.493 -0.2901 -0.0244  0.1428
 9535W        W26009  13.990   0.693  14.139 -0.2840 -0.0152  0.0378
 9536W        W26010   2.359   8.071   3.621  0.1885 -0.2102 -0.2894
 9537W        W26011   9.526   9.666   4.228  0.6474  0.1342  0.3232
 9538W        W26012  12.076   9.496  15.288 -0.1466 -0.1484 -0.0562
 9539W        W26013   4.843   6.550   1.654 -0.2629 -0.4976 -0.0519
 9540W        W26014   5.243  10.517  12.438  0.1178 -0.1323  0.0203
 9541W        W26015   5.523  12.419   3.464 -0.1364 -0.2742  0.3137
 9542W        W26016  12.886  18.383   4.089 -0.0872  0.0118 -0.1315
 9543W        W26017  17.678  12.306  10.730 -0.1419 -0.0023 -0.0623
 9544W        W26018   1.125   7.121   4.462  0.0377  0.2343  0.1832
 9545W        W26019   0.999  13.398  14.160 -0.2285 -0.2635  0.1891
 9546W        W26020   6.457  14.969  11.939 -0.2237  0.0694  0.3312
 9547W        W26021   2.461  18.040   5.869  0.1397  0.0786  0.2428
 9548W        W26022   0.023  16.053  12.393 -0.1785  0.3078 -0.1586
 9549W        W26023  13.118  15.397   3.438 -0.0379  0.1775 -0.2043
 9550W        W26024   8.899  17.709   0.426 -0.0304 -0.0013  0.2907
 9551W        W26025   0.398  12.862   3.666 -0.1547  0.0500  0.2034
 9552W        W26026  13.861   1.878   4.598  0.3454 -0.1377 -0.1301
 9553W        W26027   4.824  15.822   5.103 -0.0260 -0.1300 -0.0056
 9554W        W26028   4.112  10.208   1.498 -0.0504  0.1248 -0.2555
 9555W        W26029   4.020   1.734   1.130 -0.0420 -0.4111  0.0158
 9556W        W26030   4.994  18.036   5.063  0.3525 -0.0912  0.0161
 9557W        W26031   0.873   1.873  13.456  0.2853  0.2049 -0.3758
 9558W        W26032   9.797   6.186  14.236  0.0253 -0.3099  0.3281
 9559W        W26033   6.481  12.695   1.350  0.3055  0.0126 -0.1273
 9560W        W26034  16.472  10.642  10.772 -0.1250 -0.0649 -0.0056
 9561W        W26035  17.751  10.778   3.598  0.0801  0.0107 -0.3108
 9562W        W26036  17.855  14.294   3.664  0.2086 -0.3253  0.2880
 9563W        W26037  15.992   1.946   2.752  0.2447 -0.1138  0.1914
 9564W        W26038  12.644  15.202  13.046 -0.5411  0.0277 -0.1741
 9565W        W26039   7.980   8.278   1.449  0.1395 -0.1234 -0.3156
 9566W        W26040   1.337   8.385   0.941  0.3407 -0.0231  0.2934
 9567W        W26041   3.362  13.383   2.687 -0.0670 -0.0331  0.0951
 9568W        W26042   1.700  16.643   4.287 -0.2068  0.4272 -0.2819
 9569W        W26043   9.235   6.895  15.258 -0.0217  0.0224  0.0221
 9570W        W26044  12.045   9.930  11.409  0.0695  0.0654 -0.0561
 9571W        W26045   7.729   5.422  14.394 -0.0318  0.1846 -0.0296
 9572W        W26046   5.461  15.170  13.276  0.2838 -0.0091 -0.1403
 9573W        W26047  11.192  15.458   2.367  0.4025  0.1093  0.4459
 9574W        W26048  13.812   7.163   1.618 -0.0968  0.2084 -0.3855
 9575W        W26049  18.508   9.654  10.990  0.5034 -0.0414  0.0196
 9576W        W26050   5.166   9.735   2.053  0.0307 -0.0171  0.0194
 9577W        W26051  11.766   6.409  12.711 -0.0941 -0.0626  0.1020
 9578W        W26052  11.273   0.691  13.955 -0.2550  0.2820  0.2036
 9579W        W26053   0.242  13.410  13.668 -0.1098 -0.0715  0.1024
 9580W        W26054   6.483  16.921   3.834  0.1983 -0.1888  0.2754
 9581W        W26055   9.190  11.232  12.818  0.1483  0.0074  0.2978
 9582W        W26056  11.516   8.322   2.372  0.0958  0.2055  0.4054
 9583W        W26057   9.128   9.428  13.456  0.0471  0.3727  0.1727
 9584W        W26058  18.375   7.301  13.864 -0.1839 -0.0691 -0.3228
 9585W        W26059   2.646  18.750  14.034 -0.3153  0.0603  0.0246
 9586W        W26060   7.673  12.282   2.559 -0.0212  0.1277 -0.1288
 9587W        W26061   6.132   2.715  14.540  0.3022 -0.1205 -0.0386
 9588W        W26062  15.536   0.875  11.867 -0.0500 -0.1355  0.1181
 9589W        W26063   8.082   6.174   2.714  0.0950 -0.0589 -0.0122
 9590W        W26064  18.462   2.673   3.287  0.0046 -0.0058  0.0516
 9591W        W26065   1.550   6.158  11.591 -0.0806 -0.0678  0.2086
 9592W        W26066   2.207  18.178   1.388  0.0506 -0.0723 -0.0794
 9593W        W26067   7.090  18.758   1.893  0.3992 -0.2298  0.0105
 9594W        W26068   4.442  10.046  13.487 -0.2049 -0.1995 -0.1882
 9595W        W26069  13.199   7.385   1.662  0.3621 -0.2860  0.0572
 9596W        W26070   0.158   2.929  15.261  0.2132  0.0905  0.3638
 9597W        W26071  14.039   5.084  15.222  0.0011  0.0113  0.0699
 9598W        W26072   9.956  12.048   4.130  0.2207  0.2283 -0.0070
 9599W        W26073  13.014  16.590  12.152 -0.2177  0.0414  0.0903
 9600W        W26074   4.584   9.667   4.126  0.2202  0.0493 -0.2694
 9601W        W26075  14.630  16.762   4.640  0.2151  0.0394 -0.1245
 9602W        W26076   2.817  18.679   0.890 -0.0938  0.2098 -0.1170
 9603W        W26077  18.608  13.603   2.966 -0.0740 -0.3418  0.0903
 9604W        W26078   3.291  15.560   4.097  0.0932  0.1206  0.0006
 9605W        W26079   8.472   2.465   6.096  0.3627  0.0629 -0.1998
 9606W        W26080   7.022  12.256  14.855  0.0446  0.1912  0.0293
 9607W        W26081  15.435  11.168   2.852  0.2317  0.2853 -0.4684
 9608W        W26082  11.145   7.215  13.409 -0.2514 -0.1237 -0.1488
 9609W        W26083  16.316  15.697  13.586 -0.1644 -0.2130 -0.2734
 9610W        W26084  15.643   8.435   2.342  0.1327  0.1069  0.4317
 9611W        W26085   0.398   3.738   5.688  0.1664  0.1322  0.0457
 9612W        W26086   6.184   4.663  11.685 -0.1803 -0.0985 -0.0528
 9613W        W26087   6.201  11.316   4.695 -0.3742  0.1128  0.0975
 9614W        W26088  14.421  12.656  13.918 -0.1667 -0.1333 -0.0845
 9615W        W26089   4.577  11.392   2.515 -0.1472 -0.3436 -0.0966
 9616W        W26090   6.462   9.423   4.787  0.1512  0.1841  0.0453
 9617W        W26091  17.661  18.329  14.163 -0.1936  0.1679 -0.1797
 9618W        W26092  17.072  15.823   4.507  0.0567 -0.1192  0.1405
 9619W        W26093   2.108   5.926   3.777  0.0348 -0.2374  0.0057
 9620W        W26094  13.876  18.025  10.561 -0.0226  0.3210 -0.0202
 9621W        W26095   6.114  17.457  11.026 -0.0066  0.0713 -0.0718
 9622W        W26096  14.589  12.133  12.510  0.2098 -0.1683 -0.0331
 9623W        W26097  11.140   8.446  12.495 -0.1244 -0.2890  0.0055
 9624W        W26098  14.445  18.542   4.511 -0.3388  0.2012 -0.1637
 9625W        W26099  10.311   0.313  14.764 -0.0825 -0.1689 -0.3656
 9626W        W26100  11.661  17.111   3.298 -0.1059 -0.1112  0.0272
 9627W        W26101   9.150   2.379   1.530 -0.2355  0.5195 -0.2615
 9628W        W26102  13.829  11.444   4.296  0.1889 -0.0899 -0.1823
 9629W        W26103  10.132   3.594   1.923 -0.2314 -0.0335  0.0110
 9630W        W26104   1.829  13.475   1.511 -0.0500  0.0163  0.1234
 9631W        W26105   1.581  12.093  13.972  0.3998  0.0473  0.1686
 9632W        W26106  11.448   7.325  11.815 -0.3450  0.0617 -0.3277
 9633W        W26107  11.037   8.081   3.638  0.2075  0.0011 -0.1190
 9634W        W26108  11.220  13.422   5.042  0.2027  0.0936 -0.1023
 9635W        W26109   5.078   0.344  15.186 -0.1937 -0.1001  0.2986
 9636W        W26110  18.241  18.649   4.749 -0.1772  0.1826  0.2026
 9637W        W26111   1.018   1.045   0.904  0.0059 -0.2459 -0.0461
 9638W        W26112  17.002   7.997   4.195  0.2089  0.0481 -0.2625
 9639W        W26113   7.315  17.698   3.501 -0.0125  0.0797  0.1606
 9640W        W26114  10.164  18.438   4.313 -0.1703  0.1892 -0.1493
 9641W        W26115   9.121   3.933   3.806  0.1551  0.1615  0.1641
 9642W        W26116  10.200   7.736  12.641 -0.0976  0.3747  0.2030
 9643W        W26117   0.956   7.540  11.620  0.0830  0.1398 -0.0053
 9644W        W26118   2.429  18.790  15.335 -0.0006  0.0262  0.2138
 9645W        W26119  13.589  10.942  11.736  0.0404  0.1808 -0.1336
 9646W        W26120   0.044   6.628  11.211 -0.0199  0.2509  0.0031
 9647W        W26121   2.781  13.634   3.069  0.1679  0.1194  0.0247
 9648W        W26122  14.706  17.032  11.766  0.0970 -0.1178  0.1014
 9649W        W26123  14.204  10.496  14.150 -0.2199 -0.0595 -0.3646
 9650W        W26124   5.045  14.399  14.543 -0.1751 -0.3940  0.1644
 9651W        W26125   2.584   5.968  11.013  0.2177 -0.0793  0.0308
 9652W        W26126  12.174  17.084  11.046  0.2945  0.3940  0.2785
 9653W        W26127  17.212   3.673  10.051 -0.0795 -0.1852  0.1520
 9654W        W26128   9.932   8.137   3.044  0.2914  0.0826 -0.0795
 9655W        W26129  16.106  16.051   1.368 -0.0745 -0.2619 -0.1006
 9656W        W26130   7.238   9.128   2.175  0.6594  0.1271  0.3113
 9657W        W26131  14.387  11.891  13.505  0.0416 -0.0266  0.0592
 9658W        W26132   9.144   6.384  11.963  0.1142  0.2302 -0.4298
 9659W        W26133  12.272  17.220  13.428  0.0011 -0.0283  0.1624
 9660W        W26134   1.341  10.748  15.199  0.0347 -0.0883  0.2713
 9661W        W26135  10.753  12.037   5.281 -0.0559  0.0917  0.0541
 9662W        W26136   0.674   9.639  13.924  0.1745 -0.1159  0.3961
 9663W        W26137   3.607  16.907   1.315  0.0175 -0.0617  0.1466
 9664W        W26138   0.099  18.121   1.828  0.0096 -0.3625 -0.0889
 9665W        W26139   3.757  13.800  11.794  0.1071  0.1827 -0.1608
 9666W        W26140   8.690  10.418   3.014  0.2212  0.2012  0.1314
 9667W        W26141  16.469   1.745   2.865  0.1491  0.1468 -0.2029
 9668W        W26142   3.073  16.474   3.622  0.1483 -0.4892  0.1783
 9669W        W26143  10.177   9.209  11.846  0.0636  0.2158 -0.0790
 9670W        W26144   5.976   0.999   2.020  0.0427 -0.3425 -0.0812
 9671W        W26145   5.952   2.312  15.499  0.2083  0.3503  0.0103
 9672W        W26146   4.452  16.456   2.233 -0.1922 -0.1272  0.3120
 9673W        W26147  13.689   0.672   1.696 -0.4074 -0.0085 -0.2385
 9674W        W26148   1.334   8.429   1.464  0.1015  0.0601 -0.1035
 9675W        W26149  18.507  13.949   4.879  0.0702  0.1912  0.2571
 9676W        W26150  10.251   2.864  15.260 -0.1305 -0.2285  0.1388
 9677W        W26151  13.290  13.267  11.298  0.3162  0.0606  0.1948
 9678W        W26152   0.345   8.355   0.868  0.0419 -0.1771  0.0807
 9679W        W26153  12.357  12.930   1.309  0.1085  0.0410  0.1671
 9680W        W26154   9.411   3.449   4.031 -0.3715  0.0190 -0.4412
 9681W        W26155  18.667   4.073  13.614 -0.0581  0.1083 -0.1274
 9682W        W26156   3.528   5.322  11.552 -0.0721  0.1493 -0.1545
 9683W        W26157  15.950   6.774  11.894  0.0153  0.0077 -0.1031
 9684W        W26158  10.708   3.648  15.479 -0.1781 -0.1464  0.0612
 9685W        W26159  16.865  12.892  11.796  0.0982  0.0898  0.0870
 9686W        W26160   5.202  17.562   4.017 -0.1736 -0.0508 -0.1917
 9687W        W26161   8.414  13.499   3.045 -0.2189 -0.2664  0.1293
 9688W        W26162   6.660   7.396  13.449  0.0865  0.0030 -0.2354
 9689W        W26163   7.980   5.794  14.189  0.1853  0.0573  0.3387
 9690W        W26164  13.846  11.438   1.087  0.0441  0.2201  0.0306
 9691W        W26165  18.210   6.529   0.772  0.1449  0.0422  0.0353
 9692W        W26166   4.431   3.196  14.889  0.2275  0.0077 -0.0868
 9693W        W26167  15.350  13.648  13.786 -0.2227 -0.3271  0.0349
 9694W        W26168  14.314   3.948   2.470  0.0709 -0.0235  0.1618
 9695W        W26169   1.176  15.445   4.115 -0.1916  0.0077  0.1139
 9696W        W26170   7.797  16.610   4.091 -0.3496  0.1482 -0.2620
 9697W        W26171   8.326   7.150  13.051 -0.2479  0.3246 -0.0176
 9698W        W26172   2.559  16.536  11.891  0.0691 -0.0389  0.0217
 9699W        W26173   3.333   2.036   0.550  0.2021 -0.2723 -0.2674
 9700W        W26174  16.408   7.781   2.064  0.2471  0.1433 -0.0446
 9701W        W26175   9.674  11.641   4.472 -0.1275  0.2045 -0.0209
 9702W        W26176   8.715   1.297  12.338  0.0903 -0.3496 -0.2560
 9703W        W26177  14.880   0.127   2.472  0.0393  0.1947 -0.2760
 9704W        W26178   1.757   6.219   0.175  0.3936 -0.0676 -0.1998
 9705W        W26179  14.861  10.256  13.649 -0.2338  0.0460 -0.3183
 9706W        W26180  10.953   5.002  11.696 -0.0052  0.0518 -0.1726
 9707W        W26181  16.954   8.619   4.668 -0.1959 -0.3684  0.4788
 9708W        W26182  12.430   7.610   3.767 -0.4203 -0.0741  0.1032
 9709W        W26183  16.110  16.109  13.899  0.0798  0.1158 -0.0935
 9710W        W26184  18.445   6.398  11.209 -0.0340 -0.3866  0.1994
 9711W        W26185   3.511  12.177   5.282  0.1080 -0.0509 -0.0058
 9712W        W26186   3.907  12.640   0.026 -0.0901 -0.0771  0.2228
 9713W        W26187   1.291  11.027   2.324 -0.2002  0.1498  0.2487
 9714W        W26188  13.425   5.095  10.311  0.1642  0.1507  0.2357
 9715W        W26189  13.401   8.404  12.214 -0.3311  0.2521  0.0484
 9716W        W26190  13.118  10.927   4.021  0.0301  0.0807 -0.3293
 9717W        W26191  16.518   9.502  13.273  0.1355  0.1257 -0.1084
 9718W        W26192  14.376  12.161  13.888  0.2291 -0.0123 -0.1371
 9719W        W26193   0.637  17.743  14.247  0.0634  0.2582 -0.3639
 9720W        W26194  11.903   8.901  12.588  0.1245 -0.0713  0.4275
 9721W        W26195  14.921   5.776   1.434  0.0831 -0.3222  0.1973
 9722W        W26196  15.621   3.818  10.989 -0.0718 -0.0734 -0.2408
 9723W        W26197   8.615   2.336   2.862  0.0346 -0.0591  0.2318
 9724W        W26198  16.957   5.028  15.388  0.0305 -0.0717 -0.2004
 9725W        W26199  11.647   7.486  10.290 -0.0744 -0.0241 -0.3807
 9726W        W26200  13.044   4.966   3.025 -0.1265  0.0673  0.1372
 9727W        W26201  16.742  14.507   3.798  0.0007  0.3868 -0.1941
 9728W        W26202   5.537   7.389   4.143  0.2316  0.2301  0.4874
 9729W        W26203  10.648   3.766  13.669 -0.0010 -0.0238  0.1698
 9730W        W26204   3.647   4.198   0.562  0.1691 -0.1391 -0.0245
 9731W        W26205   3.863   6.052   1.939 -0.4074 -0.0197  0.1722
 9732W        W26206   5.569   0.781  11.768  0.2725  0.0045  0.3513
 9733W        W26207   9.387   2.731   2.396  0.3371 -0.0409  0.1923
 9734W        W26208   2.336   6.629  13.334  0.0266 -0.0517  0.0845
 9735W        W26209  12.654  12.841  13.722 -0.1440 -0.2506  0.0897
 9736W        W26210   5.479  18.109   5.067  0.0922 -0.3557 -0.3957
 9737W        W26211  10.316  13.304   5.117 -0.0968 -0.5073  0.1377
 9738W        W26212  10.351   3.682   3.468 -0.2337 -0.2895 -0.1667
 9739W        W26213  17.781   7.122  11.858 -0.4005 -0.2668 -0.0830
 9740W        W26214   4.771   7.500   3.197 -0.0482  0.1668 -0.0040
 9741W        W26215  12.040   2.070   2.726 -0.1153 -0.1889  0.1136
 9742W        W26216   1.657   5.554  10.703 -0.0938 -0.2408  0.0805
 9743W        W26217   4.654  17.458  10.640  0.4201 -0.1236 -0.1775
 9744W        W26218  11.071   2.759  12.444  0.1553 -0.0076  0.2383
 9745W        W26219   9.565   3.920  14.426 -0.2214  0.1277  0.1694
 9746W        W26220  10.640   0.833  15.206  0.1542 -0.1255  0.2205
 9747W        W26221   8.800   8.213   1.227 -0.0162  0.0056  0.2354
 9748W        W26222  14.947  11.361  10.881 -0.1330 -0.2780 -0.1273
 9749W        W26223   2.719   9.021  13.256  0.2058 -0.2999  0.4148
 9750W        W26224  13.808   5.489   3.458  0.0044 -0.3249 -0.0081
 9751W        W26225   2.399  13.958  13.003  0.0226  0.1886 -0.0717
 9752W        W26226   1.372   6.060   4.817 -0.0472  0.0405 -0.2355
 9753W        W26227  18.173  16.359  14.984 -0.0264 -0.0968  0.2311
 9754W        W26228  16.172   5.579  11.150  0.3359 -0.0339 -0.2786
 9755W        W26229  12.610  13.356  13.432 -0.0164 -0.0958  0.1228
 9756W        W26230   2.041  16.684   0.173  0.0380 -0.0004 -0.3039
 9757W        W26231  16.129   5.951  10.765 -0.1481  0.0331  0.0040
 9758W        W26232   5.506  11.276  12.945 -0.1188  0.0879  0.2461
 9759W        W26233  17.594   8.239   2.630 -0.1298 -0.0316  0.2260
 9760W        W26234   2.313   9.486   3.423 -0.1359  0.1528  0.1057
 9761W        W26235   0.010   8.145   0.113 -0.1783  0.2410  0.3162
 9762W        W26236   4.559  10.962   3.255 -0.1709  0.3006  0.0148
 9763W        W26237   0.008   1.640  10.606 -0.1287  0.4213  0.0321
 9764W        W26238  13.942   9.362   2.573  0.1702 -0.2064  0.1646
 9765W        W26239   3.734   7.435   4.009 -0.1605 -0.1606  0.0157
 9766W        W26240  15.996   1.769  15.456  0.1798 -0.0466  0.1684
 9767W        W26241  10.973  10.387  15.635 -0.3399  0.0506 -0.0069
 9768W        W26242  18.642   2.048   1.877  0.1594  0.0156  0.0500
 9769W        W26243  10.242   4.928  14.332 -0.1019  0.0426  0.2084
 9770W        W26244   2.162   6.425   2.839  0.2208 -0.0728 -0.1722
 9771W        W26245  18.803  14.032   3.749  0.1017 -0.0713  0.1622
 9772W        W26246   6.717   6.231  13.388  0.3958  0.0641  0.3411
 9773W        W26247  17.715  10.123   2.786  0.0333  0.1697  0.0360
 9774W        W26248   0.220   6.735  10.634 -0.0798 -0.0362  0.4628
 9775W        W26249  14.587   2.328  15.272 -0.3190 -0.2947  0.0904
 9776W        W26250   4.367   9.914  14.370 -0.1747 -0.0593 -0.2448
 9777W        W26251  16.128   9.901  11.924 -0.3543  0.1808 -0.3122
 9778W        W26252   4.312  14.767   5.845 -0.0795  0.0114  0.1003
 9779W        W26253   1.528   7.211  11.105  0.2402 -0.1990 -0.2558
 9780W        W26254   9.061  18.745   3.278 -0.3404  0.1428 -0.1975
 9781W        W26255   0.677   8.586   2.652 -0.0197 -0.1350 -0.1618
 9782W        W26256  18.279  11.908   4.329 -0.1842 -0.3366 -0.1827
 9783W        W26257  17.156  18.623   3.791  0.0322 -0.1401  0.4952
 9784W        W26258  10.937   2.864   5.130  0.2338  0.3029 -0.0120
 9785W        W26259  13.316  16.202  12.799  0.2716 -0.1812  0.0120
 9786W        W26260  11.024  12.301   4.815 -0.2415 -0.0648  0.3225
 9787W        W26261   8.541   4.761  12.942  0.1800  0.3513  0.0734
 9788W        W26262  16.740   0.514   2.112 -0.2777 -0.1021  0.0751
 9789W        W26263  14.147   7.470   2.957 -0.1727  0.0799 -0.0467
 9790W        W26264   6.788   8.720   0.669 -0.2329  0.4016 -0.0362
 9791W        W26265  16.871   3.151  12.925  0.1432 -0.1027 -0.1895
 9792W        W26266   7.607   3.256   1.074 -0.0394 -0.0804  0.2075
 9793W        W26267   8.649  12.564   1.331 -0.1323  0.1311  0.0337
 9794W        W26268   1.486  11.969   4.655  0.1301 -0.0092  0.4412
 9795W        W26269   1.258  18.706  13.400  0.2074  0.1310 -0.1290
 9796W        W26270  10.874  18.194  12.597 -0.0940  0.0693 -0.2042
 9797W        W26271   2.306   1.356   1.511  0.0319  0.0853 -0.0029
 9798W        W26272   4.637  12.582  12.355  0.0886  0.2709 -0.0909
 9799W        W26273   6.163   4.125  13.113 -0.0893 -0.3659  0.0212
 9800W        W26274   8.624  12.527   2.505  0.1099 -0.1494  0.3393
 9801W        W26275   2.154   7.485   0.402  0.0122 -0.2006 -0.3391
 9802W        W26276   8.906   1.704   4.616 -0.1209 -0.0148 -0.1199
 9803W        W26277  11.770  11.528   0.377  0.1414 -0.0025 -0.0521
 9804W        W26278   0.418   4.737  15.266 -0.0272 -0.0822  0.0068
 9805W        W26279   4.591   5.114   0.502  0.0298  0.2306  0.1769
 9806W        W26280  11.273   5.597  13.693 -0.0797  0.2414 -0.0407
 9807W        W26281  15.391   8.017  14.549  0.1903 -0.3806  0.4426
 9808W        W26282   5.605  10.789   1.751  0.1004 -0.1506  0.0038
 9809W        W26283  12.591  14.923  12.652  0.0900  0.0434 -0.1899
 9810W        W26284  12.628  17.335   3.872 -0.1256  0.0149  0.1161
 9811W        W26285   1.999  10.023   3.808  0.0304  0.0451 -0.1577
 9812W        W26286  18.622   8.444  10.415 -0.3109  0.0025  0.2457
 9813W        W26287   9.763  17.457  13.014  0.1510  0.3799  0.2778
 9814W        W26288   5.606  17.129   4.382  0.2580  0.0777  0.1344
 9815W        W26289  12.944   5.290   2.627 -0.1131 -0.2481  0.0289
 9816W        W26290   8.933  14.338  14.878 -0.0021  0.0649  0.5382
 9817W        W26291   4.074  11.291  13.134  0.2980  0.0680  0.4740
 9818W        W26292  15.905   5.536   2.305  0.1680  0.1006 -0.0457
 9819W        W26293   2.237   8.765  13.360  0.0261  0.1647 -0.1159
 9820W        W26294   0.097   5.411   2.130  0.1604  0.1357  0.1544
 9821W        W26295  10.287   5.939   2.110 -0.0102  0.1327  0.0131
 9822W        W26296  18.012   8.942  13.874  0.1387  0.2400 -0.2926
 9823W        W26297  15.393  12.844  14.311  0.3286 -0.1290  0.1690
 9824W        W26298   4.307  10.668   1.349 -0.0252  0.0453 -0.0959
 9825W        W26299  17.234   9.400  10.514  0.0840  0.2009  0.2990
 9826W        W26300  11.349  14.940  14.432  0.1509 -0.2726  0.0137
 9827W        W26301  10.519  11.524  12.011 -0.0359 -0.1096 -0.1215
 9828W        W26302   9.522  18.188  11.656 -0.2052 -0.2308 -0.0202
 9829W        W26303   3.623  10.357   1.460  0.0042  0.2940  0.2513
 9830W        W26304  17.611   5.244  12.511 -0.2248  0.0802 -0.1265
 9831W        W26305   0.633   2.412   0.371 -0.0461 -0.0653  0.0931
 9832W        W26306  11.356   6.112  12.581  0.2536  0.1988  0.0023
 9833W        W26307  17.356  14.304  10.701  0.0003  0.0365 -0.0720
 9834W        W26308  17.862   3.384   2.266  0.0262  0.3367 -0.0142
 9835W        W26309   1.564   7.674   0.543  0.1194 -0.1211 -0.0481
 9836W        W26310  14.247   6.984   4.705 -0.4493  0.0058  0.1079
 9837W        W26311   5.640   1.893   4.112  0.1196 -0.0318 -0.1607
 9838W        W26312  16.692   7.792  13.268 -0.1099  0.2070 -0.0334
 9839W        W26313  18.513   4.892  12.019 -0.3793 -0.0914 -0.2471
 9840W        W26314  14.504   6.041   1.424  0.0531  0.1936 -0.1079
 9841W        W26315   4.509   1.781  14.218 -0.1042  0.1123  0.0495
 9842W        W26316   4.920   6.687   2.662  0.1205  0.1670  0.0783
 9843W        W26317  13.603  11.436  15.332 -0.2925  0.1963 -0.1857
 9844W        W26318   1.043   2.602   2.077  0.2013 -0.1026  0.2600
 9845W        W26319   0.188  17.572   4.317 -0.0181  0.0725 -0.0007
 9846W        W26320  14.190  13.740   3.336 -0.0539 -0.3206 -0.0745
 9847W        W26321  15.250  17.935  14.514  0.0376  0.3170 -0.1482
 9848W        W26322   9.668  14.728   4.592 -0.2167  0.4245  0.2412
 9849W        W26323   1.762  16.247   1.057  0.1210 -0.1363 -0.0556
 9850W        W26324  10.474  10.767   2.250 -0.0433  0.3565  0.0744
 9851W        W26325   0.948  16.715  11.891  0.2287 -0.0166 -0.0287
 9852W        W26326   7.068   0.852  13.669 -0.3491 -0.1228 -0.1223
 9853W        W26327  11.622  13.099  12.427  0.0640 -0.0291 -0.5630
 9854W        W26328  18.345  12.021  12.972 -0.1680  0.0702 -0.2207
 9855W        W26329   4.573   0.520   0.489  0.2442 -0.1579 -0.1225
 9856W        W26330   3.745  18.404  12.187  0.2221 -0.1347 -0.4541
 9857W        W26331  17.687   2.842   2.214 -0.1586  0.0668 -0.0068
 9858W        W26332  12.064   3.479   5.968  0.3202  0.0564  0.1043
 9859W        W26333   3.602  18.717   3.563 -0.0754  0.2781 -0.0635
 9860W        W26334   0.411  17.685  13.647  0.0375 -0.1711  0.0952
 9861W        W26335  12.125   2.280  11.715  0.1403 -0.0520  0.1771
 9862W        W26336   4.234   6.982  14.758  0.0737 -0.0714 -0.0568
 9863W        W26337   9.669  18.492   4.446 -0.3408  0.3868 -0.1971
 9864W        W26338   5.187   7.873   2.140 -0.2620  0.2584 -0.1667
 9865W        W26339  17.710   5.984   5.020 -0.0454 -0.4438 -0.3184
 9866W        W26340   2.576   0.563  14.609  0.0329 -0.1371 -0.3760
 9867W        W26341   4.135  12.096   3.896 -0.2925  0.0512 -0.1717
 9868W        W26342   6.009  14.008   3.545  0.1475  0.0919  0.0584
 9869W        W26343  18.665   3.210  15.544 -0.0450 -0.0983 -0.0688
 9870W        W26344   5.664   8.207   2.458  0.0517  0.1878 -0.4753
 9871W        W26345   0.987  17.179   1.806  0.2610 -0.3334  0.2972
 9872W        W26346  10.705  10.348   5.037 -0.1838  0.0294  0.0176
 9873W        W26347   1.018  18.094  14.201  0.3073  0.1546  0.2683
 9874W        W26348  16.180   5.370   3.919 -0.2585 -0.0757 -0.1136
 9875W        W26349   1.065  13.987   2.494 -0.2464 -0.0951  0.1158
 9876W        W26350   3.250   6.450   3.752 -0.1195  0.0440 -0.1474
 9877W        W26351   6.864  14.154   5.079  0.1500 -0.1790  0.2394
 9878W        W26352   3.364   1.698   4.799  0.2350 -0.0990 -0.3070
 9879W        W26353   6.375   1.596   3.398  0.0044 -0.1917 -0.1907
 9880W        W26354   1.987   4.026  14.479  0.2240  0.1632  0.3899
 9881W        W26355  10.981   4.890  13.076 -0.1796 -0.1738 -0.1934
 9882W        W26356  11.129  15.821  12.684 -0.0614  0.1698  0.0489
 9883W        W26357  12.172  10.662   5.533  0.0353 -0.0730  0.0174
 9884W        W26358   1.139  11.693  12.036 -0.0456  0.1052  0.0795
 9885W        W26359   6.369   6.346   1.939  0.2891  0.1573  0.0689
 9886W        W26360  14.112  16.545  12.849  0.1847 -0.0251  0.0019
 9887W        W26361   2.646  14.435  12.450 -0.3938  0.1213  0.1310
 9888W        W26362  17.082  12.500  10.680  0.0226  0.0400  0.0560
 9889W        W26363  18.358   5.594   0.274  0.0584  0.0361  0.1825
 9890W        W26364  14.266   0.773  14.746  0.3171 -0.0449  0.1780
 9891W        W26365  16.928  10.526   9.600 -0.2778 -0.0492 -0.2773
 9892W        W26366  13.891   2.738   0.543  0.0613 -0.2972 -0.0744
 9893W        W26367  17.109   2.844   1.358  0.0164 -0.1643 -0.2403
 9894W        W26368   7.879   8.593  15.130 -0.0869  0.0118  0.3706
 9895W        W26369   2.938  10.773  11.998 -0.2592 -0.0547 -0.0414
 9896W        W26370   0.532   9.939   0.339 -0.0840  0.2130 -0.2611
 9897W        W26371  14.260  11.821  12.274 -0.0798 -0.0844  0.2447
 9898W        W26372   1.216   6.508  15.160 -0.3562  0.0002  0.2335
 9899W        W26373  17.809   3.311   1.695  0.1039 -0.2490  0.1977
 9900W        W26374   6.610   3.545  12.288 -0.1983  0.0615 -0.0154
 9901W        W26375  15.290  16.436  14.861  0.0234 -0.1840 -0.0287
 9902W        W26376  12.450  13.205  10.174  0.0744 -0.3283 -0.0979
 9903W        W26377   0.331  15.664   1.582 -0.2869 -0.0551  0.0458
 9904W        W26378  18.111  17.618   4.236 -0.2733  0.5504 -0.1099
 9905W        W26379   2.627  14.979  12.496  0.0096 -0.2044  0.1005
 9906W        W26380  16.531   8.311   2.046  0.2386 -0.0438  0.1263
 9907W        W26381   3.866   1.128  15.628 -0.2684 -0.0470  0.0854
 9908W        W26382   0.038   4.733  11.077 -0.2732  0.2253  0.0818
 9909W        W26383  18.002  17.006   3.639  0.1764 -0.2318  0.0912
 9910W        W26384  10.205  15.992   5.604 -0.2186 -0.2374 -0.1961
 9911W        W26385  12.133   5.687   4.576 -0.3624 -0.1883 -0.1002
 9912W        W26386  12.465  18.122  15.647 -0.0794  0.0974 -0.0894
 9913W        W26387  14.344   2.835  14.006  0.2312  0.0614  0.1175
 9914W        W26388  17.547  16.417  11.778  0.2573  0.0257 -0.0626
 9915W        W26389  17.538  12.132   4.945 -0.2738 -0.2030  0.1038
 9916W        W26390  11.272   5.113   1.801  0.1191  0.1981 -0.0634
 9917W        W26391   8.113  14.451  13.913  0.1723  0.0603 -0.2306
 9918W        W26392   7.927  18.130  14.511  0.0125  0.0779 -0.0999
 9919W        W26393  15.212   1.063  15.487 -0.0274 -0.1312 -0.3655
 9920W        W26394  14.667   5.100  12.182  0.1732 -0.1079  0.0163
 9921W        W26395  18.754   4.647  15.395  0.0830 -0.0808  0.1458
 9922W        W26396  12.857   8.683  10.803 -0.2755  0.0790 -0.1156
 9923W        W26397  14.481  14.558  12.619 -0.0554  0.0563  0.0264
 9924W        W26398  10.306   9.508   2.681 -0.0956 -0.0199 -0.0967
 9925W        W26399  16.465   6.376  15.669  0.1380 -0.1892 -0.1732
 9926W        W26400   4.517   9.137  13.256 -0.2208  0.1990  0.0663
 9927W        W26401  15.313   1.285   1.145 -0.3128 -0.0667  0.1144
 9928W        W26402  11.848  11.350   3.395  0.1019 -0.1652  0.3681
 9929W        W26403   9.037  17.699  12.933  0.0131  0.2188 -0.0424
 9930W        W26404   8.885  16.519  13.933 -0.1139 -0.1333  0.1266
 9931W        W26405  14.956  13.552   4.459 -0.1642  0.0464 -0.0876
 9932W        W26406   7.735   4.546   3.919  0.2512  0.0284 -0.0792
 9933W        W26407  18.192   3.648   4.649  0.1359 -0.0844 -0.0037
 9934W        W26408  11.867   2.690  11.676  0.1037 -0.1977 -0.1183
 9935W        W26409   7.443  12.782   1.245 -0.2014 -0.1533 -0.0637
 9936W        W26410   6.799   3.901   3.736  0.0143  0.2802  0.0344
 9937W        W26411  18.766   8.731   2.211  0.0215  0.4147 -0.0179
 9938W        W26412   8.438  15.818   4.651 -0.1934  0.1569 -0.0598
 9939W        W26413   8.599   5.930   3.858  0.1369  0.0785 -0.0388
 9940W        W26414  13.768  12.428  11.400 -0.2337  0.0105  0.4795
 9941W        W26415   6.257  14.724   2.164 -0.4081  0.2924  0.0372
 9942W        W26416  14.935   6.359  12.165 -0.2221  0.0965 -0.1254
 9943W        W26417  17.526   0.043  12.717  0.1524  0.0093  0.2141
 9944W        W26418  10.336   4.974  14.865 -0.2639  0.0048 -0.1239
 9945W        W26419  11.514   7.855  13.054  0.0361 -0.0008 -0.2053
 9946W        W26420   6.386  14.889   0.168  0.1725  0.0370 -0.1757
 9947W        W26421  13.609   7.581  15.026  0.1364  0.1992  0.0945
 9948W        W26422  12.264  18.801  13.386  0.2371  0.1370 -0.3155
 9949W        W26423   1.591  14.261   0.374  0.1382  0.0438 -0.1855
 9950W        W26424   4.245   3.917   1.484  0.0375  0.1961 -0.1178
 9951W        W26425  10.140   6.289  13.319 -0.0470 -0.0022 -0.1105
 9952W        W26426   4.183  16.267   4.617  0.0732 -0.1008  0.0375
 9953W        W26427  12.285  10.652   1.139 -0.2085  0.1063 -0.0081
 9954W        W26428   6.465   5.299   3.495 -0.0181  0.1604 -0.1404
 9955W        W26429  12.033  13.179   4.585 -0.0548 -0.3401  0.0348
 9956W        W26430  17.463  14.957  14.310 -0.0822 -0.2812  0.0988
 9957W        W26431  13.896   1.832  11.103  0.3107 -0.0762 -0.0973
 9958W        W26432   2.890   0.128  11.039  0.2867 -0.1329 -0.1211
 9959W        W26433   6.832   4.522   5.512 -0.0690 -0.3636 -0.1731
 9960W        W26434  12.263  14.879   3.875 -0.1299  0.4029 -0.0227
 9961W        W26435   0.122   2.358   0.195  0.0196  0.2564  0.1015
 9962W        W26436   9.964  16.261  12.178 -0.1578 -0.1628 -0.0857
 9963W        W26437   3.601  17.393  15.608  0.0483 -0.0555 -0.2600
 9964W        W26438   7.313   8.005  11.864 -0.3058 -0.1622 -0.1129
 9965W        W26439   2.359  15.604  13.555 -0.0559  0.0130 -0.0781
 9966W        W26440   9.681  11.873   6.093 -0.0818  0.3978  0.1552
 9967W        W26441   4.320  15.879   5.042  0.1931 -0.1495  0.4222
 9968W        W26442  18.630  10.642   3.179 -0.0261  0.0638 -0.2909
 9969W        W26443  15.000  14.748  14.206 -0.1763  0.0874  0.0711
 9970W        W26444   5.526  17.131   5.168 -0.0229 -0.2600  0.0302
 9971W        W26445   7.069   0.932   0.830  0.0863  0.2990  0.1078
 9972W        W26446  18.047   2.798   1.569  0.1480 -0.0384  0.4633
 9973W        W26447  18.194  12.748  14.947 -0.0179  0.2670 -0.5726
 9974W        W26448   0.672  13.395   3.071 -0.1883 -0.1116  0.2382
 9975W        W26449   1.998  10.750   1.235 -0.4450  0.1719  0.0691
 9976W        W26450   5.002  13.653   1.893  0.0116  0.2546 -0.1010
 9977W        W26451  14.852   8.365  12.318  0.1901  0.1145  0.0207
 9978W        W26452  10.937   6.374  13.352  0.1431  0.0486  0.0887
 9979W        W26453  13.680   4.667   2.444  0.2408 -0.0066  0.1386
 9980W        W26454  16.844   5.801   3.501  0.1654 -0.1105  0.0050
 9981W        W26455   7.033   0.878  12.668  0.0345  0.1631  0.0063
 9982W        W26456  18.503   6.500  14.292 -0.3309  0.5487 -0.0232
 9983W        W26457  10.266   1.148  13.791  0.0219 -0.1217 -0.0089
 9984W        W26458  12.771   9.018   0.357 -0.0325  0.2320  0.0116
 9985W        W26459   3.989  15.180  12.792 -0.1495 -0.0812  0.2732
 9986W        W26460   8.597   0.601  11.854  0.1932  0.0641  0.3083
 9987W        W26461   6.395  18.213  12.836 -0.0764 -0.1717 -0.0873
 9988W        W26462   0.567   3.929  13.646 -0.0595 -0.2011  0.1694
 9989W        W26463   9.015  12.489  10.638  0.1178  0.2846 -0.1689
 9990W        W26464   5.963   4.074   3.725 -0.3329  0.3826 -0.3572
 9991W        W26465   5.395  16.035   0.491 -0.0331 -0.0629  0.0232
 9992W        W26466   0.749  11.749   2.001 -0.0017  0.1652  0.1131
 9993W        W26467  14.169  11.188   1.409  0.1087 -0.0368  0.0064
 9994W        W26468  17.061  17.213  10.670  0.2841  0.4862  0.2076
 9995W        W26469   3.813  17.218  11.819 -0.2654  0.2975  0.0941
 9996W        W26470   5.736   1.578   3.390 -0.1221 -0.1909  0.0101
 9997W        W26471  17.275   4.182  12.071  0.1073  0.0427  0.1748
 9998W        W26472   6.121  16.577   3.747  0.1243 -0.0578  0.2008
 9999W        W26473  16.229   8.685  13.421  0.2016  0.1693  0.3855
10000W        W26474  11.754   3.198   1.382  0.1353  0.1556  0.0185
10001W        W26475  10.328   4.224   3.407 -0.2053  0.1038 -0.2072
10002W        W26476  13.017   3.657  13.029  0.0490  0.2491 -0.2042
10003W        W26477   2.921  16.510   0.163 -0.1050 -0.0524  0.3053
10004W        W26478   3.485  12.432  13.045  0.1044 -0.1615  0.0851
10005W        W26479  10.680  14.306   4.087 -0.0403 -0.0094 -0.0572
10006W        W26480  15.795   1.116   1.175 -0.0777 -0.2074  0.1754
10007W        W26481  17.763   8.895  15.588  0.1201  0.3591 -0.1758
10008W        W26482   6.829   4.222   2.782 -0.2495  0.2215  0.3847
10009W        W26483  16.118   4.638   2.642 -0.4611 -0.2106 -0.0013
10010W        W26484  17.351  16.352   3.917 -0.0213 -0.0888  0.2506
10011W        W26485  15.292  14.053   3.956 -0.0757  0.1630 -0.1470
10012W        W26486   3.131   5.799  15.050 -0.0492  0.0986  0.0265
10013W        W26487  14.366   5.089  10.802  0.1806  0.2744 -0.0719
10014W        W26488   8.865  12.094   1.330 -0.1109  0.1987  0.1683
10015W        W26489  11.308   2.433  11.641 -0.0013 -0.0614  0.0764
10016W        W26490  13.546  17.995  14.684  0.1174 -0.0949  0.0363
10017W        W26491   6.320   3.703   1.410  0.0102  0.2849 -0.1749
10018W        W26492   6.974  18.795  14.966 -0.4367  0.0543 -0.0097
10019W        W26493   4.516  18.161   1.741  0.0721 -0.0593  0.1106
10020W        W26494   3.396   4.517  15.410  0.0828 -0.2790  0.2250
10021W        W26495  12.410  11.866   3.493  0.0752 -0.0341 -0.2680
10022W        W26496   0.816  18.443  15.105  0.0691  0.0237 -0.3145
10023W        W26497   5.893   3.635   0.999 -0.4801  0.0430  0.0790
10024W        W26498  13.224   6.863   2.434  0.0516  0.0589 -0.0401
10025W        W26499  15.013  17.772   0.849 -0.1029 -0.1425  0.0166
10026W        W26500   6.898  15.751  11.132 -0.0987 -0.2685  0.2899
10027W        W26501   7.308   4.277   2.578 -0.2253 -0.1350 -0.0763
10028W        W26502   0.680   2.570   3.808 -0.0771  0.0426 -0.0004
10029W        W26503   2.497  16.030  15.203  0.1226 -0.1333 -0.0572
10030W        W26504  12.016  15.623   2.770 -0.0310 -0.0903  0.2024
10031W        W26505  15.543  11.294   4.090  0.4614 -0.1428  0.2677
10032W        W26506   6.182   1.078  14.614  0.0804  0.1625  0.0040
10033W        W26507   3.907   2.380   3.464  0.2030 -0.0377 -0.0820
10034W        W26508  14.200   6.697   0.839  0.1945  0.1541  0.2068
10035W        W26509   4.251   0.829   0.807  0.4350  0.0567  0.1330
10036W        W26510   7.473   6.775  11.447  0.1345  0.0995 -0.0590
10037W        W26511   1.646   6.202   2.052  0.1260  0.3181 -0.3480
10038W        W26512   5.682  14.041   0.308  0.1548 -0.0246  0.1174
10039W        W26513   8.739   3.041  11.550  0.0479 -0.0472  0.0541
10040W        W26514  13.066   6.269   9.872  0.0177 -0.1561  0.1976
10041W        W26515  16.547  14.958  14.630 -0.1980 -0.0611  0.0200
10042W        W26516  17.786  18.050   1.066 -0.0674 -0.0756  0.2096
10043W        W26517   4.527   5.014  11.679  0.2092  0.0163  0.1513
10044W        W26518   3.673   4.809   1.975 -0.1373  0.1955  0.3858
10045W        W26519  15.114  15.476  14.470  0.4503 -0.2471 -0.0053
10046W        W26520  11.872   2.450  12.973 -0.2258  0.0273 -0.0886
10047W        W26521   0.523  16.211  15.368  0.1832  0.0733  0.0082
10048W        W26522  12.006  17.158   1.746  0.0818  0.1454 -0.1916
10049W        W26523  15.272  15.693   5.002  0.0095  0.0666 -0.1842
10050W        W26524   6.682   5.154  14.930 -0.2621 -0.1277 -0.0892
10051W        W26525  14.279  11.261   3.733 -0.0776  0.3544  0.1241
10052W        W26526   1.532  16.948  15.614  0.1129 -0.0129  0.2838
10053W        W26527  12.512   1.723  15.508  0.1899 -0.1116 -0.0218
10054W        W26528  13.544   2.338   3.432 -0.1519  0.1553  0.0963
10055W        W26529  14.071   7.672   2.149  0.0189 -0.0449  0.2140
10056W        W26530   0.383   5.779   0.292  0.0418 -0.0549 -0.3113
10057W        W26531   1.351  18.505   3.856 -0.2872 -0.0332  0.1862
10058W        W26532   4.346   1.733   0.600  0.1076  0.1453 -0.0553
10059W        W26533  10.937   2.879   1.825  0.3377  0.1934 -0.1979
10060W        W26534   3.340   7.791  12.328 -0.2245  0.1016  0.2016
10061W        W26535   5.011   3.143   0.013 -0.1240 -0.1165 -0.3118
10062W        W26536  14.969   6.676  11.738  0.0383  0.1590 -0.1731
10063W        W26537  17.602   1.183   2.312  0.1882 -0.2526  0.3227
10064W        W26538   9.596   3.151   2.480  0.0459 -0.0566 -0.2105
10065W        W26539   0.601  11.455  12.123 -0.3903 -0.2367  0.1443
10066W        W26540   3.985  14.199   1.293 -0.4239 -0.0031 -0.0909
10067W        W26541   2.600   6.562   3.710  0.0440  0.2818  0.0291
10068W        W26542   4.980   0.561   5.830 -0.0453 -0.3448  0.3217
10069W        W26543   8.348  11.889  14.197 -0.0453 -0.2176 -0.1447
10070W        W26544  10.855   6.133  12.902 -0.0295 -0.1706  0.0192
10071W        W26545   4.399  11.223   4.098  0.1032  0.0683 -0.0412
10072W        W26546   1.990  18.275  11.077  0.1041 -0.2789  0.0836
10073W        W26547   5.312  13.912  11.994  0.1212 -0.2745 -0.2518
10074W        W26548  10.738   8.132   1.500 -0.0741 -0.2789 -0.1540
10075W        W26549   4.989  10.989  12.783 -0.0478  0.2631 -0.1888
10076W        W26550  18.262   5.783   2.517  0.1164  0.0577  0.1234
10077W        W26551   3.127  12.325   0.803 -0.0152 -0.1594  0.0141
10078W        W26552   1.640   5.897   4.378 -0.0228 -0.2607 -0.2648
10079W        W26553  17.874  12.314  12.490  0.1199 -0.0376  0.3784
10080W        W26554   2.286  18.643  11.203  0.1963 -0.0496 -0.2275
10081W        W26555  11.886   9.823   5.647 -0.1011 -0.3182 -0.2048
10082W        W26556   7.740  16.530   4.579  0.0162 -0.1175 -0.1408
10083W        W26557   8.266  12.344   0.020  0.0801  0.1876  0.0382
10084W        W26558   9.492   0.326   4.573  0.0707  0.2401 -0.2175
10085W        W26559  13.589   5.791   1.116 -0.0526  0.1301 -0.0654
10086W        W26560   0.655  10.518   2.698  0.2523 -0.0043  0.0265
10087W        W26561   2.342   1.438  15.012 -0.0799  0.2745  0.4030
10088W        W26562   5.575  14.143  14.483  0.4954  0.2110 -0.0361
10089W        W26563  13.838  10.911   1.652 -0.0695 -0.1102  0.0950
10090W        W26564   7.823   0.795   0.211 -0.0152  0.0083 -0.0964
10091W        W26565  14.781   4.495  12.331 -0.2336  0.1895  0.0933
10092W        W26566  14.158  15.904   5.592  0.0024  0.3665  0.0839
10093W        W26567   1.085   1.075   0.406 -0.0844 -0.2217 -0.0089
10094W        W26568   6.007  14.263  14.275 -0.1799 -0.3770 -0.4794
10095W        W26569   2.931  15.528   3.002  0.1171  0.0708  0.0263
10096W        W26570  16.534   2.542   4.799 -0.1440 -0.1352 -0.1930
10097W        W26571   2.861   0.071  14.603  0.3289  0.0201 -0.0879
10098W        W26572  17.144   8.394  13.795 -0.0421 -0.2242  0.3215
10099W        W26573   0.146  18.457  14.140  0.1719  0.2634 -0.0029
10100W        W26574  11.203   2.316   4.405  0.1337  0.0698  0.1768
10101W        W26575  10.103   9.999  12.226 -0.4290  0.4326  0.3323
10102W        W26576   2.822  14.477   0.992 -0.1172  0.3273 -0.3039
10103W        W26577   8.512  12.300  10.640 -0.1092 -0.0512  0.2233
10104W        W26578   0.972   4.122   3.140  0.1803  0.0167  0.0699
10105W        W26579   9.530  18.401   2.550 -0.1001  0.2180  0.0266
10106W        W26580   4.008   1.950  14.118  0.2895 -0.0165  0.0820
10107W        W26581   3.090   1.625   0.883  0.0222 -0.0895 -0.3533
10108W        W26582   5.390  15.387   4.016  0.1621 -0.0275  0.2223
10109W        W26583   5.194  14.384   2.495 -0.1122 -0.2904 -0.0606
10110W        W26584   9.432  14.062   2.346 -0.2467 -0.1461 -0.1931
10111W        W26585   2.780   3.447   1.817  0.0166 -0.1155  0.1482
10112W        W26586   4.328  11.499   0.337  0.1659  0.0708  0.4005
10113W        W26587  15.463   6.462  12.032  0.1533  0.0614  0.1975
10114W        W26588   8.039  17.788   0.753  0.2019  0.0467 -0.4598
10115W        W26589   3.695   5.578   0.358 -0.1598  0.0520 -0.3223
10116W        W26590  18.485   5.308   3.135  0.0753  0.0010 -0.1213
10117W        W26591   3.318   1.131  10.963  0.0456 -0.0334 -0.0934
10118W        W26592   6.442  12.002  11.496  0.1456 -0.2543  0.0449
10119W        W26593   6.703  11.519  13.066 -0.2209 -0.1981 -0.1975
10120W        W26594   5.813   6.606   3.792 -0.1126 -0.3023 -0.1308
10121W        W26595   9.407  13.402  13.286 -0.2182  0.0922 -0.1239
10122W        W26596  10.742   0.065  11.002  0.3949 -0.3559  0.3055
10123W        W26597  11.270   5.923   1.797 -0.1985  0.1921  0.2537
10124W        W26598  15.226   3.091   3.535  0.1137  0.0686 -0.0842
10125W        W26599   8.486   4.845   0.648  0.0515 -0.1835  0.3219
10126W        W26600   1.435   0.728   5.421  0.1354  0.0637 -0.4009
10127W        W26601  13.513  16.752  15.691 -0.0735  0.0113 -0.2669
10128W        W26602  18.622  10.172   1.342 -0.0348 -0.1474 -0.1604
10129W        W26603  14.167  15.964  11.011  0.4730 -0.0089 -0.1340
10130W        W26604   0.525  13.482   4.639  0.2185 -0.2272  0.1774
10131W        W26605  18.202   6.308  10.736  0.1359  0.3520 -0.2120
10132W        W26606  14.208   2.981   4.766 -0.0048  0.1030 -0.0479
10133W        W26607  18.130  10.188  11.420 -0.0399 -0.0215  0.0252
10134W        W26608  12.391   2.911  13.195  0.1334 -0.0788  0.0103
10135W        W26609   2.724   7.151   2.072  0.2732 -0.2257  0.2329
10136W        W26610   0.323  12.964   0.550  0.2181  0.0497  0.0394
10137W        W26611   5.960  18.649  12.422 -0.3354 -0.1524  0.0966
10138W        W26612  12.995   3.125   3.358  0.0720  0.1254 -0.0991
10139W        W26613   9.646  16.557   1.822  0.0923  0.0528 -0.0440
10140W        W26614   5.969  10.294  15.031  0.1200 -0.0545 -0.3096
10141W        W26615  15.045   5.827  10.694 -0.3401  0.1525 -0.3004
10142W        W26616  11.132   2.932   0.069  0.2386 -0.2695 -0.5620
10143W        W26617   7.602   2.614  12.083  0.2278  0.0433 -0.2289
10144W        W26618  17.372  12.514  13.543  0.2452 -0.1726 -0.1620
10145W        W26619   4.701  15.816   2.999  0.1972 -0.0399 -0.2326
10146W        W26620   5.627  17.090  13.960 -0.0625  0.3435  0.0475
10147W        W26621  17.471   6.225  12.852 -0.1010  0.3637  0.0542
10148W        W26622   1.381   5.631   1.318 -0.3480 -0.2559  0.0374
10149W        W26623  15.826  15.166  11.154 -0.1961  0.2803  0.1573
10150W        W26624   1.727  16.246  13.315 -0.1188  0.1588 -0.2451
10151W        W26625  12.638  14.203   2.656  0.0130 -0.1900 -0.2961
10152W        W26626   2.796  14.361  13.806  0.2165  0.0709 -0.2005
10153W        W26627  16.331  11.270   1.782 -0.4312  0.1780  0.0076
10154W        W26628   4.582  12.345   4.506 -0.2993 -0.0407 -0.2395
10155W        W26629  15.483   9.307  13.883 -0.2110 -0.0852  0.1330
10156W        W26630   4.244  14.484   0.968  0.0204 -0.0822  0.0494
10157W        W26631   7.620   3.411  15.396 -0.1570 -0.1331 -0.1386
10158W        W26632  12.789  12.062   4.382 -0.0668 -0.2770 -0.0759
10159W        W26633  14.818   0.962   1.316  0.3395  0.3764  0.2292
10160W        W26634   4.361  14.259   1.610  0.0791  0.1049 -0.0789
10161W        W26635  15.293   4.471   3.085  0.0719  0.0986 -0.1794
10162W        W26636  13.569  15.809   3.581 -0.0689 -0.0350  0.0674
10163W        W26637   0.723   2.609   1.269  0.0349  0.3570  0.1632
10164W        W26638  10.407  18.623   4.861  0.0336 -0.0727  0.1200
10165W        W26639  17.765   7.139   0.525 -0.0308  0.1131  0.2116
10166W        W26640  18.746  18.850   2.971  0.2736 -0.1770  0.0404
10167W        W26641  11.831  15.255   4.162 -0.1044  0.1113 -0.1684
10168W        W26642  15.784  15.512   4.917 -0.3704  0.0321 -0.0983
10169W        W26643   0.369   9.812  14.674  0.0827 -0.0128 -0.2006
10170W        W26644   4.434  16.744   3.758  0.2559  0.2093  0.1230
10171W        W26645   5.646  16.359  11.910 -0.0158  0.3215  0.5223
10172W        W26646   3.841  11.017  11.975 -0.2040  0.0856  0.1299
10173W        W26647   0.494   5.982   3.645  0.2192  0.3942 -0.0791
10174W        W26648   1.795   8.480   9.757 -0.4077 -0.0921 -0.1751
10175W        W26649  16.856   2.670  14.823 -0.0837  0.1958 -0.3282
10176W        W26650  12.282  17.482  13.908 -0.2439  0.0963  0.2623
10177W        W26651   9.290   6.553   2.366 -0.3999 -0.1172 -0.0676
10178W        W26652  11.139   6.277   3.281  0.2678 -0.0983  0.1490
10179W        W26653   0.708  15.682  11.158 -0.2389  0.0012  0.0350
10180W        W26654   3.137  17.272   0.908  0.3733 -0.1008 -0.2523
10181W        W26655  13.827   8.283  12.784  0.1122  0.3773  0.0529
10182W        W26656   5.006   8.200  14.308 -0.2636 -0.1203 -0.0326
10183W        W26657  10.305  12.010  10.927 -0.0119  0.1519  0.1081
10184W        W26658   6.507   2.024  11.768 -0.1651  0.0373  0.0524
10185W        W26659   9.714  14.648  11.731  0.2406  0.3327  0.1527
10186W        W26660  17.461  11.115  10.974  0.0430  0.0836 -0.0310
10187W        W26661   6.701  15.460   5.471  0.2150 -0.2712  0.1407
10188W        W26662   2.120   6.408   3.815 -0.2642  0.2844 -0.2053
10189W        W26663   8.215   2.976   3.275  0.5117 -0.4241 -0.0663
10190W        W26664   0.122   3.817   2.036 -0.2586  0.2350  0.2479
10191W        W26665  15.346  11.372   0.940  0.0476  0.0378  0.0056
10192W        W26666   8.382   4.424  14.778 -0.2419  0.0820  0.1406
10193W        W26667   5.842  12.195   5.268 -0.3941 -0.2814 -0.1186
10194W        W26668   3.294  18.667   1.265  0.1343  0.3818 -0.2588
10195W        W26669   3.893  13.581   2.085 -0.0929  0.3799  0.2539
10196W        W26670   5.637  13.529   1.458 -0.1252 -0.0125 -0.1981
10197W        W26671   9.063  15.445   0.435  0.1965 -0.0110  0.2664
10198W        W26672  13.633   0.221  14.350  0.0026  0.2616 -0.1348
10199W        W26673   3.029  17.090   5.889  0.0685  0.0621 -0.1703
10200W        W26674   2.390   5.623  12.546 -0.1163 -0.1861 -0.0355
10201W        W26675   1.768   5.207  15.224  0.2301  0.3672  0.0203
10202W        W26676  15.995   7.580  15.034 -0.0824  0.1788 -0.2847
10203W        W26677   4.958  10.396   3.919 -0.1425 -0.0882  0.2227
10204W        W26678  17.552   8.858   4.124 -0.2101 -0.0563 -0.0744
10205W        W26679  12.097  14.106   1.715 -0.1067 -0.1219 -0.0850
10206W        W26680   0.962   5.530   1.090  0.1208  0.4536  0.2209
10207W        W26681   3.994   1.257  12.577 -0.2373 -0.3994  0.0170
10208W        W26682   8.897  11.115  11.902 -0.2729 -0.2741  0.1943
10209W        W26683  12.171  11.622  14.830 -0.0080 -0.2542  0.2043
10210W        W26684   3.492  15.560   4.891  0.0903 -0.0293  0.0107
10211W        W26685  14.862  18.186  15.336  0.1405  0.2245  0.1883
10212W        W26686   4.963  15.104  14.205  0.0757  0.3727 -0.0545
10213W        W26687  15.531   8.578  13.291 -0.2886 -0.2257  0.0221
10214W        W26688   6.149  12.508   3.121  0.1813 -0.0747 -0.1022
10215W        W26689   4.786  11.542  12.097 -0.0645  0.0889  0.0351
10216W        W26690  14.146  16.436   3.994  0.0179 -0.2638 -0.3866
10217W        W26691  15.567   8.354   3.967 -0.1217 -0.0600 -0.1975
10218W        W26692  17.038   0.661  12.653 -0.1748 -0.1176 -0.2852
10219W        W26693   2.679  14.384   4.294  0.0380  0.1192  0.1301
10220W        W26694   2.161  18.740   2.932  0.1241  0.0406 -0.0033
10221W        W26695   4.244  16.632   2.758 -0.0256 -0.0546  0.1392
10222W        W26696  15.639  16.957   3.649  0.0624  0.2112  0.0572
10223W        W26697  17.964  12.372   5.174 -0.3448 -0.0508  0.0466
10224W        W26698  10.766  14.328   5.280  0.0481 -0.1231  0.2850
10225W        W26699   3.101   5.224  14.119  0.0471 -0.0228 -0.0615
10226W        W26700   5.025   5.774  13.056 -0.0650  0.1136  0.2991
10227W        W26701   2.290  12.261  13.166 -0.0453 -0.4000 -0.0432
10228W        W26702  17.414   5.581  11.669  0.0715  0.0752  0.0249
10229W        W26703   0.021  10.764  14.993  0.4425  0.2186 -0.0646
10230W        W26704  11.989  10.020  14.126 -0.2592 -0.1843  0.1745
10231W        W26705  12.024   0.606   0.632  0.4320  0.0474  0.1981
10232W        W26706  17.611  11.725  11.792 -0.0788 -0.1924  0.4247
10233W        W26707  15.178   6.203  11.694 -0.2607  0.1212  0.1181
10234W        W26708  11.714   4.228  13.457  0.0308 -0.1052 -0.0035
10235W        W26709  14.626  14.428   0.633  0.2074 -0.1690  0.2114
10236W        W26710  15.095   7.434  14.582  0.1159 -0.0310 -0.0949
10237W        W26711   0.376   4.948  13.864 -0.1780  0.0690 -0.0989
10238W        W26712   3.651   6.797   4.708  0.0071  0.2857 -0.5621
10239W        W26713  10.726   8.554  12.841 -0.1529  0.0884  0.1036
10240W        W26714  14.401   9.890  11.506  0.2343  0.2127 -0.1126
10241W        W26715   9.863  14.196   4.638 -0.0019  0.4191 -0.0366
10242W        W26716  10.571   1.215   0.356 -0.2071 -0.3369  0.0227
10243W        W26717   7.020  16.652   2.486 -0.1341 -0.1553  0.0245
10244W        W26718   7.450  10.181  15.626  0.1257 -0.1701 -0.0655
10245W        W26719   2.299   8.939  12.671  0.2739  0.0233  0.1522
10246W        W26720   9.166  18.746   5.302  0.0292  0.0511 -0.1088
10247W        W26721   2.526  13.400  14.441 -0.0533  0.4515 -0.0020
10248W        W26722   6.112   4.052   5.298 -0.0254 -0.1025 -0.0376
10249W        W26723   5.155   8.178  13.133 -0.3501 -0.1614 -0.2956
10250W        W26724   3.701  16.578   0.973  0.1393  0.1294 -0.1188
10251W        W26725  18.010   9.916   2.417  0.1961 -0.1182  0.0347
10252W        W26726   8.978  14.270  13.486 -0.2406 -0.1580 -0.1582
10253W        W26727  16.118   7.391   2.017  0.0820 -0.2923 -0.3124
10254W        W26728   5.635   2.095  10.979  0.0212  0.2330 -0.0307
10255W        W26729   6.118   5.844   1.245 -0.1380  0.2154 -0.3012
10256W        W26730   0.960   1.879   4.967 -0.1183  0.0041  0.1539
10257W        W26731   5.578  16.174   4.969  0.3167 -0.0343  0.0706
10258W        W26732   6.222   1.009  13.625 -0.0536 -0.0667  0.1361
10259W        W26733   7.426  16.961   2.052 -0.1575  0.0058  0.0489
10260W        W26734   2.365  17.652  14.371 -0.2244 -0.2612  0.0512
10261W        W26735  14.733  10.663   1.483  0.1115 -0.1638 -0.0159
10262W        W26736  17.934   1.311   2.944  0.0597 -0.0846  0.0039
10263W        W26737  14.912  14.271  11.346  0.0021 -0.1585  0.1361
10264W        W26738   1.072  15.139   4.516 -0.3243  0.0060  0.0139
10265W        W26739   9.460   7.593   0.556 -0.2010  0.1921 -0.4468
10266W        W26740   4.794   7.811   0.497  0.0054 -0.0007  0.0743
10267W        W26741   8.187   4.013  14.323 -0.1682 -0.2767 -0.2706
10268W        W26742  14.065  13.039   0.180 -0.0228 -0.1373 -0.1285
10269W        W26743   6.684  13.151  14.573 -0.1704  0.1735  0.1309
10270W        W26744   2.195   5.819   0.349 -0.0883 -0.0331 -0.0218
10271W        W26745  17.495  13.017   9.803 -0.1734  0.2088 -0.0673
10272W        W26746   4.083  10.886  13.770 -0.2443  0.2851 -0.2057
10273W        W26747   7.002  12.936  15.001 -0.0566  0.2577  0.1350
10274W        W26748   2.264   6.651  11.524  0.0703  0.0714  0.2839
10275W        W26749  16.739   0.486  13.174 -0.0336  0.0332 -0.2919
10276W        W26750  13.709   8.595   4.266 -0.2061  0.1411  0.4568
10277W        W26751   0.999   5.697   1.691 -0.1632  0.2460  0.0267
10278W        W26752   9.878  17.447   3.742 -0.1425 -0.3316  0.1105
10279W        W26753  18.630  13.573   5.157  0.4180 -0.1263 -0.1367
10280W        W26754  12.442  15.616   0.920  0.1489 -0.0046  0.2423
10281W        W26755  16.192   3.748   3.502 -0.2385  0.0460  0.3729
10282W        W26756   6.887  17.992   2.850  0.1143  0.1926 -0.3309
10283W        W26757   6.949   1.855  14.856  0.1317 -0.3255  0.0896
10284W        W26758  11.694   0.630  11.543  0.0806 -0.1469  0.1496
10285W        W26759  11.297  17.673  13.895  0.0334 -0.0349  0.1465
10286W        W26760   2.302  10.112   4.175  0.2759 -0.2131  0.1717
10287W        W26761   1.144  17.779  10.520 -0.0152  0.0816  0.1641
10288W        W26762  15.286   4.633  14.490  0.2021  0.0222  0.0254
10289W        W26763  16.355   6.945   5.172 -0.1822  0.0989  0.1057
10290W        W26764   2.728   7.460  10.080 -0.1981  0.3183  0.3709
10291W        W26765   7.844   5.470   2.274  0.2414 -0.2229 -0.3243
10292W        W26766   1.071   0.614  13.957 -0.1496  0.0109 -0.0282
10293W        W26767  12.516  17.709  12.266 -0.2087  0.0505 -0.2853
10294W        W26768   3.898  10.709  12.854  0.0383  0.0160  0.1121
10295W        W26769   6.984  10.643  13.833 -0.4068 -0.1340 -0.2180
10296W        W26770   2.230  16.132   3.534  0.2594 -0.1224  0.1739
10297W        W26771  16.923   3.749   3.937 -0.1376 -0.1066 -0.0725
10298W        W26772  13.210   1.785  14.766  0.0641  0.1212 -0.2482
10299W        W26773   5.664  12.542   5.607 -0.1872 -0.2039 -0.0032
10300W        W26774  13.012  13.878   5.297 -0.1683  0.2404 -0.3708
10301W        W26775   4.666  17.153   4.595  0.1466 -0.1286 -0.3423
10302W        W26776  10.983   7.551   0.973  0.3455  0.1627 -0.0626
10303W        W26777   2.284   3.677   1.828  0.0767 -0.5456 -0.1345
10304W        W26778   7.092   8.691   1.893  0.1300 -0.0020 -0.1663
10305W        W26779  14.215   9.897   5.602  0.2134 -0.0731  0.2583
10306W        W26780   9.915   5.618   2.285  0.1134  0.1512 -0.0168
10307W        W26781  12.945   5.597  11.346  0.0221 -0.0099 -0.1103
10308W        W26782  15.375  16.719  12.371  0.2209  0.2182  0.0744
10309W        W26783   1.829  16.122  14.952 -0.3074  0.0592 -0.1922
10310W        W26784  11.314   4.704   3.648 -0.0076 -0.3613 -0.1094
10311W        W26785  15.197   0.262   2.036  0.0994  0.3038  0.1947
10312W        W26786   8.809   1.057  11.933  0.1742 -0.2544  0.2086
10313W        W26787   8.493  13.787   2.615  0.1198  0.0221 -0.0009
10314W        W26788  10.196  14.195   2.696 -0.1459 -0.0012  0.1411
10315W        W26789   6.610  11.050   2.896  0.1607 -0.2228  0.1179
10316W        W26790   0.689   5.992  13.045  0.1110 -0.2699  0.0091
10317W        W26791   3.502  14.908   1.226  0.1366 -0.1901  0.2012
10318W        W26792   9.577   1.460  14.846  0.2046  0.1570 -0.0491
10319W        W26793   4.573  10.724  13.754 -0.0665 -0.0539 -0.0048
10320W        W26794   5.952   0.495   2.161 -0.0181  0.2080  0.2740
10321W        W26795   2.148   9.445  14.570 -0.1310  0.0840  0.0260
10322W        W26796  11.426  13.052   3.283 -0.1286  0.2194  0.2536
10323W        W26797  12.494   5.971   0.430 -0.0459  0.0260 -0.0402
10324W        W26798   7.924  13.262  15.105 -0.3406  0.4489  0.1918
10325W        W26799   3.324   4.816   4.553  0.3770  0.4792 -0.0686
10326W        W26800   3.027   6.673  14.707  0.2369  0.0541  0.1541
10327W        W26801   3.869   9.096   2.574  0.2264  0.2848 -0.2005
10328W        W26802  17.645  17.722   1.845  0.0692 -0.1017  0.2324
10329W        W26803  11.187  18.521   2.403  0.0984 -0.0929 -0.2959
10330W        W26804   2.154  16.645   3.626 -0.1513 -0.0179 -0.2654
10331W        W26805   1.327   0.372  12.645 -0.0459 -0.0574 -0.1847
10332W        W26806  15.537   8.039   3.265  0.0569 -0.1573  0.2698
10333W        W26807   5.322  12.954   3.807 -0.2173  0.0806 -0.0327
10334W        W26808  14.165   9.842   3.635 -0.2683  0.2983  0.1511
10335W        W26809   2.486  10.820  13.773  0.0502 -0.0089  0.0080
10336W        W26810  14.051   3.477  14.116 -0.0663  0.1124 -0.1115
10337W        W26811   9.091  15.486   1.341 -0.2762  0.0618  0.0073
10338W        W26812   6.080  17.204  11.837  0.1118  0.1471 -0.1805
10339W        W26813  17.844   0.163  12.236 -0.0416  0.1154 -0.3233
10340W        W26814   0.348   7.012   2.242  0.1031 -0.0091  0.2402
10341W        W26815   5.891   8.429   3.654  0.2093 -0.0487  0.3211
10342W        W26816   1.652  17.172   2.987  0.1747 -0.1786 -0.0275
10343W        W26817   3.252   9.125  14.304  0.1391 -0.0853  0.1325
10344W        W26818  13.868  12.502  15.483 -0.0199  0.0420  0.1801
10345W        W26819  17.425   3.899  14.239  0.2887 -0.1106 -0.0425
10346W        W26820  14.690   5.407  14.456  0.0281  0.4286  0.2901
10347W        W26821   8.569  13.679  12.371 -0.2796 -0.3001 -0.0013
10348W        W26822   9.784  12.590  13.926  0.2070 -0.0586 -0.3674
10349W        W26823  12.655   6.416  14.320  0.3783 -0.0867  0.1327
10350W        W26824   8.584   0.575   4.586 -0.4203 -0.3356  0.2316
10351W        W26825  10.333   7.902   1.595  0.0512 -0.0328 -0.0708
10352W        W26826  16.773   1.976   2.447 -0.1144  0.0630 -0.1711
10353W        W26827  17.424  15.428   4.394 -0.1772 -0.1948 -0.2761
10354W        W26828  16.416  10.842  11.784  0.0258 -0.1535 -0.1018
10355W        W26829   2.026   0.137  15.656  0.0302  0.1287  0.1239
10356W        W26830  14.980  17.177   4.725 -0.3052  0.0998  0.2081
10357W        W26831  15.221   1.636  14.171 -0.3809 -0.1599  0.0170
10358W        W26832   0.644   0.327  14.058 -0.1352 -0.1730 -0.0695
10359W        W26833   4.591   3.336  10.465 -0.0247 -0.2191 -0.3713
10360W        W26834   7.846  15.936  15.308  0.3120 -0.0081  0.0193
10361W        W26835   5.963  16.941   5.153 -0.0441  0.0617 -0.2482
10362W        W26836  16.898  12.878  13.906 -0.0400  0.3293 -0.0999
10363W        W26837   5.590   8.705  14.648 -0.3053 -0.4180  0.3667
10364W        W26838  16.671   8.209   0.895  0.1461  0.0906  0.1105
10365W        W26839   0.087   0.647   2.595 -0.1088  0.0424 -0.0101
10366W        W26840   4.391  17.602   1.432 -0.5719  0.0488  0.1034
10367W        W26841  13.817   7.491   5.226 -0.2551 -0.1320  0.0691
10368W        W26842  10.709  13.654  14.642  0.2143 -0.0934 -0.0430
10369W        W26843   5.235  14.659  13.346 -0.0321 -0.2945  0.0722
10370W        W26844  10.924  16.312   0.391 -0.0480 -0.0692 -0.0235
10371W        W26845   2.193  16.794   4.147 -0.0308 -0.2349 -0.1973
10372W        W26846  12.252  12.294   0.419 -0.2325 -0.0489 -0.1527
10373W        W26847  15.644  14.672   5.507  0.1466 -0.1092 -0.0277
10374W        W26848  18.054  13.952  13.490  0.0461  0.2044  0.0394
10375W        W26849   7.049   6.862  11.086  0.0361 -0.0193 -0.2607
10376W        W26850  14.827   7.050  14.523  0.1133  0.0875 -0.2511
10377W        W26851   1.442   2.502  14.668  0.0369  0.0575  0.0776
10378W        W26852   3.840  13.003   4.300 -0.1749 -0.3074  0.1339
10379W        W26853  11.839   0.154  14.901 -0.0803  0.2148 -0.1582
10380W        W26854  13.447   3.916  11.577 -0.1315  0.1198  0.0655
10381W        W26855  18.118   4.730   2.734 -0.1513  0.1773  0.1515
10382W        W26856   8.383   4.421   1.976 -0.2185 -0.1171  0.0050
10383W        W26857  11.416   4.295   0.214 -0.0803  0.1352  0.0404
10384W        W26858  14.810  11.550  14.174 -0.0899 -0.3421  0.1930
10385W        W26859   9.220   2.693  15.166 -0.0980  0.1281  0.4730
10386W        W26860   5.378   4.411   0.075 -0.5687 -0.1383 -0.0459
10387W        W26861   6.417  15.008   1.549 -0.1978  0.2042 -0.1019
10388W        W26862   8.310  15.436   3.210 -0.3577 -0.1357 -0.0529
10389W        W26863  10.294   3.935   4.035 -0.0341 -0.1368 -0.1681
10390W        W26864  14.555   8.454  15.622 -0.3550 -0.0548 -0.0094
10391W        W26865   6.163   3.209   0.214 -0.0979  0.2677 -0.0054
10392W        W26866  17.978  14.553   3.254  0.2643  0.0200  0.0682
10393W        W26867   5.492   8.104   2.960 -0.1791 -0.1177  0.3456
10394W        W26868   9.399  15.857   3.615  0.5509  0.1243  0.1366
10395W        W26869   8.422   5.169  12.218 -0.3186  0.0783 -0.3693
10396W        W26870   3.243  15.978  10.921 -0.2149 -0.2126 -0.0383
10397W        W26871   1.675   6.718  14.009  0.3177 -0.1992  0.0133
10398W        W26872  13.616   6.469  15.328  0.3438  0.0628 -0.0137
10399W        W26873   2.408  15.742  11.409  0.1055 -0.0008  0.1255
10400W        W26874   3.815   1.586  15.547  0.0805  0.0435  0.1010
10401W        W26875  18.132   8.126   4.463  0.3998  0.4949  0.1671
10402W        W26876   3.080   2.058  12.062 -0.2325  0.1473  0.0101
10403W        W26877   2.269   5.033  11.557 -0.4082  0.2134  0.3820
10404W        W26878   6.540  14.342  14.301  0.2925  0.0920 -0.1164
10405W        W26879   3.574   9.862   2.258 -0.1442  0.2724 -0.1980
10406W        W26880   2.717   3.257  15.254  0.1775  0.0922 -0.2076
10407W        W26881   5.706   9.231   3.426  0.0736 -0.1836  0.0627
10408W        W26882  15.647  13.629   4.339  0.0286 -0.1142 -0.2783
10409W        W26883  15.226  17.326   3.517  0.2033 -0.0762  0.1259
10410W        W26884  11.037  15.003   3.828  0.0389  0.0162  0.2037
10411W        W26885   6.118   0.691   3.578  0.0493  0.2201  0.3146
10412W        W26886   4.996  12.941   5.243 -0.0375  0.0947  0.0902
10413W        W26887   6.416  11.457   5.798  0.3073  0.1709  0.1473
10414W        W26888   4.824  17.994   4.086  0.1595  0.1310 -0.0445
10415W        W26889  18.736  16.084  13.990  0.1481 -0.0516 -0.0233
10416W        W26890  18.735   7.128  13.512  0.0126 -0.3779  0.0604
10417W        W26891   9.953   0.968  11.891 -0.1936 -0.0166  0.1502
10418W        W26892  12.851   7.612  13.183 -0.0026  0.1308 -0.1789
10419W        W26893  17.027   1.292  11.736 -0.2047  0.4364  0.0427
10420W        W26894  14.629   2.425   2.030  0.1776 -0.0700 -0.0760
10421W        W26895   9.078   7.549   0.215 -0.2613  0.3213  0.1212
10422W        W26896   4.322   0.579  12.021  0.0073  0.0512 -0.0378
10423W        W26897   2.117  10.093   1.806 -0.1219  0.0578  0.1128
10424W        W26898   2.413  12.470   3.178  0.0907  0.2708  0.1086
10425W        W26899  14.567  17.476  14.054  0.0189  0.0375  0.1035
10426W        W26900  13.992  12.633  11.834 -0.1552  0.0925 -0.2412
10427W        W26901   5.192  18.181  12.052 -0.4813  0.1868  0.0081
10428W        W26902   3.859   8.633   2.312 -0.3528 -0.1518 -0.0417
10429W        W26903  18.485   3.341  13.209 -0.1799  0.4308 -0.2858
10430W        W26904  13.318   8.326   1.350  0.0295 -0.2117 -0.2817
10431W        W26905   3.659  10.265  14.583  0.4510  0.0626 -0.1710
10432W        W26906  15.131  13.717  10.696 -0.0202 -0.3578 -0.1925
10433W        W26907  13.571  18.502  14.702  0.1455  0.0081  0.1229
10434W        W26908   6.390  10.197   2.872  0.2234 -0.0205  0.0421
10435W        W26909  10.617  16.649   0.614 -0.1295 -0.2117  0.1896
10436W        W26910   8.077   1.987  13.078  0.3177  0.3229  0.0474
10437W        W26911  11.421   8.346   0.847  0.1489  0.1602 -0.1978
10438W        W26912   4.541   6.930   4.274  0.1540  0.0475  0.1824
10439W        W26913  10.388   7.682   0.343  0.3166  0.1749  0.1629
10440W        W26914   6.264   2.329  13.527  0.2236  0.0966  0.0432
10441W        W26915  15.852   3.054   1.917 -0.2951  0.1815 -0.0691
10442W        W26916   8.222   7.546  13.332 -0.1652 -0.0464 -0.0858
10443W        W26917  15.059   7.682  13.730 -0.1871  0.0711  0.0172
10444W        W26918  15.362  15.504  15.046 -0.1633 -0.2086  0.1148
10445W        W26919   3.104  14.041   3.163 -0.1027 -0.2634  0.1379
10446W        W26920   4.719  15.179   1.922 -0.1597 -0.2191 -0.0267
10447W        W26921   9.815  16.100   1.459 -0.0440  0.0669 -0.0376
10448W        W26922   2.157  13.398   1.112  0.1907  0.0206 -0.1514
10449W        W26923   3.339  11.137  11.778 -0.2062  0.4588  0.0891
10450W        W26924   3.903  12.712  14.964 -0.3019 -0.0652  0.3325
10451W        W26925  18.281  11.196  13.742 -0.1380  0.2877 -0.1073
10452W        W26926   4.124   8.013  12.856 -0.0137  0.0161  0.0542
10453W        W26927   4.565  18.042   0.766  0.2287  0.1679  0.0339
10454W        W26928   1.121   1.552  11.230 -0.1041  0.0492 -0.2410
10455W        W26929   5.221   5.983  14.425  0.0102  0.0578 -0.1668
10456W        W26930   7.673   5.658  12.435  0.0141 -0.0966 -0.1226
10457W        W26931  16.087   1.635  11.018  0.5545 -0.1565  0.1340
10458W        W26932   6.855  17.248   4.096  0.0946  0.0342 -0.0421
10459W        W26933  12.998  15.679   4.325 -0.0923  0.0816  0.2544
10460W        W26934   1.458  15.821   2.406 -0.3828  0.0963 -0.3017
10461W        W26935  17.311   3.156  15.331 -0.0774 -0.2117 -0.1278
10462W        W26936   1.018   4.534  10.828  0.1917  0.2396 -0.1227
10463W        W26937   1.851  16.586  14.810  0.1790 -0.0540 -0.1170
10464W        W26938   0.860  14.369   2.195  0.3364 -0.3052  0.3410
10465W        W26939  15.680  10.285   4.044 -0.0332  0.2129 -0.2893
10466W        W26940  10.160  15.394   4.572 -0.3653  0.1248 -0.1274
10467W        W26941   3.933  10.088  10.654  0.0088  0.2685 -0.1012
10468W        W26942   8.412   4.820   2.290 -0.1605 -0.2869 -0.5530
10469W        W26943   5.273   1.652   2.562  0.3004  0.0697 -0.0551
10470W        W26944   4.705   2.723   3.634 -0.0396 -0.1324  0.0743
10471W        W26945  14.756   9.993  10.876  0.3364  0.0239 -0.1464
10472W        W26946   6.069   3.170  11.355  0.1794 -0.0195 -0.0243
10473W        W26947   5.663   5.263   1.308 -0.0733 -0.1501  0.0442
10474W        W26948   9.579  17.261   2.380  0.2525  0.4103 -0.2202
10475W        W26949  14.410  13.330   0.605  0.1452  0.0307  0.0193
10476W        W26950  12.544  10.950  11.629  0.2326  0.0327 -0.1099
10477W        W26951   8.511   8.175  10.259 -0.0246  0.3039  0.2101
10478W        W26952   1.468  12.620  13.305  0.0281 -0.0355 -0.2170
10479W        W26953   3.547  16.277   4.508  0.3118  0.0814  0.1030
10480W        W26954  17.690   5.886  15.412 -0.0681  0.2168  0.1401
10481W        W26955   0.685   3.602  10.679 -0.0665 -0.1476 -0.1176
10482W        W26956   4.080  12.002  14.352 -0.1010 -0.2653  0.0868
10483W        W26957   3.515  10.362   2.335  0.2781 -0.4107  0.3463
10484W        W26958  17.963  13.716   3.617 -0.1305  0.2545 -0.0798
10485W        W26959   8.293   6.252  15.517  0.1090 -0.0046  0.0961
10486W        W26960   2.301   9.280  11.685 -0.1348 -0.0296 -0.1025
10487W        W26961   8.198  14.199   1.748  0.0595 -0.1687 -0.0776
10488W        W26962   6.616   2.979   0.148  0.2477 -0.0365 -0.1607
10489W        W26963  18.057  14.989   0.541  0.1603 -0.1872  0.2726
10490W        W26964  11.933  14.960   2.063 -0.4421 -0.3354  0.3238
10491W        W26965  14.691   5.726   3.456 -0.1104  0.1709  0.0736
10492W        W26966   3.258   2.880   4.149  0.1139  0.1527 -0.2326
10493W        W26967   9.492   9.839  15.213  0.3262  0.3353 -0.2443
10494W        W26968  12.215   4.262  13.392 -0.1848 -0.2268 -0.1030
10495W        W26969   7.869   2.182  12.657  0.0602 -0.0301  0.0026
10496W        W26970   7.231   9.343  10.126  0.0542 -0.0398 -0.1058
10497W        W26971  18.344   6.277   4.219  0.0533 -0.4451  0.3402
10498W        W26972  15.453  12.396  12.089  0.0848  0.0031 -0.0052
10499W        W26973   4.275  16.752  12.659 -0.0780 -0.1972 -0.0366
10500W        W26974   3.695   0.770  10.949  0.0337 -0.2339 -0.0034
10501W        W26975  17.821  14.854  10.113  0.0012 -0.1812 -0.0877
10502W        W26976   5.801   3.833   4.234  0.1442  0.1763  0.2801
10503W        W26977   8.910  17.621  12.460 -0.0293 -0.0772 -0.4197
10504W        W26978  11.659   8.137  15.050  0.0692  0.0586 -0.1342
10505W        W26979   8.400   6.679   0.032 -0.3997 -0.3455  0.1224
10506W        W26980   2.022  17.363  13.309 -0.0417  0.1266 -0.1728
10507W        W26981   0.653  10.561   4.019 -0.0187 -0.1803 -0.1916
10508W        W26982   2.857  11.308  10.679  0.2610 -0.0791 -0.0960
10509W        W26983   3.647  14.092   1.977  0.1347 -0.1358 -0.2132
10510W        W26984  12.197   4.319   3.959  0.2162 -0.0511 -0.2104
10511W        W26985  11.036   1.813   5.144  0.2537 -0.2516  0.0795
10512W        W26986  18.246   3.753  13.488 -0.0440 -0.0343  0.3385
10513W        W26987   6.201   0.484   0.920 -0.1579  0.1084  0.2396
10514W        W26988   2.044  11.390   0.052 -0.1735 -0.3017 -0.1146
10515W        W26989  11.429   0.778   4.220 -0.0245  0.3795 -0.1233
10516W        W26990  11.990   5.137   1.183  0.3381 -0.0282  0.1092
10517W        W26991   9.207   6.297   5.718  0.1182  0.3045  0.1940
10518W        W26992   5.289  16.687   4.934  0.2954  0.0582  0.1371
10519W        W26993   9.474   1.337   1.502  0.2875  0.2016  0.0363
10520W        W26994   5.745   1.636  11.200  0.2390 -0.1312 -0.0430
10521W        W26995  12.586  17.904  13.948 -0.0705 -0.3122 -0.0129
10522W        W26996   3.853  14.385   3.497  0.2079 -0.0341 -0.0110
10523W        W26997   1.657   7.092   0.583 -0.0846 -0.2931 -0.0796
10524W        W26998   4.079  14.109  11.494 -0.1658  0.3696 -0.1104
10525W        W26999   7.730   1.989  13.896  0.1849  0.4173 -0.1021
10526W        W27000   2.394   2.377  12.798  0.0834  0.0480 -0.2705
10527W        W27001   4.724   1.997  13.378  0.3609  0.3002  0.1989
10528W        W27002   6.254   8.713   2.997  0.3636 -0.0298 -0.1179
10529W        W27003   1.328  13.908  10.537 -0.0288  0.0072 -0.1525
10530W        W27004   8.702  10.225   0.926 -0.0713  0.1874 -0.1786
10531W        W27005  16.820   7.105  11.058  0.3010  0.1237 -0.0616
10532W        W27006   5.977   4.074   2.203 -0.1913 -0.0102 -0.0250
10533W        W27007   8.074   8.043   0.622  0.0107 -0.0280  0.1337
10534W        W27008   1.933  16.689   0.725  0.0387 -0.0731  0.0747
10535W        W27009  12.063  18.750  10.777 -0.1382 -0.0451  0.1459
10536W        W27010  11.018   3.667  12.351  0.0698  0.0623  0.1154
10537W        W27011   0.361  14.870   5.737  0.0614 -0.3297  0.0893
10538W        W27012   9.752  12.971   1.239 -0.2888  0.2548  0.1966
10539W        W27013   2.058   9.051   3.596 -0.0100 -0.3298 -0.2540
10540W        W27014  18.848   3.533  15.177 -0.3099  0.0229 -0.0508
10541W        W27015  14.626   8.277  14.111 -0.1438  0.1369  0.1587
10542W        W27016  16.878  13.942   0.617 -0.0071 -0.1192  0.3428
10543W        W27017   6.902  18.304   2.465  0.0052 -0.2068 -0.1294
10544W        W27018   3.636   2.440   4.088  0.0793 -0.0539  0.0737
10545W        W27019   4.464   7.739  13.111  0.0470  0.1714  0.0528
10546W        W27020   1.133  11.458  11.148 -0.5064 -0.1229 -0.4006
10547W        W27021  11.867   6.150   1.068 -0.0512  0.0146 -0.1336
10548W        W27022   9.259  13.999   0.436  0.1285 -0.1995 -0.0602
10549W        W27023   7.105  14.743   5.793  0.0068  0.1055  0.1773
10550W        W27024  15.749  18.138  10.613 -0.3311 -0.2419 -0.1610
10551W        W27025  14.939   4.182   4.047 -0.0974 -0.1622 -0.2349
10552W        W27026  10.216  15.544   3.539  0.3695 -0.0156 -0.1206
10553W        W27027  14.139  10.076   4.641 -0.0981  0.2740 -0.2448
10554W        W27028   8.828   4.623   5.315  0.2066 -0.0780 -0.0278
10555W        W27029   6.002  14.126   4.526  0.0779  0.1125  0.2609
10556W        W27030   6.393  15.065   2.507  0.3683  0.0847 -0.2121
10557W        W27031  15.546  13.749  15.465 -0.3005 -0.0260  0.1104
10558W        W27032  10.819   3.387   0.150  0.0083 -0.1150 -0.0099
10559W        W27033  11.261  17.941  12.793  0.2669 -0.0491  0.1579
10560W        W27034   0.560   8.151  15.586  0.1043 -0.2546  0.3993
10561W        W27035  13.866   7.318   2.505 -0.0099  0.2790  0.0005
10562W        W27036  13.185   0.968   2.825 -0.3753 -0.1043 -0.0173
10563W        W27037   3.046   0.668  11.034  0.0660 -0.0653 -0.1564
10564W        W27038   0.530   7.264   4.593 -0.0493 -0.1953 -0.1417
10565W        W27039  16.397  10.043   1.857  0.0322  0.2092 -0.1701
10566W        W27040   5.688   4.326   5.460  0.5653  0.0876 -0.0260
10567W        W27041  15.826  15.071   4.554 -0.1742 -0.2719 -0.0294
10568W        W27042   2.645   3.819   5.773 -0.2208  0.0157 -0.2059
10569W        W27043  10.737  11.685  13.992  0.0200 -0.2498 -0.0349
10570W        W27044  12.556   3.200   4.848 -0.2413  0.3243 -0.1172
10571W        W27045   7.741   6.514   1.010 -0.1110 -0.0732  0.0852
10572W        W27046  11.849   0.810  12.895  0.0590 -0.1384  0.2445
10573W        W27047   2.031  14.000   9.424  0.2294 -0.0946  0.1381
10574W        W27048   3.064   8.150   0.194 -0.0459  0.3951 -0.0801
10575W        W27049  18.110   7.108   2.726  0.3140  0.0757  0.2083
10576W        W27050  13.578   8.832  12.427  0.0232  0.0097  0.0898
10577W        W27051  15.128  12.319  12.967  0.0076  0.0087  0.0288
10578W        W27052  13.786   6.504   3.482  0.1092 -0.0269  0.3338
10579W        W27053  12.916   0.381  14.818  0.1134  0.2242 -0.0686
10580W        W27054  12.992  11.769  12.757 -0.0956 -0.0387 -0.2085
10581W        W27055   7.278  12.437  13.989 -0.1279  0.0257  0.4510
10582W        W27056   7.483  14.413  14.661  0.1895  0.2429  0.3490
10583W        W27057   1.362   6.065  15.496  0.0327  0.0230 -0.0827
10584W        W27058   2.969   2.783  12.263  0.1027 -0.0342 -0.3152
10585W        W27059   1.926   1.341   2.991 -0.0243  0.3570  0.1671
10586W        W27060  16.075  10.058  14.004 -0.2484 -0.2720 -0.1720
10587W        W27061   1.490  11.767   1.877  0.3679  0.1666 -0.0436
10588W        W27062  14.646   8.966  15.428  0.0526 -0.1386 -0.0829
10589W        W27063   4.700  17.653   3.721 -0.0714  0.1777 -0.2609
10590W        W27064  15.650   0.190  15.146  0.1123 -0.4109 -0.1010
10591W        W27065   6.818   5.425   0.733 -0.0720 -0.3436  0.0338
10592W        W27066  13.264   8.409  12.797  0.0721  0.1870 -0.1274
10593W        W27067  15.443  18.363  14.311 -0.0244  0.1831 -0.2383
10594W        W27068  17.181   9.652  11.993 -0.2233 -0.0020  0.0930
10595W        W27069   1.617  11.449  11.207  0.1159 -0.2285  0.3058
10596W        W27070  11.610  15.156   1.048  0.1802  0.0053  0.2690
10597W        W27071  12.434   5.059   4.973  0.0467  0.1623  0.3018
10598W        W27072  15.838  12.584   4.977  0.1557  0.0423  0.1436
10599W        W27073   7.366  16.771   4.192 -0.1620 -0.1374  0.3866
10600W        W27074  17.437  11.190   1.792  0.0812 -0.1513 -0.0550
10601W        W27075   7.186  16.714  11.362  0.3305  0.0843 -0.0366
10602W        W27076   3.696  13.682   1.477  0.1726 -0.1329  0.0371
10603W        W27077  12.854   0.742  12.334  0.3234 -0.2876 -0.2463
10604W        W27078  10.917  12.524   5.386  0.1908  0.0959  0.1823
10605W        W27079   5.660  13.977  14.029  0.0545 -0.1352 -0.2637
10606W        W27080  16.403   6.081   2.490 -0.1731  0.1073 -0.0085
10607W        W27081   7.700  11.345   1.377  0.0211 -0.1487  0.2980
10608W        W27082   9.266  15.796  12.627 -0.0414  0.0031  0.0821
10609W        W27083   9.988   5.891   4.124  0.3462  0.1497 -0.1282
10610W        W27084  18.033  10.586  11.085  0.0089  0.1508 -0.0662
10611W        W27085   3.721  10.548  11.478 -0.0225  0.0280  0.3138
10612W        W27086  15.268  18.108  12.650 -0.1769 -0.3402  0.1553
10613W        W27087   7.902  13.018  13.320 -0.1009 -0.0935 -0.0349
10614W        W27088  14.963  15.135  10.728 -0.2004 -0.1458 -0.0417
10615W        W27089   5.091   4.161   4.803 -0.0891 -0.2445 -0.0358
10616W        W27090   2.894  12.102  13.844  0.1993  0.0835 -0.1194
10617W        W27091   1.912  10.012   0.002 -0.0373 -0.1661 -0.2858
10618W        W27092   2.434   0.109   1.027 -0.1360  0.0444 -0.3456
10619W        W27093   5.959  12.119   3.357 -0.3575 -0.2054 -0.1984
10620W        W27094   4.442  17.654   4.342  0.0663  0.0691 -0.0620
10621W        W27095   7.918  10.095   2.738 -0.2784 -0.2517  0.0883
10622W        W27096   0.291   5.464   3.989  0.2660 -0.1275  0.3301
10623W        W27097   6.990  15.359   4.545  0.3076  0.2881 -0.0918
10624W        W27098   4.441   1.175  12.393  0.1965 -0.2826  0.3000
10625W        W27099   5.082  10.920  14.645  0.0047 -0.0314 -0.0703
10626W        W27100   1.546  15.110  13.912  0.1070  0.1681  0.1310
10627W        W27101  17.820  17.882  10.764  0.0818  0.0623  0.0863
10628W        W27102   9.021  16.236  12.834  0.0426 -0.1793  0.1381
10629W        W27103   5.815   9.118   1.494 -0.0171 -0.2448 -0.0666
10630W        W27104  10.403  17.171   5.335 -0.1867  0.2949 -0.4018
10631W        W27105   2.141   6.527   2.030  0.2780  0.2411 -0.0860
10632W        W27106   2.201  11.106  11.437 -0.4706 -0.0614 -0.4410
10633W        W27107  12.434  10.126   5.602  0.0506 -0.3587 -0.2804
10634W        W27108   8.245   6.400  11.967  0.2227 -0.2240  0.1519
10635W        W27109  17.862   1.672   4.144  0.0851  0.2658  0.0423
10636W        W27110  13.443   3.128  11.072 -0.0992  0.0613  0.2755
10637W        W27111  10.195   4.663   3.596 -0.1403  0.3196  0.1154
10638W        W27112  11.392  18.276  15.504  0.1458 -0.0763  0.1192
10639W        W27113  11.628   3.103   4.006 -0.1524 -0.1812  0.0523
10640W        W27114  15.503   2.405   2.032 -0.0821 -0.0188 -0.0931
10641W        W27115   0.575   9.885  11.384 -0.0104 -0.3871  0.3151
10642W        W27116  11.779  13.398  13.961 -0.4331 -0.0147  0.1040
10643W        W27117  11.770  17.032  14.431 -0.1264 -0.1268  0.0291
10644W        W27118  14.016  14.795  12.608  0.0088 -0.1085 -0.0387
10645W        W27119  10.932  17.723   3.163 -0.0638  0.0806  0.3623
10646W        W27120  11.709   4.272   2.420 -0.1719 -0.1130  0.2102
10647W        W27121   8.288  15.849   4.098 -0.3428 -0.0992  0.2437
10648W        W27122  17.400   0.403   4.842 -0.2106  0.1396  0.1396
10649W        W27123   2.961  10.855  11.039 -0.0341  0.1169  0.3421
10650W        W27124   5.559   6.171  13.600 -0.0270 -0.0178 -0.0787
10651W        W27125   9.517   8.056   3.355  0.1537  0.0715 -0.0080
10652W        W27126  16.115   8.674   4.864 -0.2940 -0.1248 -0.1606
10653W        W27127  18.511  14.415   4.017  0.1108 -0.0146  0.6401
10654W        W27128   5.697   0.998  13.543  0.0085  0.1200 -0.0608
10655W        W27129  15.692  15.035  14.957 -0.1515  0.1877  0.1250
10656W        W27130   9.300  11.705   1.212 -0.1709 -0.1848  0.3642
10657W        W27131  13.525  10.135  15.279  0.1082  0.0861 -0.2540
10658W        W27132   9.371   2.373  13.042 -0.0199  0.3072  0.0986
10659W        W27133  13.591  11.401  11.560 -0.3490  0.1557  0.2704
10660W        W27134  13.784  15.560   5.737  0.1475  0.2815 -0.1440
10661W        W27135   0.722  13.342   2.531  0.0722 -0.2262  0.0511
10662W        W27136  17.861   7.723   2.504  0.4472 -0.2444 -0.2856
10663W        W27137   8.933   5.788  15.426 -0.1541 -0.1488  0.1936
10664W        W27138   8.770  14.747  13.348  0.3936 -0.3792 -0.2724
10665W        W27139  11.057   7.325   4.658  0.3357  0.0871  0.0750
10666W        W27140   9.792  16.968  14.164 -0.0923  0.1969 -0.0357
10667W        W27141   1.502  18.825  14.673  0.1650 -0.0303  0.2754
10668W        W27142   2.305   9.578  10.691 -0.1904 -0.5592 -0.0458
10669W        W27143  12.487   5.256  11.568 -0.1571  0.0385  0.0431
10670W        W27144   9.379   9.406   3.710  0.1751 -0.0340  0.0551
10671W        W27145  16.801   7.750   3.107 -0.0587  0.0552  0.0742
10672W        W27146  14.844   9.182  14.401 -0.0415  0.1857  0.0362
10673W        W27147  15.826  14.578  12.477  0.1519  0.2384  0.1338
10674W        W27148   6.187  15.833   0.145  0.1190  0.3116 -0.1399
10675W        W27149   4.781  12.036   3.510  0.1222  0.0620  0.2466
10676W        W27150  10.326   3.794   0.883 -0.1169  0.2141  0.1584
10677W        W27151  14.711   0.344  10.715  0.0422 -0.3548  0.4088
10678W        W27152   7.499  13.594   1.365  0.2757 -0.1272 -0.1298
10679W        W27153  11.858   1.088  15.547  0.1608 -0.0079  0.0724
10680W        W27154   7.332  15.707   4.648 -0.0227 -0.0810 -0.0496
10681W        W27155   1.553  18.174  15.268 -0.3640  0.1120 -0.0095
10682W        W27156  12.282  17.384   4.931 -0.0188  0.1312 -0.1637
10683W        W27157  17.245   4.990   3.370  0.0494  0.2946  0.1446
10684W        W27158   1.052   9.069  11.830 -0.1132  0.6153 -0.1359
10685W        W27159   8.373   8.552   1.400  0.1075  0.0366 -0.3498
10686W        W27160   3.333  11.554   2.018  0.1936  0.1187 -0.3295
10687W        W27161   7.662  18.730  11.579 -0.0717  0.1002 -0.0323
10688W        W27162  12.166  11.913   1.284  0.0700 -0.4275  0.2448
10689W        W27163  14.717   1.796   2.850  0.0667  0.0825  0.4740
10690W        W27164  13.770   0.744   3.532  0.0281  0.3077  0.4063
10691W        W27165  11.500   0.694   0.572 -0.0380 -0.1528  0.0374
10692W        W27166   0.132  14.709   2.226 -0.0940  0.0004 -0.1442
10693W        W27167   3.762   4.505   4.935  0.3055  0.1741 -0.1090
10694W        W27168   9.258  18.190  13.043  0.0312 -0.0103 -0.1390
10695W        W27169  16.929  17.397   2.991  0.0544  0.1179  0.4909
10696W        W27170  18.618   6.848  13.876  0.0205 -0.1568 -0.2425
10697W        W27171   0.702   8.039  11.507 -0.0750 -0.1699 -0.5280
10698W        W27172   5.193  18.576   4.364  0.0778 -0.1301  0.0794
10699W        W27173   5.127  13.811  14.765  0.0358  0.1368 -0.0440
10700W        W27174   3.082  14.593  12.104  0.0654  0.1398  0.1274
10701W        W27175   3.747  16.047   4.888  0.4130 -0.1624 -0.2178
10702W        W27176  13.672  18.081   0.305  0.0625 -0.1548 -0.0213
10703W        W27177   8.125   5.599   0.404  0.1666 -0.2219 -0.0838
10704W        W27178  15.912   4.228   0.347  0.4617  0.4844  0.0430
10705W        W27179   1.727   7.682  12.337  0.1568 -0.1333 -0.1626
10706W        W27180  14.404  10.790   4.109 -0.1167 -0.0195  0.2960
10707W        W27181  11.035   0.929   3.952  0.0285 -0.1779 -0.0839
10708W        W27182   0.435   3.839   4.376  0.1728  0.0565  0.0606
10709W        W27183   9.875   3.340  13.696 -0.1419  0.1931 -0.1818
10710W        W27184  17.695   7.696  13.459 -0.1548  0.2125  0.0958
10711W        W27185   6.194  14.586   4.546  0.4654  0.0612  0.1602
10712W        W27186  15.198   1.706  14.967  0.2756  0.5498 -0.2282
10713W        W27187   7.963   3.954  11.518 -0.4324  0.0745 -0.0273
10714W        W27188  15.451   4.077   3.906  0.2944 -0.0060  0.0404
10715W        W27189   8.564   5.187  13.224  0.0233  0.1345  0.0358
10716W        W27190  16.258   1.570  15.089  0.1000 -0.1144  0.0056
10717W        W27191  11.867  12.338   3.414  0.1124  0.3030  0.1771
10718W        W27192  12.231  14.803   3.383 -0.1578 -0.0743  0.1238
10719W        W27193  17.598  13.838  10.637 -0.3638 -0.0934  0.1057
10720W        W27194  14.657   4.416   5.208  0.0929  0.1491  0.0521
10721W        W27195   4.636   6.810  11.564 -0.2803  0.0894 -0.3114
10722W        W27196   1.294  13.686  14.747  0.2721  0.1175 -0.1807
10723W        W27197  12.571   2.426   4.825  0.3872 -0.1768 -0.0611
10724W        W27198  10.919   6.176  12.347 -0.0441  0.0946 -0.1806
10725W        W27199   5.714   1.742   1.944 -0.0929  0.0132  0.2553
10726W        W27200  11.960   3.292   0.600 -0.0152 -0.2607 -0.0607
10727W        W27201  18.290   7.382   2.277  0.1970 -0.2396 -0.1832
10728W        W27202   3.928  10.079  13.126 -0.2206  0.2443  0.3602
10729W        W27203  14.353  15.708   0.625  0.1463  0.2326  0.0704
10730W        W27204   3.839   1.268   5.427 -0.0078 -0.1559 -0.1113
10731W        W27205   3.630   5.174   0.703  0.1702 -0.2210 -0.2607
10732W        W27206  11.278   7.809  14.803  0.2856  0.0625  0.2477
10733W        W27207   3.935  12.726  14.101  0.1094 -0.0830  0.0913
10734W        W27208  12.446  13.195  11.605 -0.2213  0.3266  0.1373
10735W        W27209  10.061  17.849  13.177  0.4132  0.1229  0.2390
10736W        W27210  16.863   3.457  15.522  0.1636 -0.1137  0.1654
10737W        W27211  13.720   9.584  15.604 -0.1191 -0.3986 -0.0502
10738W        W27212   0.787   7.523  13.266 -0.0457 -0.1271 -0.0286
10739W        W27213   8.035   6.661  15.338  0.0683  0.1253 -0.2292
10740W        W27214   7.745   6.532   4.136  0.1449  0.1703  0.4078
10741W        W27215   8.283   2.612  14.093  0.0882  0.4272  0.0896
10742W        W27216   2.807  16.052  10.326  0.3624  0.0816 -0.1070
10743W        W27217  17.120   8.042  12.709 -0.1327  0.0498  0.0756
10744W        W27218  16.086  16.119   4.472  0.2358  0.1593 -0.1146
10745W        W27219  18.482  16.794   4.899  0.3660 -0.1177 -0.1167
10746W        W27220   7.763   2.712   1.055 -0.1240  0.2289  0.2277
10747W        W27221   5.584   2.614   3.815  0.1387 -0.1708 -0.0209
10748W        W27222   2.978   1.610  15.650 -0.0412 -0.0770  0.0646
10749W        W27223  14.834   1.380   0.100 -0.0007 -0.0876 -0.1757
10750W        W27224   7.812  11.568   0.921  0.0687  0.1021  0.0024
10751W        W27225   9.951   5.910  12.331 -0.0805  0.2307 -0.0157
10752W        W27226   3.974   8.071   2.520 -0.0731  0.1070 -0.1477
10753W        W27227   7.175   2.128   2.896 -0.2005 -0.0434  0.4217
10754W        W27228   7.647   9.893   1.206 -0.0549  0.1411  0.4325
10755W        W27229   9.286  12.633  11.645  0.1087 -0.0556  0.1083
10756W        W27230   8.335   5.706  11.871 -0.3023 -0.2440  0.1681
10757W        W27231   2.359   6.849   0.070 -0.0114  0.3090  0.1322
10758W        W27232   5.561   0.222  10.994  0.0271 -0.2420 -0.0737
10759W        W27233  13.565   8.742  12.975 -0.3016  0.3285  0.0048
10760W        W27234   3.993  10.616   4.818 -0.1482 -0.1618  0.1227
10761W        W27235   3.102   3.175  13.075 -0.0591  0.1256  0.1833
10762W        W27236  16.993  15.080  14.429 -0.3882 -0.1319 -0.0717
10763W        W27237   8.389   5.994   3.119  0.1221  0.3523  0.2791
10764W        W27238  13.765  13.966   2.685  0.4061 -0.2584  0.1105
10765W        W27239  16.839   6.597  10.867 -0.1560  0.0969  0.1199
10766W        W27240   6.393   1.317   0.579 -0.0707 -0.0725  0.2349
10767W        W27241  12.725   4.378  12.739 -0.1830 -0.3769 -0.1812
10768W        W27242  16.678  17.862   2.776 -0.1958  0.0394  0.1699
10769W        W27243  11.395   8.410   5.393 -0.8049  0.1123  0.0065
10770W        W27244  10.322  12.851  14.407 -0.1661 -0.1819 -0.1264
10771W        W27245  12.722   3.236  13.999 -0.2456  0.0503  0.0086
10772W        W27246  16.908   8.488  14.239 -0.0926 -0.4087  0.2219
10773W        W27247  12.960   4.221   1.196 -0.8146 -0.1535 -0.2377
10774W        W27248   5.327  16.644  14.949 -0.0689 -0.0234  0.1443
10775W        W27249   5.835  12.778   2.818 -0.2042  0.1236  0.3546
10776W        W27250   6.817  14.939  14.847 -0.2723  0.1117  0.2962
10777W        W27251  10.635   9.316  11.992  0.1985  0.0948  0.2174
10778W        W27252   9.510  17.765  15.325  0.0198 -0.2284  0.0892
10779W        W27253   5.934   3.351  13.440 -0.2373  0.0380  0.2031
10780W        W27254  10.680  17.864  11.256  0.0183 -0.1578  0.0776
10781W        W27255  15.762   4.885  11.827 -0.4220  0.1304 -0.2093
10782W        W27256   3.585  12.540   1.723 -0.0819 -0.0381 -0.4683
10783W        W27257  12.271  16.322  15.143 -0.1568  0.2574  0.1416
10784W        W27258  14.700   7.414   4.948 -0.0310  0.0786 -0.1976
10785W        W27259  13.961   0.422  15.419  0.0872 -0.0169 -0.1520
10786W        W27260  11.260   2.086  11.269 -0.0666  0.0084 -0.1613
10787W        W27261  11.997  13.246   0.908 -0.0611 -0.1309  0.0709
10788W        W27262  13.294   9.061   0.242 -0.2074 -0.2912  0.2222
10789W        W27263   5.894   6.417  13.318  0.1803  0.1092 -0.1478
10790W        W27264   0.726   2.068   1.317 -0.1162 -0.0414  0.0583
10791W        W27265   8.801   5.322  11.934 -0.3052 -0.0300 -0.1718
10792W        W27266   9.467   7.544  14.840 -0.2627  0.0736  0.0270
10793W        W27267   7.349   3.191  14.805  0.2692  0.1575  0.2318
10794W        W27268  11.073  14.147  14.064 -0.1092  0.1633 -0.2017
10795W        W27269   2.053  10.419  12.255 -0.1196  0.1188  0.1046
10796W        W27270  11.073  12.025   5.764 -0.2221 -0.3084 -0.1535
10797W        W27271  16.562  13.865  12.583 -0.0833 -0.1750  0.1588
10798W        W27272   4.518  10.206  12.007  0.2845 -0.1465 -0.0495
10799W        W27273   8.258   3.457   2.270  0.3183  0.2590 -0.0527
10800W        W27274  17.187   6.666   0.840  0.3710 -0.1233  0.1690
10801W        W27275  16.392   8.314  11.210  0.0371  0.0502  0.1823
10802W        W27276  14.936   9.698   4.691 -0.0213  0.0063  0.0473
10803W        W27277  12.478   3.929   1.288 -0.1278  0.3441 -0.1630
10804W        W27278   2.890   0.844  14.922  0.1857 -0.1962 -0.1112
10805W        W27279  15.784  13.239   2.392 -0.1978  0.1941 -0.1178
10806W        W27280  14.294  11.528   3.259  0.0108 -0.0427  0.2456
10807W        W27281   5.808   5.092   2.801  0.0690 -0.1059  0.3360
10808W        W27282  10.554  10.030   0.103  0.1632  0.0076  0.1131
10809W        W27283  16.801   5.470  10.884  0.1210 -0.2931 -0.0631
10810W        W27284   2.558  17.983  13.890  0.1216  0.0863  0.1765
10811W        W27285   5.680  18.427  12.043 -0.2649 -0.4297 -0.0412
10812W        W27286  13.482   8.768   1.131  0.3252 -0.0174 -0.1739
10813W        W27287  14.980   7.663  10.394 -0.2566 -0.2288 -0.4902
10814W        W27288   0.307  15.650   0.963  0.1789 -0.0732 -0.1887
10815W        W27289  11.037  11.784   3.290 -0.1171  0.1899  0.1388
10816W        W27290   3.552  16.722   3.538 -0.1140 -0.0670  0.1219
10817W        W27291   2.127   3.493  14.420  0.0001 -0.0915  0.0361
10818W        W27292   9.514   9.151   1.081  0.0598  0.0693  0.1297
10819W        W27293  15.554   2.899   2.939  0.1093 -0.0915 -0.1963
10820W        W27294   9.449  11.058  11.772 -0.2241  0.1168  0.0992
10821W        W27295   0.092   6.121  11.507  0.2194  0.0208  0.0546
10822W        W27296  12.204  14.795  11.016 -0.1526  0.1595  0.0235
10823W        W27297  11.642  11.182  13.689 -0.0521  0.2097 -0.0353
10824W        W27298  11.617   6.305  11.605  0.0824  0.1838 -0.4405
10825W        W27299   4.073  13.138   4.778 -0.0311 -0.1176 -0.0049
10826W        W27300   4.739   0.931  11.474 -0.1045 -0.3912  0.2447
10827W        W27301   4.372  15.250   1.539  0.2205 -0.0033  0.0124
10828W        W27302  13.952   3.264   2.743  0.3101 -0.2189 -0.1415
10829W        W27303  17.266  13.917   1.025  0.1774  0.3001 -0.0127
10830W        W27304   1.037   2.077   9.957 -0.1839  0.2154  0.1638
10831W        W27305   7.550   1.475   1.385 -0.2892  0.1029 -0.1833
10832W        W27306  17.512  10.961   3.138 -0.1725  0.1688  0.3318
10833W        W27307  10.549   3.746   2.212 -0.1017 -0.0709 -0.0315
10834W        W27308   3.104   5.229  10.044  0.1377  0.2612  0.1604
10835W        W27309   0.818   4.830  13.609  0.0078 -0.0908 -0.2114
10836W        W27310  10.833  11.981  11.893  0.1653  0.2408  0.0808
10837W        W27311   7.540   3.888  11.895  0.1327  0.0969  0.1210
10838W        W27312  14.354   4.987  15.624  0.0353 -0.1179 -0.0497
10839W        W27313  13.434  16.969  13.161 -0.2550 -0.2105  0.1464
10840W        W27314  11.226   1.368  15.582 -0.2913 -0.1255  0.0626
10841W        W27315   4.879  12.407  13.356  0.3137 -0.3982  0.0691
10842W        W27316  14.693  12.281  13.495 -0.2802 -0.3365 -0.0054
10843W        W27317   1.901   2.876   2.079 -0.0664  0.0950  0.2443
10844W        W27318  13.609   2.673   2.079  0.5516 -0.0363  0.1668
10845W        W27319  16.123  15.344   3.696  0.0135 -0.0546  0.0424
10846W        W27320  16.414  13.668   2.036 -0.0589  0.1031  0.0447
10847W        W27321   0.268  17.502   2.930  0.2173 -0.0833  0.3311
10848W        W27322   6.651  13.997  13.316 -0.1849 -0.3140  0.1793
10849W        W27323  11.820   8.674   5.348 -0.1850 -0.0401  0.0946
10850W        W27324   1.784   0.394   3.440 -0.0449  0.2825  0.2503
10851W        W27325  12.028  14.525  11.403  0.2735 -0.0416 -0.0527
10852W        W27326   0.625  17.487   5.452 -0.0446 -0.0661 -0.1861
10853W        W27327  17.473  12.492  12.157  0.3333  0.2406 -0.2919
10854W        W27328  17.954   2.533   4.116 -0.1958  0.0770  0.1202
10855W        W27329   4.956   9.031  11.237  0.1090 -0.0234 -0.3522
10856W        W27330  16.449   2.974   2.192  0.2970  0.0322  0.1151
10857W        W27331   2.711  18.140  12.836 -0.1394 -0.2350  0.1879
10858W        W27332  15.943  15.450  13.224  0.2524  0.1863 -0.2085
10859W        W27333   4.913  17.317   2.583 -0.2743  0.0783 -0.1579
10860W        W27334  10.817   0.748  12.589 -0.1857  0.2252 -0.0608
10861W        W27335   2.864   2.188  13.040 -0.1374  0.0782 -0.2262
10862W        W27336  10.388   9.777  11.799  0.2172  0.2221  0.1649
10863W        W27337  10.726   2.545  14.403  0.0189  0.1221  0.1782
10864W        W27338   1.551   9.871  14.879  0.4131  0.3306 -0.0826
10865W        W27339   4.050   8.511  15.011  0.0106  0.1585 -0.0169
10866W        W27340   9.570   3.123   0.511 -0.3347 -0.2124  0.1499
10867W        W27341  18.486   6.686   3.392 -0.0346  0.4105 -0.0703
10868W        W27342  16.979   3.269   2.362  0.1733  0.2124  0.1624
10869W        W27343   2.317   1.769   4.208 -0.3934 -0.1448  0.0063
10870W        W27344   2.123   7.551   5.419 -0.0137  0.2671 -0.1237
10871W        W27345  16.389  15.017  11.390 -0.2202 -0.0083  0.1448
10872W        W27346   7.120   8.810   5.307  0.1480 -0.1111  0.0068
10873W        W27347  16.509   6.268  12.508 -0.0543  0.1231 -0.1108
10874W        W27348  10.256  18.757  15.358  0.4523 -0.2351 -0.0750
10875W        W27349   5.260  14.559   4.499 -0.3191  0.0091 -0.2311
10876W        W27350   7.182  11.834  12.988 -0.0649  0.1279  0.0356
10877W        W27351   4.484   9.158   4.326  0.1315  0.0601  0.0734
10878W        W27352  13.440   1.489  13.375  0.0153  0.1405  0.2952
10879W        W27353  15.200   8.981  14.099 -0.0596  0.1956  0.1126
10880W        W27354   2.922   3.550   0.517  0.3817 -0.0828  0.0310
10881W        W27355  10.339   5.986  13.993 -0.2141  0.1502 -0.2602
10882W        W27356  17.610  11.150  13.280  0.3697 -0.0692  0.0113
10883W        W27357  15.603   7.305  11.714  0.1803 -0.3090 -0.3893
10884W        W27358  13.943   5.104  11.554  0.0873  0.0542  0.1781
10885W        W27359  14.995   7.854   2.056  0.2896 -0.1134  0.0102
10886W        W27360  18.463   8.304  13.283 -0.0613 -0.2876  0.1759
10887W        W27361   4.829   7.536  15.420  0.1284  0.1685 -0.1735
10888W        W27362   6.623  14.538  13.044  0.2019 -0.0876 -0.1024
10889W        W27363   3.020   4.810   1.522 -0.0420  0.1663  0.2662
10890W        W27364  15.792  15.412  12.626 -0.0513  0.1304  0.0871
10891W        W27365   8.851   7.817  15.531  0.0842  0.3591 -0.0852
10892W        W27366  10.174   5.238   4.948 -0.1871  0.2087  0.1792
10893W        W27367  12.071  10.479   3.913 -0.2178 -0.1143  0.0389
10894W        W27368   1.616   1.754   2.972  0.1982 -0.1044  0.2153
10895W        W27369  16.033   3.211   4.304  0.0604  0.1576 -0.1086
10896W        W27370  15.341  14.728   5.097 -0.2615 -0.1863 -0.4378
10897W        W27371   8.476   4.958   5.601 -0.0275  0.1197  0.0126
10898W        W27372   1.024   8.278  15.071  0.0242  0.0752  0.0116
10899W        W27373   0.360  10.413   5.017  0.4018 -0.2166 -0.0988
10900W        W27374   8.746   2.297  13.037  0.1078 -0.0231 -0.1828
10901W        W27375  10.191  13.655  15.091  0.0474 -0.2287 -0.0251
10902W        W27376  15.801   0.544   3.304 -0.1213 -0.1304 -0.2122
10903W        W27377  14.359  14.144  12.264 -0.1218 -0.1986 -0.1798
10904W        W27378  17.416   3.399  13.984  0.0159  0.3298  0.3845
10905W        W27379   8.214   3.358   0.398 -0.0970 -0.1492 -0.0921
10906W        W27380  18.558   0.229  14.146  0.0733 -0.1291  0.1181
10907W        W27381   0.644  12.149   2.991  0.0086 -0.2116 -0.2087
10908W        W27382   9.267   9.726   5.041  0.0226 -0.2827 -0.0001
10909W        W27383  12.324   9.209   0.033 -0.1029  0.3856 -0.0719
10910W        W27384   2.749  16.849  11.517 -0.1342  0.1324  0.1290
10911W        W27385   8.531   1.649   1.541  0.1896 -0.2143  0.3009
10912W        W27386   9.961  12.640  13.122  0.1104 -0.0612  0.1270
10913W        W27387  12.017  14.315   5.083 -0.0447  0.1448 -0.1529
10914W        W27388  10.449  13.618  11.073 -0.1585  0.0623  0.1140
10915W        W27389   0.267  14.513  10.798  0.1773  0.1884  0.0375
10916W        W27390   7.601   1.135   0.580 -0.2420 -0.0021  0.1463
10917W        W27391  10.205   0.648  15.098 -0.4923 -0.0683 -0.1731
10918W        W27392   3.481   8.780  13.152  0.0095 -0.1557  0.2386
10919W        W27393  14.855  13.504   4.949 -0.0453 -0.0607 -0.0290
10920W        W27394   2.686   1.821   3.312 -0.0712  0.1670 -0.2026
10921W        W27395   5.318   8.305  14.851 -0.0734  0.1347 -0.1186
10922W        W27396  18.548   2.540   4.224  0.0570  0.0054  0.1096
10923W        W27397  18.405   4.964   6.055 -0.0383  0.2675 -0.1049
10924W        W27398   3.386  13.970   0.548 -0.2692  0.2818  0.1512
10925W        W27399   4.170   4.999   3.577  0.0008 -0.0449 -0.0949
10926W        W27400   9.570   8.360   4.431  0.2488 -0.2451  0.0505
10927W        W27401  14.259   5.926   0.326 -0.2742  0.0600  0.0654
10928W        W27402   1.915   2.577   0.608 -0.1241 -0.0358 -0.0650
10929W        W27403   3.033   8.346   2.423  0.2814 -0.6436  0.1512
10930W        W27404   6.645   4.201   6.191  0.0014  0.2650 -0.0328
10931W        W27405   4.609   0.263  12.331  0.2219 -0.2288 -0.1685
10932W        W27406  16.343  14.681   4.245 -0.0859 -0.0265 -0.0861
10933W        W27407  16.901  15.365   4.144 -0.3040  0.2905  0.2550
10934W        W27408  13.138   7.171   4.624 -0.4522 -0.1705  0.2298
10935W        W27409   9.147  14.635  13.830  0.3247  0.0007 -0.1909
10936W        W27410  14.828   2.639  13.280 -0.2744 -0.1755  0.0240
10937W        W27411   7.582  18.241   1.713 -0.1150 -0.3231  0.0325
10938W        W27412   6.533   2.364  12.118 -0.0715  0.1167  0.0558
10939W        W27413   7.667  13.666  12.392 -0.2264 -0.0587 -0.0155
10940W        W27414  16.977   8.991  12.056 -0.2986  0.2139  0.0225
10941W        W27415  17.269  11.169   4.846 -0.1616 -0.4745  0.2931
10942W        W27416   1.834   0.056  15.051  0.0744  0.0586  0.2210
10943W        W27417  12.026   8.234   5.465 -0.0418 -0.0044 -0.1207
10944W        W27418   1.636  17.387   5.714  0.6465 -0.0497 -0.0471
10945W        W27419  16.326  10.744   4.592  0.1253 -0.2093 -0.0428
10946W        W27420   5.728  14.446   2.696  0.2803 -0.1011 -0.0759
10947W        W27421   4.284  13.622  11.640 -0.3112 -0.0146 -0.2642
10948W        W27422   3.179  16.067  15.217  0.2694  0.0020 -0.3415
10949W        W27423   8.786   0.031   2.347  0.0860 -0.1692 -0.1558
10950W        W27424  10.881   6.816   4.876  0.1106  0.2009  0.0978
10951W        W27425  12.109  12.035  13.987  0.1120 -0.1190 -0.0488
10952W        W27426   8.074  13.707  11.504 -0.2657  0.2143 -0.0797
10953W        W27427  13.264  17.199   0.130 -0.1682  0.0872 -0.2783
10954W        W27428   7.223  18.101  13.048  0.3692  0.0556 -0.1368
10955W        W27429   3.825   5.467   3.086 -0.1377  0.2571 -0.0581
10956W        W27430   3.418  10.596   3.687 -0.0455 -0.0062  0.3791
10957W        W27431   1.298   1.872   0.020 -0.1218  0.3806 -0.1744
10958W        W27432   6.294  13.816  14.160 -0.2454  0.1015  0.1212
10959W        W27433   8.681  17.154  14.882  0.0061  0.1930 -0.1864
10960W        W27434  15.658  13.345  13.051  0.3841  0.3054  0.3112
10961W        W27435   9.447   5.443   2.118 -0.0419 -0.2256 -0.4240
10962W        W27436  11.781   0.042  15.464  0.2915  0.0933  0.1414
10963W        W27437  13.657   2.770   1.496  0.0330 -0.0955  0.0567
10964W        W27438  15.463   0.597  11.463 -0.2201  0.0174  0.0600
10965W        W27439   8.675   7.835   0.300 -0.2635  0.0314  0.0767
10966W        W27440  16.473  14.576  12.300 -0.0204 -0.2890  0.3201
10967W        W27441  16.871   0.389   0.706 -0.0505  0.0239  0.2745
10968W        W27442   6.918   1.735   5.647  0.1314  0.0534 -0.0525
10969W        W27443   7.435  14.900  13.895 -0.0346  0.1395  0.4058
10970W        W27444  11.777   4.179  14.354  0.3114  0.0273  0.2711
10971W        W27445  11.367   8.347   0.298 -0.0015  0.2907 -0.0891
10972W        W27446  11.960   5.177   3.886 -0.1692  0.0092  0.0121
10973W        W27447  18.301   7.332  13.330 -0.1302  0.2992 -0.4032
10974W        W27448  13.360  17.847   1.264  0.1222  0.2459 -0.2927
10975W        W27449   8.269   2.166   3.775 -0.4807  0.2374  0.1120
10976W        W27450   1.515   3.698   1.228 -0.3042 -0.2718  0.0844
10977W        W27451  10.129  16.496  11.257  0.3927 -0.0141  0.1753
10978W        W27452   6.825  17.063  14.074 -0.3728 -0.1068  0.1537
10979W        W27453   3.982   6.458  11.797 -0.2413  0.2401 -0.2829
10980W        W27454   1.313   9.457  11.550  0.0083  0.0680 -0.0086
10981W        W27455  10.679  17.753  12.465 -0.4338  0.0446  0.3946
10982W        W27456   0.952   9.910   1.510 -0.2270 -0.2442  0.2161
10983W        W27457   9.251  18.501   0.665 -0.3386 -0.1204 -0.1326
10984W        W27458   0.032   9.615   1.944 -0.2922  0.3458 -0.1290
10985W        W27459  16.014  14.897   3.539  0.2545  0.1542 -0.0746
10986W        W27460  18.122   9.430   4.653  0.3670  0.1446 -0.0929
10987W        W27461   5.158   1.255   2.943  0.3369 -0.1451 -0.0132
10988W        W27462   5.539  18.797   3.886 -0.0333  0.2045 -0.0706
10989W        W27463   6.292   6.862   3.530  0.0038 -0.3621 -0.1877
10990W        W27464   5.569   3.952  11.845 -0.0141  0.6438 -0.1981
10991W        W27465   0.379   8.794   3.029  0.1585 -0.1485  0.0612
10992W        W27466  14.968   5.563  15.400  0.2619  0.0549 -0.0540
10993W        W27467   4.683   9.372   1.327  0.1655  0.0318  0.1077
10994W        W27468  11.928   0.320  12.677 -0.0928 -0.2106  0.0276
10995W        W27469  10.289  16.345  10.804  0.0355  0.1889 -0.1771
10996W        W27470  10.576  11.461  12.555  0.0017  0.0266  0.1880
10997W        W27471  10.230   6.668   5.692 -0.2677 -0.0756  0.2612
10998W        W27472  14.181   6.193   5.315  0.0279  0.2694  0.0387
10999W        W27473   5.992  14.345  11.410  0.0620  0.3315 -0.0630
11000W        W27474  12.086  13.254  13.075 -0.0988  0.1400  0.1515
11001W        W27475  18.185  15.711   3.855  0.2900  0.2263 -0.1298
11002W        W27476  14.270   2.983   0.132  0.2695 -0.1023  0.3239
11003W        W27477   8.895   9.029   0.385  0.0442  0.0241  0.1642
11004W        W27478  12.790  11.979  13.661 -0.1052  0.0586 -0.0502
11005W        W27479  13.743  17.237  14.733  0.1845  0.0356  0.0918
11006W        W27480  17.967  18.603   1.775 -0.0343 -0.0316 -0.0344
11007W        W27481   4.391  10.306   0.582 -0.3091  0.0572 -0.0976
11008W        W27482  18.353  15.279  10.847  0.1025 -0.1215 -0.1203
11009W        W27483   2.835   3.091   4.252 -0.2432 -0.0460 -0.0710
11010W        W27484   5.119  13.628  12.467  0.0944 -0.1099 -0.0261
11011W        W27485   6.639  12.384   3.008 -0.0221  0.1077  0.0161
11012W        W27486   3.200   5.658   1.164  0.1039  0.0942  0.3627
11013W        W27487   8.798  18.281   0.756 -0.0722  0.2449  0.2097
11014W        W27488   8.220  18.283   3.557  0.5520 -0.2550  0.0086
11015W        W27489   2.757   1.656  10.810  0.0085  0.0635  0.0469
11016W        W27490   0.908  14.740   3.000  0.3295  0.0630 -0.0011
11017W        W27491   4.878  16.043   4.181  0.0098 -0.2140  0.1075
11018W        W27492   4.380   0.933  14.792  0.1783  0.0775 -0.3670
11019W        W27493  13.743   5.942   2.255 -0.1148  0.1665 -0.2290
11020W        W27494   8.243   9.567   4.828 -0.0322 -0.1727  0.2081
11021W        W27495  14.188  12.854  12.346 -0.0962 -0.0369 -0.1100
11022W        W27496   8.441  13.441  11.280 -0.1538 -0.0319  0.0948
11023W        W27497   5.448   4.549   3.382 -0.0660  0.1809 -0.0915
11024W        W27498   1.250   9.095  14.470 -0.0478 -0.2485  0.2547
11025W        W27499   5.989   1.132   5.057  0.0143  0.0906 -0.5379
11026W        W27500  13.969   2.925  12.546  0.1221 -0.2270 -0.1081
11027W        W27501   9.742   9.446  12.329 -0.0557  0.3825  0.0929
11028W        W27502  15.419   4.123  13.671  0.1549 -0.2500 -0.1012
11029W        W27503   3.503  14.005  12.217  0.0443 -0.3923  0.0395
11030W        W27504  15.631  10.436   0.640 -0.4721 -0.0221  0.1825
11031W        W27505  13.243   0.201   0.248 -0.0263 -0.2268  0.2619
11032W        W27506  10.999   3.549   3.876 -0.4231 -0.0852  0.0063
11033W        W27507  12.464  13.348   0.680 -0.3511  0.4043  0.0562
11034W        W27508  13.453   4.260   1.547  0.0098  0.1002  0.0291
11035W        W27509  12.659   8.497   2.635 -0.1555  0.0412 -0.0355
11036W        W27510  13.464   4.125   2.521 -0.3412  0.3044  0.2469
11037W        W27511   6.281   4.399   1.285  0.0041 -0.0951  0.0893
11038W        W27512  14.730   8.032  13.648 -0.0619 -0.0749 -0.0930
11039W        W27513  14.112   0.054  11.885  0.0678  0.2833 -0.1583
11040W        W27514  16.405   0.423  11.340  0.0439  0.2582  0.0075
11041W        W27515   7.664   1.388  11.219 -0.1952 -0.1021 -0.0116
11042W        W27516   6.706   8.609   2.949 -0.2356  0.0091 -0.0959
11043W        W27517   7.941   8.186  11.690  0.1719 -0.0415 -0.1840
11044W        W27518   0.286  11.653   2.183  0.0960  0.1518  0.1267
11045W        W27519   1.991  12.312  10.834  0.0484  0.1302 -0.1127
11046W        W27520  13.936   2.159   9.863  0.2546  0.1952 -0.0548
11047W        W27521  13.865  14.448  14.036 -0.0911 -0.0546 -0.3791
11048W        W27522  14.711   4.990   4.703 -0.0888  0.2282  0.0592
11049W        W27523   3.999   3.814  14.078  0.0453  0.3592 -0.1624
11050W        W27524  17.414  15.591   0.912 -0.3951  0.1141 -0.1028
11051W        W27525  14.229  17.178  11.653 -0.0637  0.3257 -0.2465
11052W        W27526  15.245   1.792  11.828  0.5166  0.3295 -0.1028
11053W        W27527   6.861  18.269   3.808  0.0214  0.0179 -0.1103
11054W        W27528  13.327   1.487  13.873 -0.0778  0.2779  0.3029
11055W        W27529   7.016  13.254  12.348  0.1482  0.3237  0.1677
11056W        W27530  15.145   4.631  11.054  0.1808  0.1356  0.2426
11057W        W27531   8.414   9.782   2.457 -0.0782 -0.3780  0.1780
11058W        W27532  12.667  14.157  13.033 -0.1549 -0.4622  0.1198
11059W        W27533  15.364  10.215  13.401 -0.2719  0.3716 -0.2423
11060W        W27534  16.479   4.958  13.995 -0.2889  0.0684  0.1663
11061W        W27535   6.694   7.869   2.228  0.2361  0.0907 -0.0552
11062W        W27536  10.790   7.816   3.983  0.2152 -0.3290 -0.1867
11063W        W27537   4.286   0.222   2.010  0.0912 -0.3263  0.1370
11064W        W27538  11.365   6.659   1.238  0.1151  0.0299 -0.2382
11065W        W27539   1.972   4.567  10.841 -0.0379 -0.2879 -0.3748
11066W        W27540   0.593   3.703   0.308  0.1667  0.0768 -0.0212
11067W        W27541  14.763   3.079  11.417 -0.0465  0.0656 -0.2568
11068W        W27542  15.807  17.252  14.735 -0.1896 -0.0256  0.3556
11069W        W27543   0.309   4.925  12.799 -0.2620 -0.3410 -0.0499
11070W        W27544   6.124  13.483  12.865 -0.1424 -0.0161  0.0810
11071W        W27545   9.106  13.504   3.144 -0.1985  0.1160 -0.0989
11072W        W27546   1.225   9.057  13.685  0.0447 -0.0461  0.0419
11073W        W27547  11.635  12.429   1.967  0.1510 -0.1852  0.0095
11074W        W27548   8.939  13.491  12.063 -0.0981 -0.1211  0.1247
11075W        W27549   8.489   1.726  13.236 -0.0071  0.0831  0.0712
11076W        W27550   8.826  10.646   0.659  0.0090  0.0772  0.1190
11077W        W27551   3.221   7.487   4.380 -0.2213  0.2957  0.1464
11078W        W27552  14.634   5.644   2.252  0.2303  0.0726  0.2968
11079W        W27553   2.248   9.991  12.396 -0.0546  0.3510 -0.2769
11080W        W27554   0.087  12.220   4.678 -0.0670 -0.0702  0.0760
11081W        W27555   2.515   5.927  12.956 -0.2134 -0.1757 -0.1770
11082W        W27556   8.674   1.290   2.887  0.1257 -0.0780 -0.0258
11083W        W27557  13.465  13.302  13.950 -0.1604  0.2162  0.2567
11084W        W27558   6.560  10.449  13.724  0.0179 -0.2200 -0.3045
11085W        W27559  15.643   9.367  13.392  0.2250  0.3124 -0.0468
11086W        W27560  11.130   7.453  12.944  0.0282  0.4227  0.0823
11087W        W27561  13.479   5.026  13.978 -0.0519 -0.0845  0.1205
11088W        W27562   2.655  15.099   4.737  0.1608 -0.1858 -0.3452
11089W        W27563   4.814   8.185  14.749 -0.0238 -0.0378  0.0932
11090W        W27564   9.894   7.549   0.813  0.0228 -0.0077 -0.0238
11091W        W27565  12.568   1.654   3.267  0.0259 -0.2504  0.0644
11092W        W27566   8.997  16.125   4.596 -0.0307  0.3718 -0.1502
11093W        W27567   1.295  14.431   1.788  0.1225 -0.3559  0.0623
11094W        W27568  12.595  13.172  12.769 -0.0163  0.0622 -0.0449
11095W        W27569   6.255  10.379  14.276  0.1136  0.2670 -0.2002
11096W        W27570  15.541  17.860  11.643  0.0485 -0.0280  0.3232
11097W        W27571  11.262   7.986  12.626 -0.0610 -0.0084  0.0476
11098W        W27572   6.353   6.047   2.814  0.4456  0.0947  0.1163
11099W        W27573   4.355   5.567   4.814  0.0160  0.2575 -0.0482
11100W        W27574   6.488   8.908  15.069 -0.1238 -0.1732  0.0052
11101W        W27575  15.315   4.282  10.752  0.1626 -0.1675 -0.1898
11102W        W27576   3.682  13.957   4.858  0.0778  0.2032  0.0028
11103W        W27577  10.061   5.272  11.655  0.0448  0.0130  0.0020
11104W        W27578   4.275  12.686  13.702  0.0983 -0.1477  0.0240
11105W        W27579  13.031  11.284   0.282  0.1673 -0.3081 -0.1533
11106W        W27580  17.878   5.213  10.536 -0.0327 -0.0515  0.1403
11107W        W27581   9.668   2.666   0.453  0.0526  0.1502  0.1658
11108W        W27582   3.729  13.226   3.672  0.1550  0.0158 -0.2951
11109W        W27583   2.386  16.635   2.630 -0.1634  0.0844  0.2051
11110W        W27584   0.908  17.128  12.216 -0.1359  0.2547 -0.0265
11111W        W27585   7.744   5.075  13.344 -0.0125  0.0174  0.0100
11112W        W27586   7.283   3.588  13.342 -0.0147 -0.2000 -0.1566
11113W        W27587  10.302   9.310  13.664 -0.0108 -0.2254  0.2804
11114W        W27588  13.472   1.020   1.414 -0.1300  0.2172  0.2360
11115W        W27589  17.146  15.189  15.623  0.1647  0.0014  0.1355
11116W        W27590  11.212   9.659  14.252  0.2796  0.1836  0.1874
11117W        W27591  12.191   3.795  14.629 -0.2711 -0.2565 -0.0833
11118W        W27592   0.682  18.405  15.611 -0.1469 -0.0989 -0.0648
11119W        W27593  11.759   7.019   4.369 -0.1293  0.0750  0.1093
11120W        W27594  10.346  10.745   4.972  0.3009  0.2263 -0.0672
11121W        W27595   4.854   8.618  13.931  0.1665  0.2756 -0.1125
11122W        W27596  15.668   2.200   0.951  0.1594  0.4122  0.0234
11123W        W27597   4.073   6.207   0.968  0.4392 -0.0728 -0.2337
11124W        W27598   4.815  11.693  15.253 -0.1802 -0.2050 -0.2553
11125W        W27599  15.841  11.441  10.848 -0.2577  0.0643  0.2058
11126W        W27600   3.934   8.661  11.694 -0.2163 -0.2808  0.0241
11127W        W27601  11.707  15.525  12.561  0.5119  0.2393  0.0767
11128W        W27602  11.309  14.155   3.492  0.2854 -0.0746  0.2251
11129W        W27603   7.864  10.656  10.984  0.2059 -0.1437  0.0439
11130W        W27604  14.993  11.839   5.808 -0.1219  0.2178  0.2114
11131W        W27605   7.673   7.382   0.273  0.3514 -0.0035  0.2275
11132W        W27606  12.549  17.814   4.895 -0.0965  0.0991  0.1295
11133W        W27607  15.401  14.405  14.642 -0.3043 -0.0334  0.0234
11134W        W27608   9.449   6.320   1.928  0.1496 -0.4067 -0.1811
11135W        W27609  12.432   1.629  13.773  0.3103  0.0427  0.0998
11136W        W27610  11.243   9.772   0.810 -0.1236  0.2569  0.0699
11137W        W27611  10.262   2.296   3.490  0.1446 -0.3718 -0.2246
11138W        W27612   9.077   9.294  12.950  0.2033  0.0078 -0.1363
11139W        W27613  10.410  13.718   3.685 -0.0051 -0.0400  0.0920
11140W        W27614   1.232   5.022   2.979 -0.1590 -0.0836 -0.3071
11141W        W27615   7.609  10.443   5.371 -0.0445 -0.1146 -0.1434
11142W        W27616  11.021   6.791   0.916 -0.1873 -0.0225 -0.0871
11143W        W27617   6.504   2.990   3.271 -0.0457 -0.1765  0.0514
11144W        W27618   4.592   3.074   5.262 -0.0393 -0.3354 -0.0829
11145W        W27619   9.398   1.932   1.721 -0.2201 -0.2745  0.1705
11146W        W27620   5.845  16.475   5.217 -0.3274  0.1011  0.1928
11147W        W27621  18.571  15.009  11.767 -0.1351  0.2040  0.1912
11148W        W27622  14.846   4.559  11.451  0.0100 -0.3622  0.0166
11149W        W27623  17.787   8.026  11.049 -0.0382  0.0486  0.2830
11150W        W27624   5.124   0.030  10.938 -0.0017 -0.2445 -0.1929
11151W        W27625   1.811   5.790   1.089 -0.2953 -0.0078 -0.1916
11152W        W27626  12.309   5.030  13.713 -0.1423  0.1483 -0.0723
11153W        W27627   9.172   7.769   4.108 -0.0701 -0.2020 -0.1953
11154W        W27628   1.208   1.969   2.575 -0.0654 -0.2602 -0.1297
11155W        W27629  12.946   3.699   1.160  0.0335 -0.1703 -0.0703
11156W        W27630  12.825   4.432   4.686  0.0111 -0.0868  0.0967
11157W        W27631  15.641  14.233  15.523  0.0458  0.1532  0.0834
11158W        W27632  16.791  13.596   1.301 -0.0887  0.1829  0.0117
11159W        W27633  11.694  15.680   0.945  0.1466 -0.0221 -0.1216
11160W        W27634   7.043   9.540  12.688  0.1752  0.1011 -0.1753
11161W        W27635  16.761   8.579  11.916  0.1670  0.4082 -0.4055
11162W        W27636   2.362   6.946   1.379 -0.2916 -0.0231 -0.2002
11163W        W27637   0.271   0.760   1.323  0.3524 -0.3800  0.1461
11164W        W27638  10.679   9.111  15.151 -0.0899 -0.2287 -0.2075
11165W        W27639   7.563  18.844  13.864 -0.0666  0.0745  0.1690
11166W        W27640  10.909   3.447   2.995  0.0382 -0.0710  0.1715
11167W        W27641  14.144  14.329  15.363 -0.0523  0.1150 -0.0442
11168W        W27642   6.662  17.935  13.134  0.2002 -0.0132 -0.1308
11169W        W27643  10.752  10.548  15.153 -0.0362 -0.0394 -0.2152
11170W        W27644   0.494   5.754   1.717 -0.1969  0.2351 -0.0998
11171W        W27645   5.248   5.507   2.186  0.3342 -0.0094 -0.1293
11172W        W27646  11.176  10.284   1.750  0.2461  0.1986 -0.0618
11173W        W27647   3.133   6.531  12.818 -0.0325 -0.0090  0.3210
11174W        W27648  16.851   1.352   5.403  0.0350  0.0079  0.0179
11175W        W27649  10.549   8.087   5.218 -0.0522  0.0798 -0.0023
11176W        W27650   7.735   8.916   3.637 -0.1054  0.0297 -0.0704
11177W        W27651  18.209  17.012   2.633 -0.3869 -0.2288 -0.0266
11178W        W27652  14.863   2.215   4.768  0.0417 -0.4413  0.0467
11179W        W27653   8.966  12.847   4.242 -0.1725  0.3565 -0.0491
11180W        W27654   8.563   2.884   2.021  0.1473  0.1715  0.3382
11181W        W27655  17.664  11.518  15.454 -0.0189  0.0037 -0.2794
11182W        W27656   6.964   4.369   3.758  0.0635  0.4225 -0.2805
11183W        W27657   3.891  16.928   1.730  0.2460 -0.0156  0.3494
11184W        W27658  17.918   7.251  14.240 -0.2628 -0.1159 -0.1147
11185W        W27659  15.368  14.080   2.736 -0.1466  0.1390  0.2955
11186W        W27660   4.666  14.981   3.746 -0.0375 -0.3050 -0.0750
11187W        W27661  15.185   1.886   3.894 -0.0921 -0.0799 -0.1085
11188W        W27662  15.551  14.805   1.910  0.0223  0.2501  0.1235
11189W        W27663  10.514  16.492   4.466  0.0553 -0.1363  0.1145
11190W        W27664   7.883  15.839  13.915  0.3024  0.1254 -0.1846
11191W        W27665   1.185  11.803   2.285 -0.0468  0.1549 -0.2573
11192W        W27666   3.132   5.641  12.435  0.3092  0.0785 -0.0554
11193W        W27667   9.458   2.062   0.353  0.0894  0.0566  0.4358
11194W        W27668   3.041  10.075   5.604 -0.2306 -0.2770 -0.2954
11195W        W27669   9.839   7.124  10.728 -0.0834  0.0364 -0.1854
11196W        W27670   1.182  10.787   3.530 -0.0329  0.2055  0.1571
11197W        W27671  14.502  18.557   0.051 -0.0370  0.1204  0.0159
11198W        W27672  14.108   4.423   4.290 -0.1928  0.2026 -0.1276
11199W        W27673   5.240  12.776  12.473  0.0713 -0.1050 -0.2938
11200W        W27674   6.595  10.697  14.659  0.0074  0.0660 -0.0293
11201W        W27675  13.970   6.365  13.358  0.0065  0.1183  0.0847
11202W        W27676  11.645  12.929   5.044  0.0028 -0.0946  0.0494
11203W        W27677   6.718  18.770   0.614  0.1121  0.3514 -0.2634
11204W        W27678  18.303  16.351  10.343  0.1497 -0.2636  0.2537
11205W        W27679  18.157  15.903  15.369  0.1197 -0.2734 -0.1151
11206W        W27680   1.611  12.411  15.382  0.1802  0.2482 -0.1397
11207W        W27681  13.010  11.620  13.256  0.3523 -0.0005  0.0161
11208W        W27682   5.612   6.350   4.638 -0.0341 -0.1396  0.0355
11209W        W27683  10.114   3.364   0.929 -0.0129  0.3362 -0.1256
11210W        W27684  18.455   9.841   4.781  0.0794  0.3657 -0.0638
11211W        W27685  11.601   5.696   0.126  0.0547 -0.2545  0.0786
11212W        W27686   8.476  13.600  14.629 -0.0907 -0.2289  0.1822
11213W        W27687   9.552  11.264   1.828  0.0540  0.2895  0.1289
11214W        W27688   0.143  12.489   0.486 -0.0091 -0.0471 -0.0377
11215W        W27689   8.711  13.124   2.997 -0.0715 -0.0883  0.1089
11216W        W27690   6.194  16.694  11.189  0.1071  0.1290 -0.4202
11217W        W27691   2.381   3.671   3.762  0.0652 -0.0091 -0.2858
11218W        W27692   7.386  12.230   1.359  0.0413  0.0807 -0.1233
11219W        W27693  17.142  11.011  13.371  0.1791 -0.2345 -0.1717
11220W        W27694  18.460  15.464  15.222 -0.1299 -0.2460 -0.3212
11221W        W27695  12.623   0.426  11.350  0.1661  0.1331  0.0319
11222W        W27696   2.465  12.310  15.408 -0.0727  0.0707  0.1595
11223W        W27697   4.077  17.181   0.766  0.1716 -0.2056 -0.2978
11224W        W27698   9.087  10.379   3.851 -0.0301  0.0067 -0.0385
11225W        W27699   1.578  13.021   2.692 -0.0645 -0.0074 -0.1478
11226W        W27700  13.139  14.865   0.650  0.2252 -0.0140 -0.1342
11227W        W27701  17.902  16.251   4.126 -0.3448  0.1628  0.1306
11228W        W27702  10.835   9.770  12.097  0.0744 -0.1778 -0.1633
11229W        W27703   3.080   4.721   0.982  0.0182 -0.1716  0.2463
11230W        W27704  17.748   7.887   2.951 -0.0714 -0.1453 -0.0985
11231W        W27705  14.016   2.997  13.253 -0.2529  0.0970 -0.0085
11232W        W27706  11.704   5.492   3.117 -0.0230 -0.0156 -0.2735
11233W        W27707  12.908  11.245   4.867  0.1846  0.0979 -0.4680
11234W        W27708  18.621   7.259  14.317 -0.1251  0.1378  0.3880
11235W        W27709   2.606   9.440   3.008 -0.2454 -0.0205 -0.1588
11236W        W27710   3.357   2.821  11.281  0.0356  0.3216  0.0069
11237W        W27711   3.505  12.939  14.817  0.1375  0.1199 -0.0684
11238W        W27712   1.084   5.027  14.560  0.1404 -0.1336  0.0454
11239W        W27713  14.606  15.961   2.882  0.3569 -0.1808 -0.0904
11240W        W27714  14.841   8.172   4.468 -0.0659 -0.1993  0.0567
11241W        W27715  16.347  17.510  12.477  0.3385 -0.2233 -0.0062
11242W        W27716   2.482  15.541  10.938 -0.4630 -0.1473  0.1837
11243W        W27717  16.059   6.577  12.773  0.1566  0.2706  0.4509
11244W        W27718  17.978   1.554  15.693  0.0783  0.1564  0.2953
11245W        W27719   5.205  12.244   2.088 -0.1484  0.0430 -0.1457
11246W        W27720   4.125  17.312  15.623 -0.2198  0.0549 -0.2325
11247W        W27721  12.390   4.357   1.654 -0.0036  0.3581 -0.4502
11248W        W27722  15.157   7.990  12.408 -0.1227  0.0537 -0.5375
11249W        W27723  13.378   7.404  13.026 -0.2279  0.1961  0.2353
11250W        W27724  13.547   6.984   0.157 -0.1725 -0.1714 -0.1973
11251W        W27725  15.614  16.903   0.406 -0.3887  0.4863  0.1975
11252W        W27726  17.943   9.421  14.060  0.0209 -0.3827  0.0741
11253W        W27727   3.393   9.835   4.028 -0.2186 -0.2664 -0.0072
11254W        W27728  12.909  11.164   4.393  0.0565  0.0944  0.0539
11255W        W27729  11.969   9.412   3.915  0.2829  0.3078  0.0261
11256W        W27730  10.369  15.088  15.244 -0.1009  0.0044  0.2335
11257W        W27731   7.829   3.576   4.145 -0.0262 -0.2579 -0.1944
11258W        W27732   0.247  16.141   3.592 -0.1102  0.1227 -0.1234
11259W        W27733  12.992   1.284  15.327 -0.0990  0.2008  0.0946
11260W        W27734   9.487   0.985   0.114  0.0303 -0.0492 -0.3491
11261W        W27735   0.102  14.794  13.246 -0.3581  0.2055  0.3635
11262W        W27736   7.438   8.004   4.612  0.2118 -0.0627 -0.0058
11263W        W27737  10.497   7.264  11.700  0.2732  0.0030  0.4270
11264W        W27738  15.887   9.939  15.271  0.0498 -0.0041 -0.1423
11265W        W27739   8.844  14.125  12.029  0.0549 -0.0728  0.0472
11266W        W27740  14.617  14.259   4.341 -0.1435 -0.2176  0.0005
11267W        W27741   6.366   4.842   1.667 -0.0690  0.1175 -0.0773
11268W        W27742  16.571  18.445  14.531 -0.2108 -0.1341  0.0258
11269W        W27743  11.196   7.888  15.336  0.0617 -0.1062  0.0507
11270W        W27744   1.476   0.783   3.418  0.2622 -0.0659  0.1648
11271W        W27745   0.319  18.732   2.354  0.0849 -0.2014  0.3225
11272W        W27746   2.049   4.477  13.609 -0.3461 -0.0089 -0.1376
11273W        W27747  16.257  11.518  14.910  0.3780 -0.2907 -0.2952
11274W        W27748   1.714   8.018  11.692 -0.0549  0.0521 -0.1432
11275W        W27749   7.987   1.124  11.957  0.2148 -0.0218  0.0722
11276W        W27750  14.211   5.604  15.603  0.2327 -0.0624 -0.2757
11277W        W27751   2.468   2.900  10.593  0.0308  0.2754  0.0804
11278W        W27752   1.161  15.299  14.289  0.2978 -0.0668  0.2098
11279W        W27753   3.144   2.547   0.498 -0.0575 -0.2582  0.1171
11280W        W27754  13.357   4.927  14.555  0.0981 -0.3210 -0.2264
11281W        W27755  11.404   5.331  11.583  0.4783  0.0513 -0.0166
11282W        W27756   2.154  17.370   3.023 -0.1704  0.1867  0.2450
11283W        W27757   2.231  16.488  13.535  0.3706  0.0018  0.1136
11284W        W27758   9.840   9.506  15.530 -0.1429  0.0703  0.1879
11285W        W27759   4.389   3.189  13.049 -0.1087  0.0203 -0.2898
11286W        W27760   8.299   0.143   1.455  0.3409  0.0361  0.2169
11287W        W27761  17.337  10.042   3.156  0.0356 -0.0011 -0.2226
11288W        W27762  14.765   0.942   0.851  0.0454  0.2115  0.2688
11289W        W27763  11.741   9.575  14.402  0.0286  0.0824  0.1913
11290W        W27764   5.271   8.960  14.994  0.1715  0.1987 -0.2210
11291W        W27765  11.988  10.559  14.334 -0.0884 -0.0641 -0.3271
11292W        W27766  18.401   1.649   2.130 -0.2757 -0.1578 -0.0337
11293W        W27767   0.714   1.401   0.692  0.1524 -0.2418 -0.0260
11294W        W27768  15.797   1.639   3.105  0.0540  0.1617 -0.1917
11295W        W27769  10.681   3.179  11.130  0.2907 -0.2252 -0.0661
11296W        W27770  15.565  18.328  13.335  0.4303 -0.1383  0.0568
11297W        W27771   1.988  13.991  14.564 -0.1195 -0.1239  0.0469
11298W        W27772   3.434   2.371   2.086 -0.0904  0.1676 -0.0019
11299W        W27773   8.116  10.482  14.634  0.3882  0.1983 -0.0844
11300W        W27774   5.095   6.665  11.090 -0.1192  0.0535  0.3079
11301W        W27775  14.461  16.063   3.834 -0.0452  0.1943  0.0200
11302W        W27776   4.629  14.396   2.514  0.2768 -0.4304  0.1001
11303W        W27777   5.177  18.042   4.433 -0.0565  0.1573 -0.1261
11304W        W27778   3.998  10.662   1.753  0.0672  0.0506 -0.3557
11305W        W27779  12.996   9.012   3.962 -0.2385  0.0840  0.0259
11306W        W27780  16.152   8.887   1.734  0.0080  0.0449 -0.0430
11307W        W27781  12.146   4.300  12.373 -0.0051  0.0198  0.1035
11308W        W27782   3.723  14.525   2.322  0.0335 -0.0333 -0.2597
11309W        W27783  15.095  11.435   1.460  0.1930 -0.1002  0.1060
11310W        W27784  13.331  17.501  14.588  0.2147  0.0891 -0.0840
11311W        W27785   7.343   0.463   5.936  0.1044  0.0268  0.0043
11312W        W27786   4.808  10.631   2.014 -0.0529 -0.0018  0.1056
11313W        W27787   5.533  15.879  11.770  0.1190 -0.0051 -0.0523
11314W        W27788  12.126  18.473   1.500 -0.1683 -0.0930  0.0171
11315W        W27789  14.781  13.687   1.271  0.1732  0.1172 -0.0805
11316W        W27790  18.245   6.755  10.526 -0.0261 -0.0512 -0.0768
11317W        W27791  13.196  10.789  13.018  0.0795  0.2366  0.0771
11318W        W27792  12.209  12.610   4.637 -0.1157  0.2925  0.0550
11319W        W27793  15.968   2.371  12.193 -0.1472  0.0924 -0.2327
11320W        W27794  14.393  14.161   3.883 -0.3337 -0.0931  0.1562
11321W        W27795   5.801  15.041   3.944 -0.3493  0.1295  0.0389
11322W        W27796   7.829   2.718  13.208 -0.1812  0.2310  0.1954
11323W        W27797   5.270  15.420   1.960 -0.0232  0.0584 -0.2491
11324W        W27798  15.138  14.548  13.287 -0.4798  0.1667  0.0640
11325W        W27799   1.659   3.446  14.346 -0.0008 -0.1075  0.1889
11326W        W27800  18.852   6.851  14.778  0.1247  0.1818 -0.0213
11327W        W27801   9.504   2.892   5.166 -0.3453 -0.0521 -0.3080
11328W        W27802   6.635   3.122  10.369 -0.1134 -0.0691  0.0657
11329W        W27803   6.294   0.582  12.123  0.2554 -0.0185 -0.2187
11330W        W27804   7.116  12.360  12.538  0.0200  0.0724  0.0734
11331W        W27805  16.713   9.269   4.079  0.3544 -0.1037  0.0305
11332W        W27806  16.487   5.222  10.498 -0.3164 -0.0108  0.1828
11333W        W27807  10.926  10.982   3.061  0.1955  0.1346 -0.1688
11334W        W27808   2.570   0.490   3.390  0.0203  0.0058 -0.3894
11335W        W27809   6.106  14.795   5.579 -0.0504  0.2723 -0.1991
11336W        W27810  17.680   8.432  13.110  0.0284 -0.2249  0.2041
11337W        W27811  14.976  13.000   1.993  0.4137 -0.1374  0.3764
11338W        W27812   5.269   9.800  11.089  0.1077 -0.0008  0.1680
11339W        W27813   2.680  16.000   2.956 -0.0530  0.2209  0.0196
11340W        W27814  10.396   2.013   4.467 -0.0915  0.6241  0.2902
11341W        W27815   8.450  13.776   4.674  0.0304 -0.3352 -0.2979
11342W        W27816   7.987  12.920   4.574  0.1369 -0.2856 -0.0335
11343W        W27817  17.448   7.176  14.289  0.1614 -0.2962 -0.1322
11344W        W27818   6.219   7.020  15.006  0.0231  0.3078  0.2097
11345W        W27819   0.689  12.551   4.055 -0.0350 -0.0215 -0.1114
11346W        W27820  11.388   6.740   3.052  0.0030 -0.1419 -0.2676
11347W        W27821   0.580   3.916  13.108 -0.0613  0.0392  0.1194
11348W        W27822  16.585   5.645   3.087  0.0498 -0.1018 -0.0339
11349W        W27823  10.348   0.420   0.848 -0.1594  0.1030  0.0135
11350W        W27824   8.146  12.245   5.138  0.0678  0.1681  0.0465
11351W        W27825   5.437  13.314  15.682 -0.4911 -0.5056 -0.3402
11352W        W27826   3.283   0.243   1.657 -0.1000  0.0050  0.0417
11353W        W27827   8.963   2.599   3.857 -0.2597  0.0687 -0.0991
11354W        W27828  16.504  13.602  11.264  0.0523  0.0599  0.0446
11355W        W27829   5.645   7.621   1.870  0.1864  0.4143 -0.1935
11356W        W27830   9.967   1.640   3.017  0.0009  0.0074 -0.2975
11357W        W27831   9.296   5.295  14.218  0.3352  0.1943 -0.0584
11358W        W27832   7.199  16.305   1.192  0.0077 -0.1422  0.0351
11359W        W27833   9.960   9.180  14.350 -0.4605 -0.0014  0.1874
11360W        W27834  13.984   9.199  11.841  0.1584 -0.0341 -0.1200
11361W        W27835  14.725   0.200  15.341 -0.0950 -0.2352  0.0474
11362W        W27836   7.244   0.434   2.183 -0.0554 -0.0128 -0.2527
11363W        W27837   2.067  10.682  10.610 -0.1095 -0.2248  0.0466
11364W        W27838  13.951   4.832  10.620 -0.1419 -0.2232 -0.1747
11365W        W27839   6.588   2.262   4.990  0.1377  0.1652 -0.2257
11366W        W27840   7.421  18.066  10.832  0.1265 -0.3000 -0.1437
11367W        W27841  13.861  12.708  13.146  0.2141 -0.0270 -0.0882
11368W        W27842   0.717  11.824  12.844  0.1119 -0.1010 -0.0091
11369W        W27843   5.637   4.012   4.965  0.0588  0.1316 -0.0523
11370W        W27844  18.611  16.417  13.616  0.0713 -0.0652 -0.0431
11371W        W27845  15.666   9.642  14.258  0.1187  0.0188 -0.0388
11372W        W27846   8.714   9.263   3.901 -0.0148 -0.0746 -0.0159
11373W        W27847   8.560   7.957   2.863 -0.1631  0.0701 -0.1489
11374W        W27848   0.243   8.684  11.650  0.3165  0.1222  0.0557
11375W        W27849  18.807   0.164   2.485  0.1760 -0.2356  0.2680
11376W        W27850  17.001   8.695   3.436 -0.1861  0.0357 -0.0228
11377W        W27851  18.660  13.941   4.300  0.1680  0.0961  0.1194
11378W        W27852   6.822   9.685   4.011  0.0078 -0.1277  0.0010
11379W        W27853   7.658   1.690   4.807 -0.1130  0.0033 -0.3024
11380W        W27854  11.574   7.473   5.805 -0.1517 -0.1410 -0.1629
11381W        W27855  11.543   7.339  14.802  0.1674  0.1367 -0.1684
11382W        W27856   7.770   4.922  15.042  0.2521 -0.2187  0.0156
11383W        W27857  14.026  10.854  12.221 -0.1196 -0.0532  0.4545
11384W        W27858  11.169   0.287  11.137  0.0151  0.1490  0.0412
11385W        W27859   7.863  18.736   2.458 -0.0311 -0.1925  0.1308
11386W        W27860   1.153   1.687   2.051  0.2785 -0.2075  0.0669
11387W        W27861   6.209  11.043  12.297  0.0453 -0.1182  0.1524
11388W        W27862   1.819  17.775   4.460 -0.2829  0.1953 -0.0402
11389W        W27863  11.767   3.199  13.303  0.0312  0.1092 -0.1133
11390W        W27864   5.072  18.102   0.675 -0.1750 -0.3836  0.0283
11391W        W27865  16.536   1.653  10.459 -0.0483 -0.3393  0.3020
11392W        W27866  18.432  12.265   2.041  0.0841 -0.1323  0.2009
11393W        W27867   4.744  16.154   2.535  0.0334 -0.2141  0.2669
11394W        W27868  15.939   6.057   2.205 -0.0491  0.0823 -0.1446
11395W        W27869   0.093   7.308  12.523  0.0067  0.2606  0.1624
11396W        W27870  10.627   5.412   0.522 -0.3174  0.1026 -0.0810
11397W        W27871   9.752  11.422  12.171 -0.2547  0.0838 -0.1570
11398W        W27872  10.773   9.540  11.563  0.2739  0.0319 -0.3870
11399W        W27873  12.412   0.022  11.150 -0.2136  0.2919 -0.2033
11400W        W27874  11.158   7.766   2.716  0.1309  0.0915  0.0455
11401W        W27875  16.832   8.284   9.642  0.0713 -0.2125  0.2053
11402W        W27876  17.821  18.552  13.068 -0.1381 -0.0169 -0.0705
11403W        W27877   2.937   5.148  12.101 -0.2640  0.1358  0.1868
11404W        W27878  14.393   7.168   0.514 -0.0258 -0.0394  0.3016
11405W        W27879  13.850   1.110  12.596 -0.0896  0.1943  0.0197
11406W        W27880  14.399   3.233   2.944 -0.0383 -0.0692  0.3331
11407W        W27881   7.479   4.122   6.288 -0.0838  0.0891 -0.3077
11408W        W27882   9.296  17.566   4.780 -0.1771 -0.0281 -0.0443
11409W        W27883   3.048   3.827   2.751 -0.1646  0.0771 -0.1809
11410W        W27884   2.524  18.228   2.762  0.3445  0.0859  0.1567
11411W        W27885   0.749  10.257   5.256 -0.1000 -0.4211 -0.1178
11412W        W27886  10.430   9.252  11.351  0.0711  0.0694 -0.2179
11413W        W27887   3.108   3.786  14.470 -0.4170 -0.1354  0.3144
11414W        W27888   3.252   0.719   0.017  0.2366 -0.2196 -0.2658
11415W        W27889  16.757  18.407  12.787  0.2634 -0.2157  0.0934
11416W        W27890  17.734  12.086   0.518 -0.1991 -0.2057  0.1332
11417W        W27891   7.458  10.303   3.668  0.0301 -0.2558 -0.1148
11418W        W27892  15.287  10.082   4.408 -0.1154  0.3847  0.2681
11419W        W27893  15.698   2.486  11.543  0.2163  0.2092  0.1441
11420W        W27894  14.419  12.357   1.356  0.1412 -0.0103 -0.1896
11421W        W27895   9.320   3.158   3.403 -0.0816  0.0798  0.0126
11422W        W27896   5.312  10.594   1.158  0.2702 -0.0668 -0.0970
11423W        W27897   9.897   0.878  13.515 -0.0173  0.1049 -0.1039
11424W        W27898   5.848  11.809   0.332 -0.1465  0.0849  0.1644
11425W        W27899  14.878  17.352   0.076 -0.1414 -0.0409  0.0372
11426W        W27900  17.584  11.786  10.060  0.1681 -0.3180  0.4615
11427W        W27901   6.432  14.323  12.592  0.3885 -0.1748  0.0736
11428W        W27902  10.977  16.149  15.393 -0.1668  0.0925 -0.0789
11429W        W27903   3.157   7.971   2.058  0.0675  0.1821  0.1718
11430W        W27904  10.350   5.452   1.988  0.2196  0.3272  0.0205
11431W        W27905   5.912   4.755   4.569  0.0581  0.1379 -0.2745
11432W        W27906   7.258   1.957  14.519 -0.2480 -0.2524  0.1045
11433W        W27907  18.450  12.358   1.096  0.2438 -0.3725  0.1387
11434W        W27908  12.003   1.364  13.982  0.0532  0.2183 -0.3741
11435W        W27909   1.634   9.397  14.648  0.0198  0.3632  0.0083
11436W        W27910   0.363   2.191  12.098  0.1656 -0.0955 -0.0873
11437W        W27911   9.181   0.580   4.079 -0.0741  0.0764  0.1219
11438W        W27912  16.286   1.197  13.334 -0.0274 -0.3189 -0.2877
11439W        W27913   5.935   4.706   4.032  0.2770  0.0114 -0.3240
11440W        W27914   6.263   1.823  12.250 -0.2012 -0.0019  0.3192
11441W        W27915   1.839  14.805   1.035 -0.0190  0.0669 -0.1434
11442W        W27916   9.463   8.169   3.921  0.0780  0.4056 -0.3489
11443W        W27917   3.471   6.954   2.589 -0.0726 -0.0250  0.0573
11444W        W27918   7.681   2.882  15.500 -0.0854 -0.2445  0.2840
11445W        W27919   7.628  18.401  12.967 -0.2119 -0.0367  0.2830
11446W        W27920  12.726   3.912   0.783 -0.0037  0.2781  0.0365
11447W        W27921   2.518   8.626   1.460 -0.0322  0.0612  0.1537
11448W        W27922  17.783   3.253  11.671  0.1870 -0.1923  0.0399
11449W        W27923  18.735   0.001   1.495  0.1262  0.1655  0.1984
11450W        W27924   0.412  13.579   1.113 -0.1271  0.1271 -0.1983
11451W        W27925   4.237  18.724  11.467 -0.0989 -0.5675 -0.0912
11452W        W27926   0.126   5.673   4.485 -0.0385  0.1631  0.1956
11453W        W27927   2.122   0.148  11.509 -0.0663 -0.4082 -0.0024
11454W        W27928   9.537   1.183   5.009  0.0499 -0.0885 -0.3738
11455W        W27929   5.136  10.849  15.222 -0.2416  0.1955  0.3523
11456W        W27930  15.225  13.596  13.216 -0.2546 -0.2715  0.1498
11457W        W27931   1.809   6.903   1.065 -0.2204 -0.1232  0.1335
11458W        W27932   0.137  16.308  10.834  0.0313 -0.0918 -0.1510
11459W        W27933   9.652   7.803   4.304  0.0937  0.4080 -0.2285
11460W        W27934  18.601  17.278  10.877  0.1960  0.1204  0.1825
11461W        W27935  11.219  15.128   0.630 -0.0252  0.0028  0.1652
11462W        W27936   6.271   7.805   0.795  0.0572  0.3732 -0.3455
11463W        W27937   1.316   0.017   3.208  0.0986 -0.3480 -0.1085
11464W        W27938  17.052  11.616   3.333 -0.3434 -0.2674 -0.0697
11465W        W27939  12.423  10.972   1.510  0.1718 -0.0111  0.0338
11466W        W27940   8.757   8.401   4.639 -0.0916 -0.1977 -0.1738
11467W        W27941  13.167  13.223  15.590  0.0497  0.1925  0.0240
11468W        W27942   4.831  14.185   5.399  0.0054  0.1361  0.0644
11469W        W27943   5.213  18.441  12.819 -0.1254  0.0024 -0.0870
11470W        W27944   9.950   1.089   4.178 -0.0300  0.0593 -0.0106
11471W        W27945   7.138  12.534   3.061  0.0267 -0.3902  0.1319
11472W        W27946   9.593  11.082   2.334  0.1320 -0.0528  0.1172
11473W        W27947   9.983   8.449  13.147  0.1265  0.1551  0.0450
11474W        W27948   8.085   4.720  11.390 -0.0104  0.4286 -0.3532
11475W        W27949  18.480  13.687  11.584 -0.1048  0.2313  0.0413
11476W        W27950  16.847   3.002   0.005 -0.1863  0.1737  0.2324
11477W        W27951  12.869  17.620   3.129 -0.4669  0.1522  0.0185
11478W        W27952   8.767   8.547   2.087  0.1277  0.1046 -0.1887
11479W        W27953   0.943  13.778  12.060  0.1834 -0.0322  0.0123
11480W        W27954   4.937   3.466  13.178  0.2801 -0.0314  0.0843
11481W        W27955   5.737   1.130   0.629  0.3294  0.3952 -0.3143
11482W        W27956   1.928   9.302   2.504  0.0302  0.2201 -0.2050
11483W        W27957   6.874  14.302   3.696  0.0372  0.2041  0.1049
11484W        W27958  11.703   1.510  12.658 -0.0751 -0.1547  0.3592
11485W        W27959   5.949  12.727   2.362  0.0739 -0.1954 -0.1963
11486W        W27960  14.523  13.859   4.696 -0.0393 -0.2057  0.0913
11487W        W27961  16.867  16.094   2.963 -0.1463 -0.1118  0.1426
11488W        W27962   4.557  16.560   5.749 -0.1057 -0.2652 -0.0676
11489W        W27963  11.404   4.158   5.054  0.3522 -0.1819 -0.1371
11490W        W27964   7.347  16.720  12.413  0.1627  0.2628  0.3330
11491W        W27965   9.547  17.498   4.298  0.1048  0.2873 -0.0915
11492W        W27966  13.408   5.247  12.153 -0.1291 -0.1171  0.3141
11493W        W27967  18.655  16.325   1.393  0.3156  0.4585  0.0059
11494W        W27968   3.586  13.086  11.100  0.0107 -0.2417 -0.2367
11495W        W27969  13.451  15.051   1.844  0.1431  0.3247 -0.1251
11496W        W27970  14.347  12.860   0.644 -0.1924  0.2675  0.1804
11497W        W27971  11.292   0.497   2.252  0.0539 -0.3169  0.2781
11498W        W27972  16.132  10.796  12.200  0.1027  0.1272 -0.2357
11499W        W27973   0.544   1.052  12.190 -0.1203  0.1688  0.0718
11500W        W27974  18.845   8.474   0.469 -0.1694 -0.1990 -0.0779
11501W        W27975   1.106   9.011   3.698  0.1711 -0.3001  0.0816
11502W        W27976   2.636  15.493   5.736  0.3358 -0.0888 -0.0472
11503W        W27977   3.248   5.609  13.126 -0.3502 -0.1514  0.1013
11504W        W27978  10.436  15.575   0.313 -0.2502 -0.1579  0.5273
11505W        W27979   7.797  13.834  11.951 -0.1982 -0.0548 -0.3935
11506W        W27980  13.724  18.458  15.651  0.1191  0.1722  0.1144
11507W        W27981  13.678  15.156   1.423 -0.1826 -0.3818 -0.1779
11508W        W27982  15.089   6.382   4.131 -0.3585  0.1565  0.0839
11509W        W27983   6.461   8.621   2.105 -0.0837  0.0693 -0.1966
11510W        W27984   9.581   4.179   4.870 -0.3730 -0.0386  0.1575
11511W        W27985  16.615   9.787  10.970 -0.1292  0.4267  0.0121
11512W        W27986   6.613  15.586  13.047  0.3145 -0.2105 -0.0913
11513W        W27987   3.877   5.766  11.496  0.3017  0.0700 -0.2820
11514W        W27988   7.753  11.130  14.970 -0.1945  0.2127 -0.0662
11515W        W27989  10.060  11.358  11.777 -0.2957  0.2023 -0.0549
11516W        W27990  13.690   4.477   3.931 -0.2641 -0.1666  0.0483
11517W        W27991  12.143  16.351  12.608  0.0842 -0.1178  0.0020
11518W        W27992  10.898   0.457  13.699  0.2265  0.0970  0.2780
11519W        W27993   7.215  10.470   5.031  0.1245 -0.0588  0.1996
11520W        W27994  16.826   9.514  12.398 -0.0849 -0.1158 -0.2498
11521W        W27995   1.389   0.858  15.579 -0.3707  0.0003  0.0150
11522W        W27996  13.264  14.674   2.309  0.0312 -0.0617  0.2665
11523W        W27997   7.400   0.939  15.009 -0.1263 -0.1413  0.0792
11524W        W27998   4.238   3.846   5.239  0.0223 -0.2470 -0.0480
11525W        W27999   0.173   4.957   5.249 -0.0802 -0.1335 -0.2114
11526W        W28000   9.442   6.107   3.388  0.2229  0.0429  0.0031
11527W        W28001  13.418  14.081   3.624  0.2720  0.2485 -0.1966
11528W        W28002   8.983   6.866  13.767 -0.0062 -0.1471  0.1061
11529W        W28003  11.406  18.278  13.853  0.0300 -0.1127 -0.0976
11530W        W28004   2.362   4.090   2.965 -0.3011 -0.2424 -0.4814
11531W        W28005   0.123   2.698   0.542  0.2996  0.4963 -0.1780
11532W        W28006   1.602  14.467  10.857  0.2275 -0.1221 -0.1125
11533W        W28007  16.207   9.493   1.849  0.4240  0.5979  0.1666
11534W        W28008  13.503  12.887   4.440  0.1317 -0.1630 -0.0245
11535W        W28009  12.661  10.620   3.191 -0.0644 -0.0981  0.1122
11536W        W28010   9.586   1.386   1.976 -0.0320  0.2311 -0.2016
11537W        W28011  15.877  10.375   3.222 -0.3820  0.0289 -0.2258
11538W        W28012   6.889  17.479   6.024  0.2457 -0.1668 -0.3238
11539W        W28013   6.377   2.743  12.928 -0.1102  0.0073 -0.2334
11540W        W28014  16.494   1.504   4.382 -0.0048 -0.1490 -0.1369
11541W        W28015  18.125   1.883  15.180 -0.1406 -0.2674 -0.0168
11542W        W28016   3.408  10.946  11.311 -0.2755 -0.0124  0.1560
11543W        W28017  10.871  11.126  11.883  0.1158  0.4317  0.0064
11544W        W28018  16.645  14.992  10.525 -0.0290 -0.0093  0.3569
11545W        W28019  16.890   8.256   3.239 -0.2896  0.0820  0.1937
11546W        W28020   8.619  11.659  12.464 -0.0288  0.1704 -0.1325
11547W        W28021   7.496  18.063  12.002 -0.0667  0.2545 -0.1286
11548W        W28022   5.813  13.044   3.853 -0.1604 -0.0167 -0.2444
11549W        W28023  13.786   8.848  15.534  0.3457  0.0011  0.2151
11550W        W28024  17.489  10.584   1.802  0.1409  0.0830 -0.0841
11551W        W28025  16.238   5.494   0.167 -0.0894 -0.0780  0.0457
11552W        W28026   6.420  14.134  13.795 -0.1733  0.2224 -0.0732
11553W        W28027   0.635  15.307   0.710 -0.0730  0.2003  0.1353
11554W        W28028   6.575   9.689  14.636 -0.1108  0.0571  0.1540
11555W        W28029   4.547   1.206  11.148  0.1678 -0.0051  0.1494
11556W        W28030  15.215   9.863  10.650 -0.2138  0.1598 -0.3401
11557W        W28031  18.274  12.181  10.595  0.0698 -0.0336  0.0049
11558W        W28032   9.651  17.171   0.658  0.1268  0.2296  0.0964
11559W        W28033   0.926  11.026   3.827  0.0293 -0.3549  0.0263
11560W        W28034   6.753   3.629  11.838 -0.1787 -0.1950  0.1622
11561W        W28035   3.112  15.996   3.267  0.2692  0.0504 -0.2448
11562W        W28036  15.197   8.407   0.114 -0.2571  0.0261  0.3832
11563W        W28037   2.187   7.281  13.449 -0.0493  0.4028 -0.1379
11564W        W28038   3.384  16.606   0.535  0.0037  0.2292  0.2940
11565W        W28039  11.053   4.213   3.380  0.0711 -0.2499 -0.0053
11566W        W28040   4.338  17.816  10.548  0.3176 -0.3693 -0.0808
11567W        W28041   7.364   8.958  13.172 -0.1523 -0.1148  0.0073
11568W        W28042  18.070   8.974  14.845  0.1550  0.2921 -0.1720
11569W        W28043  12.639   6.539  15.278 -0.0092 -0.2429 -0.0222
11570W        W28044  13.246   0.023  14.762 -0.0998 -0.0615  0.1495
11571W        W28045  17.085   1.179  15.490 -0.0364  0.2335  0.0595
11572W        W28046   7.603   8.428  11.991 -0.0602 -0.0819  0.4745
11573W        W28047  18.615  17.783  13.899 -0.4827  0.4664 -0.1950
11574W        W28048   7.321   7.437  12.746  0.0284  0.1200  0.1805
11575W        W28049   6.312  10.362   1.354 -0.3872 -0.2281 -0.0666
11576W        W28050  10.483   6.965  14.844 -0.3313 -0.0611  0.1250
11577W        W28051  11.672  16.149  10.493 -0.1387  0.2988  0.0201
11578W        W28052   3.668  11.270  14.563  0.0814  0.0092  0.1898
11579W        W28053  18.649   1.744  15.085 -0.0234  0.1932  0.1214
11580W        W28054  13.463  18.182  12.798 -0.1536  0.0548 -0.3872
11581W        W28055  10.513   2.571  13.364 -0.0674  0.0605 -0.0125
11582W        W28056   7.750  13.895   1.816  0.0662  0.1341 -0.2030
11583W        W28057   0.501   8.258   0.370  0.2984  0.4621  0.1041
11584W        W28058  16.944  18.223  11.113  0.1219 -0.0458  0.0453
11585W        W28059   3.449  18.786  12.333 -0.0655 -0.2251 -0.0711
11586W        W28060   9.737   7.629  12.439 -0.1525  0.0640 -0.0295
11587W        W28061  14.113  15.690   3.087 -0.1996 -0.0510  0.0040
11588W        W28062   0.301  11.458   3.009  0.1073  0.1786 -0.0333
11589W        W28063   0.513   4.431  14.716  0.1543  0.3667 -0.1839
11590W        W28064  10.926  10.022  15.167  0.0737 -0.1240  0.1858
11591W        W28065   5.497  12.232  14.914  0.2066  0.2792 -0.0240
11592W        W28066  16.930   6.192   4.732  0.0904  0.0050 -0.1131
11593W        W28067   2.112   5.047   1.182  0.2202  0.2234 -0.1041
11594W        W28068  14.638   6.023   5.667  0.0655  0.2299  0.2704
11595W        W28069   6.547   9.802  11.940 -0.1975 -0.0321 -0.3475
11596W        W28070  18.640  18.217   3.161  0.4777 -0.0736 -0.1317
11597W        W28071  14.110  12.547   0.307 -0.1349 -0.0293 -0.0232
11598W        W28072  14.644   7.293   5.474  0.0657 -0.1951 -0.2363
11599W        W28073  15.613  10.620   1.288  0.0147  0.0665 -0.2180
11600W        W28074   4.832   1.393  12.022 -0.2379 -0.2691  0.0687
11601W        W28075   1.033   7.120  14.037 -0.1001  0.0587 -0.0440
11602W        W28076  11.860  15.789  14.549  0.0753 -0.2144  0.3981
11603W        W28077  15.005   7.075   4.687  0.0031 -0.4310  0.1313
11604W        W28078   1.361  12.861  15.510  0.1378  0.0134 -0.1069
11605W        W28079  15.009  16.547  11.381  0.4578 -0.4910 -0.1350
11606W        W28080  14.871   6.139   4.740  0.1420  0.0557 -0.1023
11607W        W28081  16.225  17.557   4.927 -0.5472  0.1381 -0.3050
11608W        W28082  16.364  11.102  13.215  0.0004 -0.2454  0.1097
11609W        W28083   6.868  10.932  15.093 -0.3382  0.0414  0.2535
11610W        W28084  13.347   9.684   5.559 -0.2878 -0.2913  0.3686
11611W        W28085  17.387  13.098  11.318 -0.1098 -0.1941 -0.1262
11612W        W28086   4.779   7.113   0.752 -0.0328  0.1548 -0.0376
11613W        W28087   2.247   2.619   0.157 -0.1869 -0.0553  0.3396
11614W        W28088  16.031  18.375   4.105  0.2771 -0.1228 -0.2039
11615W        W28089   1.297   3.358  13.493  0.2025 -0.1311  0.1164
11616W        W28090  10.289  12.536  13.965 -0.0345  0.1960  0.2439
11617W        W28091   8.757   9.787  13.633  0.1197  0.0968 -0.5045
11618W        W28092   0.159  16.476  12.119  0.2505  0.2489  0.1612
11619W        W28093  18.138   5.717  13.091  0.1274  0.0486  0.1248
11620W        W28094  16.897  12.302   0.322  0.1577 -0.2984 -0.0138
11621W        W28095   1.384   9.839   0.138  0.1346  0.4001 -0.3331
11622W        W28096  15.460   6.070  13.870  0.0711  0.0026  0.1828
11623W        W28097   0.638   4.851   1.646  0.0007  0.2248 -0.0245
11624W        W28098   4.065   2.692   0.609  0.0123 -0.1814 -0.0984
11625W        W28099   8.363   0.988   0.254 -0.1164 -0.0080  0.0618
11626W        W28100   6.832   3.749  15.515  0.2655  0.0068  0.1395
11627W        W28101  17.005  17.171  14.009  0.2364 -0.3423  0.0202
11628W        W28102   1.955  17.183  15.384  0.0269  0.0624 -0.2015
11629W        W28103   9.647  15.323  12.244 -0.2134  0.2332 -0.0325
11630W        W28104  15.456   0.275   3.570  0.0598  0.0039 -0.1470
11631W        W28105  15.047   1.537   2.499  0.0976 -0.2790  0.3666
11632W        W28106   7.423   6.947   0.414 -0.1835 -0.2150 -0.0128
11633W        W28107   9.430   7.154   6.017  0.1773 -0.1472  0.0427
11634W        W28108  13.368   5.201   0.756 -0.1321 -0.1398 -0.2579
11635W        W28109   4.571  15.329   2.468  0.0804  0.0879  0.0607
11636W        W28110   4.260   0.505  14.583 -0.0806  0.0395 -0.1231
11637W        W28111   2.292   0.641   4.677  0.2360  0.2846 -0.0947
11638W        W28112  14.923   2.621  11.299  0.1298  0.1283  0.0514
11639W        W28113  10.069   1.519   1.854  0.1289 -0.0843 -0.0021
11640W        W28114  13.644   4.941   3.773  0.3371 -0.2194  0.1278
11641W        W28115  18.317  16.416  11.405  0.2438 -0.1128  0.2193
11642W        W28116   7.663   0.024   4.676 -0.1926 -0.1573 -0.1555
11643W        W28117  14.851  14.112  10.661  0.1019  0.1642  0.1476
11644W        W28118   2.042   0.481  14.057 -0.3462  0.1569 -0.2127
11645W        W28119   6.609  16.074  12.481 -0.1239 -0.0573 -0.2241
11646W        W28120  14.010  12.915   4.597 -0.2523 -0.2200  0.1301
11647W        W28121   2.691   4.679  11.485 -0.0579  0.1606 -0.1038
11648W        W28122  12.671  12.168   5.244 -0.0048 -0.0351  0.1091
11649W        W28123  18.106  16.081  11.097  0.6023  0.0462 -0.0061
11650W        W28124   1.123   9.369  14.894 -0.4593 -0.2313  0.1925
11651W        W28125  13.165   5.313  14.839  0.2982  0.0899 -0.0500
11652W        W28126   8.996   1.158   2.268 -0.1377  0.2382 -0.0242
11653W        W28127   7.349  12.983   0.724 -0.0227  0.2706  0.0907
11654W        W28128   9.109   6.043  11.516  0.2667  0.0780  0.1066
11655W        W28129   8.171   4.698   2.825 -0.0137  0.1674  0.0099
11656W        W28130   3.344   8.589   0.431 -0.4558  0.0951  0.0206
11657W        W28131   7.328  16.028   0.770  0.0029 -0.1103  0.0013
11658W        W28132  17.494   5.397  13.624 -0.1186 -0.1833  0.0914
11659W        W28133   1.727  16.474   9.696  0.1076  0.1111 -0.1136
11660W        W28134  16.711   9.267  12.810  0.1700 -0.1905 -0.1894
11661W        W28135   4.888   8.799   0.281  0.0556  0.0261  0.0542
11662W        W28136   0.638  14.336   2.739 -0.3749 -0.1590 -0.4442
11663W        W28137  10.386  18.287  11.527  0.3891  0.0060  0.3908
11664W        W28138  12.682   3.951  14.674  0.3919 -0.1682  0.0135
11665W        W28139  18.332   3.822   2.835  0.0862 -0.0800  0.0533
11666W        W28140  16.796   5.240  10.033 -0.1831  0.1300  0.0816
11667W        W28141   7.308  18.082   5.257 -0.0036  0.0995  0.1070
11668W        W28142   8.603   1.998   5.409  0.1862 -0.3870 -0.0895
11669W        W28143  18.648   0.540   2.988  0.0061  0.0515 -0.2080
11670W        W28144  12.621   2.047  13.530 -0.0054 -0.2432 -0.0694
11671W        W28145   1.006   1.479  13.026  0.1097 -0.1218  0.3680
11672W        W28146   8.444   1.893   4.288 -0.0426  0.1089 -0.2855
11673W        W28147  12.217  18.585  15.234 -0.0253 -0.0517  0.0869
11674W        W28148   2.699   9.664  15.547  0.2106  0.2809 -0.1319
11675W        W28149   0.102   7.193  11.230 -0.0511 -0.0143  0.2572
11676W        W28150  12.669   4.698   1.883  0.2501  0.1034 -0.0603
11677W        W28151   3.835   0.351   5.095  0.2517 -0.3977  0.0746
11678W        W28152   7.297   8.973  14.986 -0.0615  0.0708  0.5029
11679W        W28153   4.214   8.457   1.619 -0.3156 -0.1550 -0.0502
11680W        W28154  12.685   0.695   0.477 -0.1786  0.3047 -0.0643
11681W        W28155   0.401  18.761  13.838  0.3716  0.0538  0.1866
11682W        W28156  13.033  17.250   1.807  0.3073  0.1371 -0.0888
11683W        W28157  10.608  16.567   1.615 -0.0599  0.0986 -0.0206
11684W        W28158   3.116  18.007  13.204  0.1672  0.0203 -0.0315
11685W        W28159   1.173  12.605  12.444  0.1269  0.0645 -0.1027
11686W        W28160   5.938   5.539   5.255  0.3671  0.1003 -0.2138
11687W        W28161   9.978   5.271   3.928  0.0330 -0.2056 -0.0589
11688W        W28162   2.728  11.341  15.060  0.0544 -0.1695 -0.2187
11689W        W28163   1.503   2.203  12.244  0.1341 -0.1783  0.4197
11690W        W28164   5.867   5.822  11.202  0.1199  0.0182 -0.1800
11691W        W28165  15.668  14.529   2.738  0.2258  0.1153 -0.0973
11692W        W28166  10.518  12.390  11.981 -0.1500  0.1745  0.1124
11693W        W28167   5.107   1.840   5.335 -0.1931 -0.4084  0.2185
11694W        W28168   3.053   2.164   3.244  0.0540  0.2486 -0.0272
11695W        W28169   8.190   2.649  14.947  0.1398 -0.0285  0.0960
11696W        W28170  12.267  10.505  13.357 -0.2716 -0.3924  0.2255
11697W        W28171  11.572  18.406   2.820  0.0519 -0.0933  0.1208
11698W        W28172  17.613  12.168   0.017 -0.1117 -0.2249  0.0227
11699W        W28173  11.526  16.413   1.596  0.3861 -0.3391  0.2867
11700W        W28174   7.145  13.159  13.583  0.1509  0.1935 -0.1089
11701W        W28175  17.525  10.472   3.175  0.0725 -0.0647  0.0788
11702W        W28176  14.410   1.192  13.979  0.0916  0.1945  0.5325
11703W        W28177  10.798   8.667  15.253 -0.3598  0.1257  0.0563
11704W        W28178   0.593   1.194   1.247 -0.0617  0.0735 -0.1316
11705W        W28179   2.314  16.669  14.015  0.1834  0.2115  0.2622
11706W        W28180   3.138  16.277  12.996 -0.1612 -0.1415  0.3096
11707W        W28181  12.002  18.635  12.633 -0.1405  0.3935 -0.2802
11708W        W28182   4.633   7.759  12.665 -0.0951  0.2866  0.1840
11709W        W28183   9.173   7.013   3.630  0.2105  0.0695 -0.0196
11710W        W28184   6.338  11.070  13.129 -0.2645  0.2854  0.0256
11711W        W28185   9.039   7.010   2.450 -0.1240  0.3799  0.1050
11712W        W28186   6.019  15.201   0.086 -0.1393  0.0370 -0.0531
11713W        W28187   3.236   7.403  11.378 -0.1011  0.1885  0.2263
11714W        W28188  10.674  18.705   0.051  0.2400  0.1518  0.4312
11715W        W28189  11.475  16.204   3.426  0.1250  0.2928 -0.0111
11716W        W28190   0.777  13.076  13.327  0.2176  0.2626  0.3755
11717W        W28191  15.265   5.934   4.251 -0.3676  0.1347  0.1481
11718W        W28192  11.986  11.905  11.001 -0.0976 -0.0506  0.2984
11719W        W28193   2.934   9.709   3.862  0.0149 -0.0399 -0.1230
11720W        W28194  13.334   8.069   3.415  0.1934  0.2073  0.0925
11721W        W28195   4.797  15.591  11.924  0.0528 -0.1762 -0.2459
11722W        W28196   8.093   9.137   0.431 -0.2983  0.3401 -0.1589
11723W        W28197   7.555   0.987   4.256  0.2114 -0.0368  0.1078
11724W        W28198  13.210   7.715   3.043 -0.0457 -0.1088  0.1033
11725W        W28199   8.268   4.434   5.264 -0.2523 -0.3966 -0.0579
11726W        W28200  15.253  11.488  12.337  0.0025  0.0145 -0.2157
11727W        W28201   6.539  17.648   4.203 -0.2269  0.2491  0.1684
11728W        W28202   4.226   8.586   0.756 -0.0446  0.0311  0.3495
11729W        W28203  18.204   7.678  14.196 -0.1672  0.0631  0.1622
11730W        W28204   5.475  11.601  15.678  0.0120  0.2281 -0.0653
11731W        W28205   4.700  10.492  11.601 -0.1933 -0.1364 -0.1084
11732W        W28206   8.782   0.162   1.673 -0.0521 -0.2554  0.0919
11733W        W28207  15.874  17.352   1.787 -0.1602 -0.3074  0.2339
11734W        W28208   5.465   0.117  12.109 -0.2447 -0.1926  0.2425
11735W        W28209  14.610  17.950   3.641 -0.3398 -0.0728 -0.2148
11736W        W28210  13.773   2.629  12.153 -0.0522 -0.1427 -0.0735
11737W        W28211  12.633   1.569  14.559 -0.1499 -0.2400  0.1951
11738W        W28212   6.990   7.540   2.662 -0.1609  0.0968 -0.0464
11739W        W28213  18.365   9.443  13.834  0.0960  0.0333  0.2200
11740W        W28214   2.686   9.958  10.509 -0.1611  0.0860  0.0028
11741W        W28215   3.967   5.900   3.987 -0.1459  0.0060 -0.0177
11742W        W28216  12.709  12.823   2.666  0.1547 -0.0941  0.2394
11743W        W28217   4.917  14.049  15.615 -0.0504  0.1276  0.0777
11744W        W28218   0.050   9.171  10.749 -0.4528 -0.1949 -0.2645
11745W        W28219   9.216   3.193  15.012 -0.1549  0.1699  0.1055
11746W        W28220  13.067   1.237  14.753  0.1130 -0.0847  0.1195
11747W        W28221   3.872   4.947   2.829 -0.0637  0.1124 -0.2232
11748W        W28222  14.499  16.704  11.445  0.1278  0.1931  0.1636
11749W        W28223   7.584  13.841  13.898  0.1124  0.2389  0.5140
11750W        W28224  17.211  12.644   2.379 -0.0885 -0.2981  0.1078
11751W        W28225   0.003   5.828   3.458 -0.1332 -0.2054 -0.1832
11752W        W28226  13.255  11.160   2.725 -0.0417 -0.0147 -0.1953
11753W        W28227   9.590  16.585  12.051  0.0529  0.0087 -0.0395
11754W        W28228   0.112  13.435   2.597 -0.3223 -0.3042 -0.1440
11755W        W28229   8.429  12.126  12.553  0.3095 -0.0009  0.2405
11756W        W28230  11.861   2.478   3.247  0.3278  0.2505  0.2635
11757W        W28231   2.009   1.599  11.673 -0.1143  0.0961  0.0292
11758W        W28232   2.821  14.629   3.882  0.2220  0.1247 -0.1655
11759W        W28233  11.960   2.699  13.499  0.2607  0.0678  0.0328
11760W        W28234  17.881   3.075  10.229 -0.0621  0.3741  0.1130
11761W        W28235   3.221  10.027  14.484  0.2319 -0.1767 -0.0623
11762W        W28236   0.806   8.928  14.492  0.1153  0.3736 -0.1739
11763W        W28237  13.525   7.983  12.040 -0.0669 -0.1203 -0.4809
11764W        W28238   7.400   8.975  12.129 -0.0265 -0.3534  0.2272
11765W        W28239   8.479   9.578  14.992 -0.0691 -0.2511  0.0476
11766W        W28240  12.939   7.419  11.652  0.1274  0.0539  0.0948
11767W        W28241   7.080   8.088  15.401 -0.0108  0.0206  0.3725
11768W        W28242   4.016  10.131   2.472  0.0005 -0.1051 -0.1876
11769W        W28243   2.604  14.858  10.964  0.2036  0.1096  0.4279
11770W        W28244   6.480   7.852  11.629  0.1928  0.1509 -0.2350
11771W        W28245  13.541   3.372   1.051 -0.1531 -0.1683 -0.0477
11772W        W28246  11.304   6.103   2.821  0.0681  0.1131 -0.3628
11773W        W28247  17.878  18.641   4.225 -0.1043  0.1815  0.2026
11774W        W28248   8.367   7.030  14.330  0.0970  0.0307 -0.0753
11775W        W28249  10.513  13.010   4.590  0.1372 -0.1405  0.3004
11776W        W28250   3.598  17.488  12.286 -0.0272 -0.0772 -0.0784
11777W        W28251  18.596  10.534   3.979 -0.0132 -0.0295  0.3751
11778W        W28252   6.500   7.571   3.965  0.0181  0.0358 -0.1115
11779W        W28253   9.975   9.220  13.216 -0.3152  0.0615 -0.2069
11780W        W28254  14.784   0.574  12.794 -0.3610  0.2306 -0.0702
11781W        W28255  16.653  14.252   4.767 -0.2605 -0.1156  0.1039
11782W        W28256  13.221   2.311  13.497  0.1118  0.0524 -0.0345
11783W        W28257   0.694   9.749   1.981  0.0737 -0.0848  0.1051
11784W        W28258  16.797  13.024   4.694  0.1142  0.0203  0.2607
11785W        W28259   4.634   9.658   3.379  0.0388 -0.1890 -0.1068
11786W        W28260  15.834   5.390  15.173  0.0766 -0.0849  0.1747
11787W        W28261   6.876   1.458   0.691  0.2047  0.0114  0.1263
11788W        W28262  18.361   1.198  11.253 -0.0292 -0.2375 -0.1635
11789W        W28263  12.463  15.655   2.663 -0.2392  0.1318 -0.0147
11790W        W28264  12.397   1.278   0.742  0.2243  0.0207 -0.0944
11791W        W28265  10.971   2.993  12.918 -0.0914  0.0015  0.0178
11792W        W28266  18.528   2.287   0.016 -0.0198 -0.1278  0.2288
11793W        W28267  13.712  13.809  13.933  0.5472  0.2549  0.0307
11794W        W28268  16.431  12.215   0.528 -0.0804  0.0774  0.1478
11795W        W28269  16.656   4.524   2.645 -0.2162  0.0243  0.0330
11796W        W28270   4.043  18.269  12.673 -0.0594 -0.0967 -0.2917
11797W        W28271   8.900   6.029  14.034  0.1026 -0.0194 -0.3033
11798W        W28272  10.883   8.183  13.615 -0.2392  0.1052 -0.1260
11799W        W28273  12.529  10.966  13.297  0.1427  0.1483  0.1618
11800W        W28274   6.622  16.862  13.128  0.1622 -0.1318  0.3615
11801W        W28275   4.381  12.348  14.052 -0.2063  0.2695  0.1101
11802W        W28276  13.989  17.562   4.840  0.0941  0.0368 -0.2440
11803W        W28277  15.024   3.523  13.163  0.1365 -0.1107 -0.1145
11804W        W28278  17.866  18.808  14.853 -0.0858 -0.1796 -0.4397
11805W        W28279  18.020   6.806  11.507 -0.2743  0.0601  0.1445
11806W        W28280   2.835   7.878  15.556 -0.0742  0.1092  0.1529
11807W        W28281  13.723   5.523   5.520 -0.1005  0.0094  0.1737
11808W        W28282   2.278   5.401  12.008 -0.0484 -0.1787  0.2620
11809W        W28283  11.501  15.452   1.899  0.0544  0.0624  0.1619
11810W        W28284   4.126   9.559  14.028 -0.0594 -0.0642  0.3184
11811W        W28285  12.158   9.571  12.821 -0.1898 -0.1596 -0.0789
11812W        W28286   0.712   4.403  13.085 -0.1202 -0.1165 -0.0300
11813W        W28287  18.821  13.391  15.163  0.0291  0.2615 -0.0148
11814W        W28288   5.685   2.823  14.084 -0.1656  0.3248  0.4091
11815W        W28289   4.282   6.197   2.156 -0.0815  0.4974  0.2327
11816W        W28290  18.004   3.211  11.032 -0.1658 -0.3184  0.3945
11817W        W28291  11.012   4.079  11.815  0.1953 -0.0823  0.0794
11818W        W28292   3.115  12.224  11.748  0.0056  0.0546 -0.0187
11819W        W28293   8.179  16.219  13.951  0.2594 -0.1728  0.3136
11820W        W28294   5.249   8.686  13.198  0.4210 -0.0786  0.0273
11821W        W28295   6.720  17.995   0.359 -0.0065 -0.0547 -0.0234
11822W        W28296  17.717   5.264  11.507 -0.4277 -0.1114  0.1497
11823W        W28297  10.933  10.240   3.775  0.0497 -0.0796 -0.2700
11824W        W28298  12.552   3.310   2.006  0.1724 -0.1493 -0.3184
11825W        W28299   1.253  11.778  12.932  0.0214  0.1311 -0.1291
11826W        W28300  11.140   4.662   3.193  0.0605 -0.0296 -0.3469
11827W        W28301   1.766  17.467   1.829 -0.1760 -0.2823 -0.1214
11828W        W28302  15.618  18.613   3.925  0.0245  0.4000  0.0258
11829W        W28303   9.018  12.161   4.903  0.1547  0.3821 -0.1318
11830W        W28304   0.053  11.535  12.053 -0.0007  0.1059 -0.0615
11831W        W28305  14.430   4.363  11.488  0.1251 -0.0638 -0.0499
11832W        W28306  12.571  18.668   0.825  0.1289  0.0332  0.1501
11833W        W28307  10.487   6.758   5.279 -0.3228 -0.1239  0.1030
11834W        W28308  10.434   1.885   3.119  0.0192 -0.0472  0.1247
11835W        W28309  11.963  11.925   3.958 -0.0945  0.0769 -0.2422
11836W        W28310  16.082  11.693  13.907  0.2546 -0.0451  0.0937
11837W        W28311  17.973  13.338  15.587  0.1912  0.1171  0.2787
11838W        W28312  10.130  16.699  14.636  0.0972 -0.1264  0.0120
11839W        W28313   3.863  11.154  14.111  0.2369 -0.0064 -0.0593
11840W        W28314  10.276   5.366  13.245  0.1676  0.0267 -0.1192
11841W        W28315   3.350  15.218   3.711  0.0568  0.3276 -0.2867
11842W        W28316  10.957   1.399   2.181 -0.2072  0.2619  0.2287
11843W        W28317  14.270   0.486   4.035  0.0440 -0.2294 -0.1655
11844W        W28318   3.076   5.588   4.109 -0.0821  0.2805  0.1108
11845W        W28319   9.795  15.219  13.625 -0.1842 -0.1266  0.0539
11846W        W28320   1.212  18.329   5.572  0.2554  0.1780  0.1024
11847W        W28321   4.922  16.179  13.296  0.1357 -0.1469  0.2501
11848W        W28322   0.342  14.016   3.423  0.0317  0.0048 -0.1964
11849W        W28323   4.586  18.763   0.325  0.0208 -0.0924 -0.1218
11850W        W28324  11.234  16.866   1.498 -0.1879  0.2926 -0.1431
11851W        W28325   7.087  16.732  11.931  0.1158  0.1723  0.0734
11852W        W28326   6.778  17.454   0.194  0.0990 -0.1383 -0.2799
11853W        W28327   3.339   7.661  11.838 -0.1444 -0.2872  0.2325
11854W        W28328  14.380  10.768   3.612  0.0318  0.0552  0.2851
11855W        W28329   9.671  10.163   1.959 -0.1023 -0.2910  0.1316
11856W        W28330  10.069   1.956  13.628  0.0121  0.1842  0.1598
11857W        W28331   4.182   6.150  13.430  0.0742 -0.1974 -0.1269
11858W        W28332  17.282   9.821   0.970 -0.0591  0.2501  0.5723
11859W        W28333   0.968  18.802   4.021  0.2477 -0.0105  0.0528
11860W        W28334   5.661  18.179   4.430  0.1973  0.1671  0.0698
11861W        W28335   4.008   8.975  13.209 -0.1336 -0.1065 -0.0364
11862W        W28336   1.693   8.129  13.929 -0.3066 -0.2177 -0.0072
11863W        W28337   5.078   7.874  15.039 -0.0919 -0.0044 -0.0165
11864W        W28338   3.447   1.109  14.335 -0.0141 -0.0873  0.1028
11865W        W28339  11.166   7.411   4.133 -0.0471  0.0711 -0.0978
11866W        W28340   1.126  10.946  13.912 -0.1307  0.0884 -0.1779
11867W        W28341   3.870   9.318   3.484 -0.0311  0.1761  0.0800
11868W        W28342   1.646  15.420   1.634  0.1309 -0.0085 -0.3156
11869W        W28343   3.224   7.550  12.839 -0.1153  0.1889  0.1778
11870W        W28344  13.957  11.851  13.878  0.0311 -0.3128 -0.1999
11871W        W28345  14.603  11.239  12.737  0.0477 -0.5241 -0.1255
11872W        W28346   5.072   1.024  11.809  0.3037 -0.2371 -0.0771
11873W        W28347   8.304  12.563   5.456 -0.2792 -0.0024 -0.0622
11874W        W28348   7.680  15.415  13.951 -0.2701  0.1719  0.1333
11875W        W28349   8.939   6.122  14.580 -0.3320  0.0602  0.2966
11876W        W28350   2.089   2.003  13.032 -0.0635 -0.1590  0.0141
11877W        W28351  12.869  13.760   2.443  0.1857 -0.1541  0.2063
11878W        W28352   0.051   2.775   1.998 -0.2928  0.1907 -0.0508
11879W        W28353   5.675   7.504   3.679  0.1974 -0.1290  0.0508
11880W        W28354   6.409  16.650  12.486 -0.0938 -0.1968 -0.2003
11881W        W28355  12.816   2.208   1.711 -0.0310 -0.1522 -0.0288
11882W        W28356  11.434  16.680   3.512  0.1178  0.0629  0.0919
11883W        W28357   7.520  17.434   1.943 -0.2311  0.1727 -0.2798
11884W        W28358   2.267   6.388  14.449 -0.0289  0.3265 -0.3111
11885W        W28359   5.057   8.532  12.721 -0.0807 -0.1269 -0.1410
11886W        W28360   5.912   9.232   1.001 -0.3592 -0.3235 -0.2882
11887W        W28361   8.460   0.003  11.012  0.2852  0.3111 -0.0238
11888W        W28362  14.319   1.242   2.435  0.1613 -0.0930  0.2284
11889W        W28363   3.784  18.519   3.158 -0.2721 -0.1442  0.1066
11890W        W28364  14.781  11.384   0.086 -0.0256 -0.1796  0.0013
11891W        W28365  14.417   9.307  12.866  0.2086  0.1237  0.1236
11892W        W28366   4.084   8.830  12.428 -0.1491 -0.0191  0.2658
11893W        W28367   1.169   7.771  10.723 -0.0112 -0.1327 -0.1024
11894W        W28368   4.649   8.700   2.276 -0.0536  0.1714  0.2831
11895W        W28369  14.610  16.035   1.807  0.1697 -0.2420  0.1861
11896W        W28370   4.919   3.312   4.915 -0.0841  0.2158 -0.1126
11897W        W28371  12.643  13.182   4.340  0.0323 -0.0208 -0.0191
11898W        W28372  12.566  10.786  13.801  0.0606 -0.2076 -0.1348
11899W        W28373   6.740   0.664  15.169  0.1259  0.0024  0.2893
11900W        W28374  12.233  10.337   0.738 -0.1678  0.3306  0.3293
11901W        W28375  12.620  17.659   0.774 -0.3416 -0.2131  0.1034
11902W        W28376   5.234   9.245   1.150 -0.0028 -0.2684  0.2574
11903W        W28377   6.658  11.975  15.046  0.0061  0.0443 -0.1228
11904W        W28378  12.127   3.250   3.853 -0.1168 -0.2240  0.1066
11905W        W28379  10.761   7.737  14.950 -0.1512 -0.1762 -0.1904
11906W        W28380   1.807  11.972   1.494 -0.0387 -0.0358 -0.0774
11907W        W28381  13.971   8.928   0.838  0.0657  0.0957 -0.0181
11908W        W28382  13.864  13.348   1.173  0.1180 -0.1430  0.1096
11909W        W28383   4.366   3.743  11.226  0.0347 -0.0316  0.2066
11910W        W28384  15.039  12.091   0.963 -0.1075  0.1694  0.1948
11911W        W28385  16.513   6.084   3.844 -0.1021  0.3272  0.1165
11912W        W28386  14.858  13.891  13.842 -0.2899  0.1660  0.3899
11913W        W28387  10.991   6.775  14.148  0.1438  0.0439 -0.0001
11914W        W28388   2.723   3.655   5.020  0.1979  0.1121  0.2662
11915W        W28389   4.957  15.252   0.283 -0.1559  0.0599 -0.3332
11916W        W28390   4.030  13.601   4.004 -0.2366  0.0855  0.0981
11917W        W28391  10.392  18.506  14.499  0.2773 -0.1002 -0.0234
11918W        W28392   2.137  11.800  13.398  0.2382  0.0647  0.1351
11919W        W28393  13.682   4.228  12.678 -0.0345  0.0959 -0.0178
11920W        W28394   1.096   9.739  12.973 -0.0202 -0.1449  0.0964
11921W        W28395  14.004   5.977  12.486 -0.0594  0.1156 -0.0777
11922W        W28396   5.548   2.910   5.470 -0.0083 -0.0941  0.1354
11923W        W28397  11.485   7.332   2.023  0.3521 -0.0947 -0.1498
11924W        W28398  13.952   3.447  12.399 -0.0240  0.1370  0.0190
11925W        W28399   9.329  15.385   2.262  0.0558 -0.0719 -0.1411
11926W        W28400   8.308  11.169   5.481  0.1479 -0.0676 -0.0248
11927W        W28401   9.658   8.707  12.065 -0.3782 -0.2436  0.2378
11928W        W28402   5.903  14.387  12.673 -0.0440  0.1124  0.1084
11929W        W28403  10.644   8.037  14.096 -0.2845 -0.2151  0.0292
11930W        W28404   1.199   4.698  13.153  0.2599  0.2275 -0.0114
11931W        W28405   4.448  18.135  11.574 -0.0997  0.0903 -0.0015
11932W        W28406  11.266   2.309   1.593  0.4976 -0.0479  0.1799
11933W        W28407  14.375  14.343  11.366  0.1706  0.1294 -0.0615
11934W        W28408  12.226  10.911  12.920 -0.0539 -0.0382 -0.0315
11935W        W28409  11.048   9.950   2.184  0.0302  0.0759  0.2688
11936W        W28410   4.285  10.702  11.867  0.1262 -0.1128  0.3105
11937W        W28411  17.932   0.521   3.046 -0.1593 -0.0403  0.1318
11938W        W28412   1.312   3.594  12.825 -0.2922  0.6406 -0.1845
11939W        W28413   1.192  17.495  12.202 -0.0828 -0.2971  0.1612
11940W        W28414   1.179   4.783   1.876 -0.0637 -0.1426  0.2846
11941W        W28415  18.628   2.344   0.539 -0.0528 -0.3334  0.1703
11942W        W28416  16.711   2.960   1.787  0.2386  0.0892  0.0006
11943W        W28417  11.462  11.632   3.031 -0.4236  0.3684  0.4236
11944W        W28418  18.305  13.906   5.353 -0.1539  0.0623  0.1174
11945W        W28419   8.706   7.740  14.268 -0.1284 -0.0621  0.1815
11946W        W28420   9.367   5.568  14.857  0.1003 -0.0410 -0.1049
11947W        W28421  13.522   3.037   0.593  0.0159 -0.0542 -0.2126
11948W        W28422   0.650   0.932   1.697  0.0511 -0.4475 -0.0542
11949W        W28423  14.003   8.594   2.515  0.0936 -0.1639  0.0776
11950W        W28424   4.961   1.020  13.608  0.0536 -0.0816 -0.0021
11951W        W28425   8.966   0.630   3.283  0.0410  0.2193 -0.2879
11952W        W28426  12.112  16.235   1.661 -0.1125  0.1391  0.2410
11953W        W28427  15.879   7.030  13.885  0.1758 -0.4106  0.0539
11954W        W28428  15.504  12.896   3.543 -0.0437  0.2258 -0.0716
11955W        W28429   8.060   3.268  15.603  0.3453  0.0787  0.2490
11956W        W28430  14.937  12.804   2.545 -0.0911  0.2278  0.1899
11957W        W28431  15.667   2.356   3.548 -0.2035 -0.3634 -0.3160
11958W        W28432   0.731  16.730  14.626  0.1444 -0.0287 -0.1739
11959W        W28433   1.411  16.925  13.918  0.4207  0.0829  0.1209
11960W        W28434   6.758   7.361   4.417  0.1090  0.1123 -0.3090
11961W        W28435  18.533  14.180   0.525  0.0295  0.0065  0.0488
11962W        W28436   2.384   4.944   1.564  0.1209 -0.3542 -0.0907
11963W        W28437  13.442  15.211   0.956  0.1429 -0.2579 -0.1283
11964W        W28438  15.580  10.530   9.408  0.0548  0.0933 -0.0571
11965W        W28439   5.338   0.322   0.766  0.5223 -0.1167 -0.2770
11966W        W28440  10.394  16.773   2.144 -0.0984  0.0552 -0.1313
11967W        W28441   5.846   5.116   4.993 -0.3164  0.3180 -0.5295
11968W        W28442  14.153  13.020   5.151  0.0250  0.0108 -0.1237
11969W        W28443   5.636  12.250  13.472  0.1065  0.0896  0.1466
11970W        W28444   5.206   4.055   0.840 -0.0647 -0.0581 -0.0348
11971W        W28445   3.735  15.682  10.893  0.3205  0.0736  0.2403
11972W        W28446  17.522  10.655  10.856  0.1196  0.1549  0.0542
11973W        W28447  13.388  11.822  13.907  0.3296 -0.0534  0.1674
11974W        W28448  12.128  11.906   0.045  0.0646  0.2455  0.1220
11975W        W28449  13.899  15.436  13.895  0.1129 -0.1287  0.1019
11976W        W28450  11.931   0.817   3.361 -0.2574  0.2926  0.1310
11977W        W28451  16.607  13.753  10.804 -0.3117 -0.0548 -0.0921
11978W        W28452   1.929   8.025  12.894 -0.1794  0.1006  0.0770
11979W        W28453  12.981   8.614   1.198  0.3653 -0.0319  0.2523
11980W        W28454   1.679  17.702   3.213  0.0679  0.0240  0.4126
11981W        W28455  16.075  14.264  11.595 -0.0150 -0.2661 -0.0385
11982W        W28456   0.449  11.244   1.990  0.0316  0.1047 -0.0655
11983W        W28457  12.439  18.140   4.178 -0.2210  0.1928  0.1941
11984W        W28458   5.190  11.496   1.881  0.0867  0.1907  0.2041
11985W        W28459   0.901   7.240  15.062  0.2696 -0.0933  0.0037
11986W        W28460   0.536   2.283  13.458  0.1818 -0.1428  0.0403
11987W        W28461  11.612   0.981  14.269 -0.2226 -0.0023 -0.1959
11988W        W28462   3.661   0.211  15.018  0.0046  0.0186  0.2813
11989W        W28463   2.758   4.786   4.704  0.2421  0.0381 -0.1372
11990W        W28464  16.084  18.316  12.790  0.0770 -0.3138 -0.3087
11991W        W28465   4.063   3.363  10.364  0.1061  0.2560  0.0519
11992W        W28466   8.407  16.834   4.721 -0.1919 -0.0797  0.2140
11993W        W28467   1.168   3.615   2.446 -0.0285 -0.0863  0.0916
11994W        W28468   0.500   0.134   4.189  0.1921 -0.0753  0.0014
11995W        W28469   1.748  10.078   2.200  0.1990  0.1357 -0.2860
11996W        W28470   6.290  11.938  13.117  0.2523 -0.0618 -0.1305
11997W        W28471  16.654  16.724   1.957 -0.2587  0.4021 -0.0089
11998W        W28472   6.365   2.404   1.924 -0.2840  0.2935  0.2098
11999W        W28473   3.049   9.159   2.169 -0.2562 -0.0839  0.1093
12000W        W28474  18.505   9.356  11.946  0.1476  0.1081 -0.0666
12001W        W28475  12.564   4.224   3.213  0.2162  0.1282  0.0733
12002W        W28476  13.847  10.819  13.868  0.0977 -0.2587 -0.0222
12003W        W28477   7.149  10.984   6.103  0.0991 -0.1040  0.0009
12004W        W28478  16.864  11.817   0.898  0.0467 -0.3907  0.0962
12005W        W28479  15.925  14.853   4.042 -0.0316  0.3847  0.0596
12006W        W28480   0.907  16.412   2.180 -0.2607 -0.2039  0.0630
12007W        W28481   8.393   3.790  11.869  0.1171 -0.2184 -0.0779
12008W        W28482   7.801  15.732  14.862  0.1915 -0.3079  0.1194
12009W        W28483  10.971   6.095   5.343 -0.3500  0.0875 -0.0323
12010W        W28484  17.030  15.820   0.640 -0.0958 -0.0350  0.1815
12011W        W28485  18.612  13.287  14.527 -0.1089  0.1687  0.2359
12012W        W28486   5.565   0.418  14.280 -0.0043  0.3297  0.0771
12013W        W28487   2.053  11.846  13.850 -0.1510 -0.0166 -0.2454
12014W        W28488  18.153   2.545  12.726  0.2493  0.0040  0.0364
12015W        W28489   8.183  14.768   0.821 -0.2238  0.2536 -0.3553
12016W        W28490   4.286   8.120   4.168 -0.1154 -0.2089 -0.1382
12017W        W28491  16.715   3.355   0.288  0.0226  0.0465 -0.2536
12018W        W28492  14.747   1.775   3.356 -0.3534 -0.3731 -0.2102
12019W        W28493  13.026  12.442   3.556 -0.0141  0.1072 -0.1581
12020W        W28494  13.067  15.430   2.599  0.1285 -0.2776  0.1938
12021W        W28495  18.345   0.058   1.183  0.1986 -0.6042  0.0669
12022W        W28496  13.268   7.754  13.861  0.0291 -0.0075  0.1650
12023W        W28497   9.796  12.039  10.955 -0.1858 -0.2855  0.0394
12024W        W28498   5.903   2.246   2.021 -0.0470 -0.0310 -0.1210
12025W        W28499  13.693  12.868  14.064  0.1732  0.0873 -0.3298
12026W        W28500  16.503   1.870  13.594  0.0993 -0.1038  0.1192
12027W        W28501   8.652  10.637   4.517 -0.0461  0.0862  0.0741
12028W        W28502  12.507   5.686  10.940 -0.1851 -0.0621  0.1036
12029W        W28503  10.279   0.238   3.907  0.2319  0.1205  0.1556
12030W        W28504   1.437  10.144   1.440  0.1061  0.1146  0.2616
12031W        W28505  17.790   2.336  10.764  0.0862  0.0631 -0.3889
12032W        W28506   8.661  10.189  14.495 -0.1436  0.5482  0.0292
12033W        W28507  11.889  16.323  12.110  0.0326 -0.1529  0.1123
12034W        W28508   1.832   4.759   2.447 -0.3628 -0.1506 -0.0268
12035W        W28509   2.377   8.247   1.125  0.3423  0.0590  0.2179
12036W        W28510  18.294  17.693  10.734 -0.0543  0.0076  0.3840
12037W        W28511  17.356  14.269   3.523 -0.2278 -0.3682 -0.3126
12038W        W28512   0.784   9.201   1.196 -0.1029  0.3388 -0.0957
12039W        W28513   2.601   3.138  10.105  0.1283  0.0464 -0.1334
12040W        W28514   3.119  11.760  14.848  0.0381  0.1632 -0.1617
12041W        W28515  17.584  11.308  12.633  0.1530 -0.1996 -0.0445
12042W        W28516   9.955  17.837  15.688  0.1631 -0.0806 -0.5866
12043W        W28517  12.488   9.332   3.735 -0.1282 -0.1678 -0.1719
12044W        W28518  10.985   1.486   3.787  0.2635 -0.2132 -0.3607
12045W        W28519  10.090   6.907  14.587 -0.0842  0.2002  0.1059
12046W        W28520   8.516  10.139   2.138  0.2867  0.0028 -0.0563
12047W        W28521  17.289   4.484  11.499 -0.0878  0.0785  0.0157
12048W        W28522  11.280  13.238   0.249 -0.0136 -0.2672  0.2163
12049W        W28523   8.242   2.859   0.978 -0.0900 -0.1033  0.0819
12050W        W28524  12.113  14.905  13.909  0.2919 -0.0267  0.2166
12051W        W28525  10.530   0.063   0.495 -0.0203  0.0156 -0.1183
12052W        W28526  10.439   8.270   1.048 -0.0720  0.1072  0.1653
12053W        W28527  16.410   2.912   0.565 -0.0053  0.1047  0.1349
12054W        W28528   4.823  12.752  11.268 -0.0828 -0.3877  0.1949
12055W        W28529   3.039  14.857  14.801 -0.1909 -0.1345 -0.0456
12056W        W28530  10.307  10.778   3.760 -0.1372  0.0527 -0.0821
12057W        W28531  12.564  11.334  14.938  0.2161 -0.1326  0.2639
12058W        W28532   4.053  11.047   1.052  0.0742 -0.2334  0.3675
12059W        W28533   3.245  11.801   2.424 -0.0582 -0.0112 -0.0880
12060W        W28534   3.326   1.252  13.639 -0.1486 -0.0206  0.3054
12061W        W28535  10.243  12.719   2.759 -0.0307  0.0951  0.0825
12062W        W28536  14.679   2.701   1.349 -0.0853 -0.0010 -0.2908
12063W        W28537   3.268  16.897  10.634 -0.0566  0.1025 -0.1650
12064W        W28538  12.818   2.862   4.642  0.0451 -0.1128 -0.0660
12065W        W28539  12.712   4.663   1.315  0.2185  0.0770  0.0995
12066W        W28540  11.368  16.925   2.933  0.1327 -0.0624  0.0834
12067W        W28541   3.404   4.579   3.289  0.1510 -0.3467 -0.0937
12068W        W28542   6.415  14.301   3.653  0.3162  0.1450 -0.3277
12069W        W28543  12.293   6.416  13.509  0.2018 -0.0742  0.0089
12070W        W28544   7.670  14.795   2.788 -0.1043  0.3568 -0.2879
12071W        W28545   4.198   2.558  13.837  0.2294  0.1647 -0.2629
12072W        W28546  15.608  14.905   1.453 -0.0110 -0.0934  0.1447
12073W        W28547   0.105   0.461  11.113 -0.1073  0.0761  0.2762
12074W        W28548   6.298  12.935  11.081 -0.0342 -0.2423 -0.0822
12075W        W28549   2.072  14.407   4.291 -0.1862 -0.0694  0.3584
12076W        W28550   5.219  13.767  13.947 -0.2076  0.2824 -0.1380
12077W        W28551  11.486   7.033  12.269  0.1579  0.3447 -0.0703
12078W        W28552   1.520   2.643   3.362  0.0675 -0.1289  0.0357
12079W        W28553  12.064  14.983  11.706 -0.0558  0.2775  0.0181
12080W        W28554   1.477  10.555   3.211  0.2601 -0.3305 -0.2083
12081W        W28555   4.579   1.131   2.959 -0.1753 -0.0513  0.0727
12082W        W28556  11.632   2.405   0.019 -0.2508  0.1571 -0.0053
12083W        W28557   0.585  17.535  14.923  0.2541 -0.0168  0.1938
12084W        W28558  10.095   9.362   3.193 -0.3053 -0.1932  0.3068
12085W        W28559  10.174  18.290   0.982  0.3572  0.5282 -0.0643
12086W        W28560   4.840  10.927  13.262  0.1179 -0.1205  0.0871
12087W        W28561  13.254   8.432  15.061 -0.1529  0.4022  0.0198
12088W        W28562  14.662  10.532   0.497 -0.1243  0.0007  0.3725
12089W        W28563  14.335   6.036   2.139  0.0963  0.0882 -0.0688
12090W        W28564  18.762  12.088   0.841 -0.0100 -0.1839 -0.1101
12091W        W28565   8.063  16.247   3.861 -0.1990  0.1164  0.3697
12092W        W28566   3.779  18.084  13.055  0.0851 -0.0011  0.0131
12093W        W28567  16.258   7.799   4.733 -0.1064  0.2003  0.0887
12094W        W28568  18.494  10.378  14.835  0.1917  0.2489 -0.2299
12095W        W28569   2.298   0.196   4.377 -0.0414  0.0027  0.0368
12096W        W28570  10.890   4.505   0.277 -0.1803 -0.0868 -0.1768
12097W        W28571  17.039  17.550  14.999 -0.0595  0.0908 -0.1566
12098W        W28572  18.064   2.973   2.519 -0.1672  0.2471 -0.0745
12099W        W28573  17.257   7.580   4.395  0.0696  0.1796  0.2745
12100W        W28574   4.808   5.804   2.915  0.4042  0.1198 -0.2202
12101W        W28575   3.236   7.687   4.851 -0.1368 -0.0726 -0.1439
12102W        W28576   6.366   5.769   4.501  0.2771  0.1476 -0.1634
12103W        W28577  11.703   5.035   4.422  0.1288 -0.2171  0.0859
12104W        W28578   3.606   0.737   2.294  0.0285 -0.3041 -0.2270
12105W        W28579  15.578   3.503   4.455 -0.2583  0.0835 -0.0058
12106W        W28580   9.540   1.974  14.847  0.3274  0.0374  0.3924
12107W        W28581   8.550   1.476  11.876  0.0572 -0.2360 -0.2267
12108W        W28582  15.778  16.436   5.060 -0.0769  0.2595 -0.1257
12109W        W28583   8.795  14.178   3.562 -0.0941 -0.2046 -0.1732
12110W        W28584  11.741  14.275   4.089 -0.2138 -0.2895  0.1035
12111W        W28585  13.136  14.628   1.543  0.0533 -0.3919  0.1965
12112W        W28586  18.361   4.613  10.539 -0.1498 -0.1398  0.3460
12113W        W28587  16.532   4.217   1.159  0.2925 -0.0090  0.1162
12114W        W28588  17.596   7.452   4.038 -0.3813 -0.1156 -0.3350
12115W        W28589  14.009  15.646  12.932  0.1346 -0.5520  0.3139
12116W        W28590  10.711  15.889   0.019 -0.2565 -0.0010  0.0984
12117W        W28591   7.821   7.322  13.023 -0.0642 -0.2367  0.0039
12118W        W28592   6.537  12.154  14.595 -0.4213  0.1364 -0.0551
12119W        W28593   5.979  12.234  11.765  0.0157  0.2863 -0.0181
12120W        W28594  13.103   2.149  13.938 -0.0452  0.0020 -0.0979
12121W        W28595  13.600  17.879  13.184 -0.0294  0.2369  0.0239
12122W        W28596  13.443  17.458  11.157  0.1141  0.0755 -0.1622
12123W        W28597  18.025   2.513   3.613 -0.0286  0.3098 -0.1783
12124W        W28598   6.978   9.352   0.375  0.0026  0.1392 -0.0335
12125W        W28599   5.429  13.620   0.446  0.3068 -0.1726 -0.1032
12126W        W28600   5.892  18.811  15.522  0.3580 -0.0771  0.1657
12127W        W28601  10.767  12.241   1.592 -0.0953  0.1074  0.2646
12128W        W28602  10.209  18.426   2.082  0.1106 -0.0356  0.0145
12129W        W28603  16.729  16.668   4.960  0.0782 -0.1903 -0.1627
12130W        W28604   6.087   3.986  15.445  0.1782 -0.1316  0.1868
12131W        W28605   1.680  11.518   2.280  0.0682 -0.2594  0.0870
12132W        W28606  15.606  17.306   3.294 -0.1616  0.0159 -0.2249
12133W        W28607   6.017   3.219  14.947  0.2604 -0.0637  0.1235
12134W        W28608   1.890   6.988  13.699 -0.0507 -0.1669 -0.1295
12135W        W28609  14.910  16.851   5.380  0.2216  0.0241  0.2583
12136W        W28610  16.404  18.612   3.455  0.1204  0.3836  0.0337
12137W        W28611   7.551   9.867  11.843  0.2672 -0.1400 -0.0099
12138W        W28612  18.843  18.505  14.599 -0.0751  0.0312 -0.3101
12139W        W28613   8.836   0.778   2.529 -0.0354 -0.1486 -0.1213
12140W        W28614  17.426  14.081  10.188 -0.0384 -0.1378  0.0280
12141W        W28615  17.895  17.518   1.053  0.3927  0.0415  0.2385
12142W        W28616  14.390   5.254   2.439 -0.0619  0.2169 -0.0601
12143W        W28617   2.556  13.125   4.756  0.5567  0.1401  0.0994
12144W        W28618   3.765   1.311   3.403  0.0537  0.0494 -0.0299
12145W        W28619   0.113   1.523   2.868  0.1351  0.2740  0.2406
12146W        W28620   7.974  13.716   3.007  0.1101  0.0193  0.0885
12147W        W28621   5.516   7.064  15.238  0.1862  0.0862  0.0885
12148W        W28622  17.534  10.512   0.551 -0.0632  0.3485 -0.0299
12149W        W28623  12.097  18.840   1.005 -0.3216 -0.1627 -0.1209
12150W        W28624  16.230  10.113  11.176  0.1603  0.0234 -0.1148
12151W        W28625  13.507   9.648   1.126 -0.1172 -0.3091 -0.2713
12152W        W28626  12.085  15.467   1.186  0.0760  0.0525 -0.2707
12153W        W28627   3.080  14.622   1.381  0.1687  0.0661 -0.1980
12154W        W28628   6.170   7.493  11.536 -0.0906  0.1012  0.0445
12155W        W28629   2.308   7.729  15.590  0.0154  0.1075 -0.0399
12156W        W28630   5.851  18.252   3.806  0.4436 -0.0459 -0.0597
12157W        W28631  18.270   9.889  14.854  0.0651 -0.1160  0.0344
12158W        W28632  17.640   4.512   1.940  0.2652  0.3656  0.1231
12159W        W28633  12.625   1.285   1.994 -0.0696  0.0274  0.2219
12160W        W28634   4.005   2.560   2.523  0.0881  0.0196  0.2582
12161W        W28635  17.194  13.563   4.076 -0.0482 -0.0584  0.1159
12162W        W28636   6.434  15.822   0.673 -0.0798 -0.2448  0.2971
12163W        W28637   3.714   3.703  10.050  0.0658  0.0965  0.2223
12164W        W28638   8.751   6.562  12.808 -0.0066  0.0056 -0.1642
12165W        W28639  18.445   7.951  10.217 -0.3804 -0.1825 -0.3014
12166W        W28640   7.755   4.122   0.780  0.1101  0.2292  0.1866
12167W        W28641  15.280  15.226  11.209  0.0627  0.1941  0.1040
12168W        W28642  10.350  14.079   0.707 -0.3185 -0.1378 -0.0113
12169W        W28643  10.471   4.757  10.466 -0.1951  0.3594  0.2248
12170W        W28644  14.232  11.085  13.081 -0.2198 -0.0924  0.1128
12171W        W28645  18.329  12.034  11.335  0.0463  0.0026  0.1327
12172W        W28646   1.288   1.944  10.995 -0.2280  0.0667  0.2374
12173W        W28647  10.060  15.931   1.842 -0.0888 -0.0207  0.2970
12174W        W28648   4.232  11.986   1.808 -0.0284  0.2169 -0.0469
12175W        W28649   2.074  14.375   0.044 -0.1415  0.0891 -0.0384
12176W        W28650   5.086   5.378   3.395 -0.0738 -0.1371 -0.0577
12177W        W28651  18.613   9.453  12.408  0.0973 -0.0485 -0.2358
12178W        W28652  16.324   1.489   4.823  0.2023 -0.0353 -0.2207
12179W        W28653   7.392   9.646   5.207 -0.2285  0.2193  0.0368
12180W        W28654   8.830   8.596   5.069 -0.1148 -0.1946 -0.1159
12181W        W28655   5.277   2.991  11.328 -0.1342  0.0502 -0.1022
12182W        W28656   9.183  13.045  13.012  0.1169  0.0735 -0.3509
12183W        W28657   5.314  15.408  15.686  0.2601 -0.0559  0.0890
12184W        W28658   0.785  16.240   4.221 -0.0766 -0.0504  0.4076
12185W        W28659   5.374   5.749  13.431 -0.0808 -0.2520  0.1391
12186W        W28660  17.875  13.629  12.424 -0.0741  0.2175 -0.1534
12187W        W28661  11.781   8.246  13.013 -0.3674 -0.2226  0.0159
12188W        W28662  11.484   4.700  13.459 -0.4106 -0.0377  0.2927
12189W        W28663  16.143  18.486  10.701 -0.0559  0.1627 -0.1100
12190W        W28664  15.682   5.168  13.189 -0.1884 -0.1475  0.2390
12191W        W28665   6.164  15.759  12.531 -0.1856 -0.0773 -0.1607
12192W        W28666  16.424   8.188  14.855  0.2014  0.2410  0.2994
12193W        W28667  16.253   2.279  12.595 -0.0514 -0.1565  0.2696
12194W        W28668  17.274   7.819   3.127  0.1311  0.1125  0.0093
12195W        W28669   3.064  16.670  13.342  0.1507 -0.0404  0.2939
12196W        W28670   7.213  15.337  14.194  0.1164 -0.1636 -0.3960
12197W        W28671  12.676  10.413   2.752  0.0621  0.0083 -0.0622
12198W        W28672   0.581  15.996   1.307  0.1893  0.0415  0.0428
12199W        W28673   2.359   4.406  14.490 -0.0696 -0.2665 -0.0908
12200W        W28674   2.971  14.927   3.473 -0.2195  0.1736  0.0010
12201W        W28675   8.390  17.857  12.302  0.2330 -0.0920 -0.0487
12202W        W28676  12.244  15.546  13.432 -0.4191  0.0130  0.0660
12203W        W28677  17.012  17.629   0.649 -0.1404 -0.0848  0.1350
12204W        W28678  15.497   2.205  11.961 -0.0027 -0.1274  0.3586
12205W        W28679   8.879  14.037   4.419 -0.1771 -0.0930 -0.1792
12206W        W28680  16.611   2.048   4.673 -0.2370 -0.0665 -0.0604
12207W        W28681   1.655  16.021  10.826 -0.0461 -0.1885 -0.0928
12208W        W28682  17.468  18.797  13.968 -0.0402  0.2649  0.0654
12209W        W28683  13.978   1.372   3.371  0.0184 -0.0834 -0.1585
12210W        W28684   6.363   9.018   3.963  0.0721 -0.2163  0.1124
12211W        W28685  14.268  13.813   1.284 -0.2641 -0.1379  0.2237
12212W        W28686   7.862   0.936  14.661  0.1025  0.2339 -0.0837
12213W        W28687   2.950   1.284   4.492 -0.0215  0.1454  0.1133
12214W        W28688   8.206   0.470   3.252  0.2458 -0.2570 -0.1610
12215W        W28689   4.426   3.083   3.570  0.3162 -0.0880  0.1664
12216W        W28690   7.021  12.740   0.441 -0.1046 -0.2141 -0.0912
12217W        W28691   9.856   4.785  10.439  0.0971  0.4163 -0.4275
12218W        W28692   3.965   0.327   3.009 -0.2930 -0.0923 -0.1127
12219W        W28693  14.643   9.240   4.161 -0.2001 -0.3080 -0.1055
12220W        W28694  16.581  15.341   1.298 -0.1812  0.3933 -0.1667
12221W        W28695  15.634   3.608   3.610 -0.0314 -0.0503 -0.0324
12222W        W28696   3.629   0.175   0.253  0.0060 -0.2199 -0.0836
12223W        W28697   4.636   9.802   1.807 -0.2371 -0.0514  0.0795
12224W        W28698   9.497  13.014   0.337  0.0532 -0.0850 -0.1748
12225W        W28699   3.074   8.146   3.908 -0.2709 -0.1330 -0.0538
12226W        W28700  18.277   8.409  12.034 -0.2025 -0.0303  0.1116
12227W        W28701   0.985  11.887  14.234  0.3179  0.0163 -0.2832
12228W        W28702  15.678   8.557  10.781 -0.3882 -0.1723 -0.0006
12229W        W28703   3.328  12.937   3.559  0.2839 -0.0932  0.2242
12230W        W28704   0.801  15.653  12.967  0.1365 -0.0506  0.1565
12231W        W28705   9.915  15.958   4.305 -0.1792 -0.3314 -0.2080
12232W        W28706  17.073  12.870   9.401  0.2049  0.2719 -0.1468
12233W        W28707  11.090  16.831  12.291 -0.3835  0.1660  0.2062
12234W        W28708  18.217   6.039  13.440 -0.0827  0.0713 -0.0053
12235W        W28709   6.031  12.639  12.010 -0.0612 -0.2017  0.3264
12236W        W28710   3.118   4.057  15.426 -0.0628  0.0670  0.0757
12237W        W28711   7.898  16.089  11.964 -0.2385 -0.0993 -0.1102
12238W        W28712  12.848   1.292  13.736  0.0034 -0.2496  0.1966
12239W        W28713  10.981   8.720   2.757  0.2303 -0.3985  0.1014
12240W        W28714  16.394  11.984  13.044  0.0104 -0.0399  0.0550
12241W        W28715   1.521  11.334  12.028  0.1824 -0.1124  0.3416
12242W        W28716  10.660   6.404   5.560  0.0606 -0.0419 -0.2294
12243W        W28717  12.964   9.308  11.837 -0.0896 -0.0667 -0.1034
12244W        W28718  15.604   2.118   2.996 -0.0772 -0.3262 -0.0603
12245W        W28719  16.683  10.459   3.659  0.0528  0.2507 -0.1437
12246W        W28720  16.004   8.133   2.057  0.1327  0.0109  0.0697
12247W        W28721  15.260   9.811  11.115  0.0156  0.0130 -0.1086
12248W        W28722  15.023   6.547  14.570 -0.0542  0.0391  0.2805
12249W        W28723  16.731   6.762  15.557 -0.2709  0.0680 -0.2067
12250W        W28724   1.038   7.339   2.938  0.1749 -0.2042 -0.1536
12251W        W28725   9.490   9.367  14.892 -0.1672  0.2372  0.0277
12252W        W28726   8.508  17.673  13.986  0.0577  0.2900 -0.2289
12253W        W28727   0.599  13.727  14.109 -0.3408  0.4465 -0.1755
12254W        W28728   6.365   9.242  14.577 -0.4067 -0.1029 -0.1567
12255W        W28729  12.366  12.730  11.259  0.2375  0.0723  0.1646
12256W        W28730  11.043   0.739   3.309  0.0959 -0.1455  0.2487
12257W        W28731   4.215   4.095   4.659  0.3680  0.0669  0.1335
12258W        W28732   7.237  15.583   1.756 -0.1546 -0.1252  0.1715
12259W        W28733  17.939  11.519   4.372  0.1782 -0.1767  0.0411
12260W        W28734  16.949   4.205  15.203 -0.4865 -0.3343 -0.0936
12261W        W28735  12.177   9.781   3.610  0.1565 -0.0916 -0.2266
12262W        W28736  15.438  12.354  15.215  0.3635  0.0789  0.1856
12263W        W28737  13.195   0.465  13.723  0.2274  0.0839  0.2828
12264W        W28738  14.737   0.773  11.458  0.0410 -0.1453  0.0747
12265W        W28739   4.901  13.063  12.267  0.1938  0.2165 -0.1447
12266W        W28740   2.621  18.614   1.381 -0.4441 -0.0616 -0.0455
12267W        W28741   6.060   1.389   3.007  0.1761  0.0152  0.3778
12268W        W28742   6.049   0.146  14.328 -0.2628 -0.1982 -0.3498
12269W        W28743   1.280  16.453   2.546 -0.0162 -0.4820 -0.0043
12270W        W28744   6.278   8.801   2.513  0.4175 -0.2780  0.1079
12271W        W28745   7.663   5.623   5.362  0.2864 -0.0998  0.0172
12272W        W28746  18.357  11.593   4.832  0.2025  0.0289 -0.1706
12273W        W28747   0.091   8.140  13.363 -0.0781 -0.3141 -0.1730
12274W        W28748   0.993  17.353  10.733  0.0354 -0.1322 -0.1961
12275W        W28749   6.667  12.243  12.340  0.0431 -0.0238  0.1055
12276W        W28750  15.943   9.949   3.595 -0.1676  0.1675 -0.0797
12277W        W28751   3.670   4.444  12.337  0.1852  0.0348  0.0588
12278W        W28752   4.044  13.237   0.433  0.0930 -0.2059 -0.2230
12279W        W28753  12.955   5.599   2.183 -0.2386 -0.0083 -0.1295
12280W        W28754   3.182  14.766   0.316  0.1133 -0.0985  0.1214
12281W        W28755  10.621  13.351   0.996  0.1184 -0.2567 -0.0504
12282W        W28756   9.864  10.013   5.323  0.0064  0.0920  0.2071
12283W        W28757  15.337  13.288  12.240  0.2779 -0.1108 -0.1720
12284W        W28758   3.685   7.757  15.486 -0.1794 -0.1021 -0.2530
12285W        W28759   7.579  14.934  15.401  0.0682 -0.0405 -0.0687
12286W        W28760  17.854  12.823   1.739 -0.0465  0.1425  0.0243
12287W        W28761  14.584  18.497   1.523 -0.2358 -0.0395 -0.2218
12288W        W28762  13.259  16.061   2.457  0.3211 -0.1113 -0.1447
12289W        W28763   6.261   2.497  11.714 -0.3240 -0.1465 -0.0612
12290W        W28764   5.005   6.405  12.577 -0.0331 -0.0647  0.4348
12291W        W28765   2.206   6.040  11.306  0.2464 -0.1436  0.0178
12292W        W28766   1.088   2.691  10.488 -0.0590  0.0801 -0.0581
12293W        W28767   0.786   8.076   4.666  0.0715  0.0581 -0.0219
12294W        W28768  16.235  13.000  12.358 -0.0723  0.2483  0.0300
12295W        W28769   8.786  16.556   2.690 -0.3186  0.0517 -0.3534
12296W        W28770  16.162   2.838   3.990 -0.1589 -0.2993  0.1658
12297W        W28771   8.714   4.327   4.811 -0.2151  0.0092 -0.1324
12298W        W28772   5.186   1.520   0.037 -0.3800 -0.4920  0.0883
12299W        W28773   6.169  14.825   3.648  0.1501  0.1937  0.2016
12300W        W28774  13.591   1.929  13.168 -0.0075  0.1092 -0.0035
12301W        W28775  18.394  10.902   4.637  0.3386  0.2154 -0.0646
12302W        W28776   0.832  14.514  14.834  0.2018 -0.0912 -0.1677
12303W        W28777   0.157   5.012  11.749  0.2592 -0.0950 -0.1571
12304W        W28778   1.844   5.126   0.602 -0.1129 -0.0345 -0.1435
12305W        W28779  16.720   7.088  14.455 -0.1092 -0.1018 -0.1276
12306W        W28780  16.207   6.212  11.710 -0.3175 -0.0918  0.3606
12307W        W28781   3.408   5.918  11.415  0.1111 -0.2582  0.2007
12308W        W28782  18.062  10.768   2.357 -0.2097  0.0595 -0.2501
12309W        W28783  12.888   1.731  14.010 -0.2755  0.0009  0.0963
12310W        W28784   4.441   7.486  14.080 -0.2799 -0.1388 -0.1020
12311W        W28785   3.098   3.565  13.957  0.2243  0.1481  0.0228
12312W        W28786  12.763  11.238  12.028  0.0469 -0.2212  0.0961
12313W        W28787   2.359   8.453  11.228 -0.0629  0.2231 -0.3336
12314W        W28788  15.182   8.676   0.501  0.0116 -0.2058  0.1866
12315W        W28789   3.888  11.789  15.349 -0.0815 -0.2075 -0.0372
12316W        W28790   2.525  12.096   5.054  0.0285  0.0041 -0.3503
12317W        W28791  14.558  16.463   4.219  0.1459  0.1556  0.0025
12318W        W28792  14.431  14.211   3.358  0.0607 -0.2862  0.2863
12319W        W28793   4.444   4.973   1.810 -0.1798 -0.2264  0.0698
12320W        W28794  14.373  16.148   1.414  0.0046  0.0735 -0.0455
12321W        W28795  11.384  18.493   0.807  0.0505 -0.1457 -0.1401
12322W        W28796  13.205  11.708  11.651  0.4231 -0.2689 -0.2973
12323W        W28797   3.018  15.104   1.676  0.0036  0.0672 -0.0094
12324W        W28798   1.148   0.791   2.410 -0.0615 -0.0683 -0.1895
12325W        W28799   4.014  11.612  14.725 -0.2819  0.1490 -0.0193
12326W        W28800   1.385  18.120   4.151 -0.2120  0.1829 -0.2747
12327W        W28801  13.334  10.963   0.463  0.1234 -0.1974  0.0503
12328W        W28802   7.594   1.370  14.284 -0.1416 -0.3216  0.0893
12329W        W28803  12.514  14.340   1.056  0.1302 -0.2922 -0.2347
12330W        W28804  17.653  14.776  10.865 -0.0593  0.1287  0.0983
12331W        W28805  16.211  11.187   3.595 -0.1947 -0.3282 -0.2433
12332W        W28806  10.493   1.694   5.771 -0.2646 -0.1079 -0.1013
12333W        W28807  18.314  17.834  10.176 -0.0014  0.0688  0.2127
12334W        W28808   1.244   9.062   1.445  0.1824 -0.0762  0.3622
12335W        W28809   3.276   3.397  11.480  0.0031 -0.2216 -0.0494
12336W        W28810  17.168  13.862   2.052  0.2583 -0.1160 -0.0487
12337W        W28811   9.334   6.084  15.621  0.2092  0.2036  0.0248
12338W        W28812  17.862   7.033   1.525  0.3825  0.1241  0.2356
12339W        W28813  10.081  10.356  14.393  0.3180  0.0246  0.0496
12340W        W28814   8.871   5.326   0.099 -0.0453  0.0336 -0.1159
12341W        W28815  10.358  11.779  13.306  0.2663  0.0488 -0.2446
12342W        W28816  14.926   5.911  12.506  0.0118  0.0937 -0.1585
12343W        W28817  12.649  13.728   1.522  0.0141  0.1232 -0.4716
12344W        W28818  14.444   2.230   2.939 -0.2881  0.1385 -0.0939
12345W        W28819   8.348  11.811  10.966  0.0183  0.0021  0.2210
12346W        W28820   0.668   5.121   4.043  0.0609 -0.0347 -0.2860
12347W        W28821  17.020   4.630  11.861  0.1153 -0.0984  0.0941
12348W        W28822   1.477  16.541  10.631  0.0580  0.0387  0.0697
12349W        W28823   3.553  14.644   2.795  0.1263 -0.0853  0.2529
12350W        W28824  16.023   1.873  12.872  0.2504  0.0350 -0.2227
12351W        W28825  15.902  10.895  14.539  0.0831 -0.0879 -0.1405
12352W        W28826   3.808   8.285  13.946 -0.2215  0.3533 -0.0233
12353W        W28827   5.839   6.555  11.677  0.0692  0.0497  0.1389
12354W        W28828   7.998  15.251   3.538  0.0055  0.0082 -0.2592
12355W        W28829   1.063  10.981   1.298  0.0290 -0.0998  0.3177
12356W        W28830   6.732   8.539  13.773 -0.2553 -0.2195 -0.0201
12357W        W28831  16.081  18.618   4.920  0.5159 -0.0069  0.2150
12358W        W28832   5.682  16.846  13.466 -0.0738 -0.2086 -0.2062
12359W        W28833  13.423   9.897  12.116  0.0823  0.2099  0.1235
12360W        W28834   8.916  18.617  12.971 -0.0426  0.0241  0.3582
12361W        W28835   2.882  16.396   5.153  0.0054  0.2147  0.0654
12362W        W28836  12.691  10.191  12.726 -0.1643  0.0078  0.1471
12363W        W28837  10.008   6.795  14.003 -0.0061 -0.1256 -0.1889
12364W        W28838  15.188   0.753   1.073 -0.1126 -0.2122 -0.2083
12365W        W28839   3.310   9.286  11.503 -0.2269  0.0528 -0.0612
12366W        W28840   0.833   3.776  11.913 -0.1173 -0.1770  0.2919
12367W        W28841   0.890   6.734  12.816  0.0089 -0.1048 -0.1044
12368W        W28842   9.391   9.044   0.585 -0.0250  0.1936 -0.0573
12369W        W28843  11.050   2.489  13.193  0.0652 -0.2136 -0.0274
12370W        W28844   5.118   8.057   4.601 -0.2144 -0.0669 -0.0689
12371W        W28845   2.131   5.919  15.171  0.1046  0.2621 -0.5121
12372W        W28846  12.179  13.237  12.507 -0.0589 -0.2315 -0.2952
12373W        W28847  10.750   3.207  12.472  0.2464 -0.0596 -0.1012
12374W        W28848   8.155   6.639   2.403 -0.4478 -0.3024  0.1391
12375W        W28849   7.856  18.432  12.011  0.0570 -0.1011 -0.0868
12376W        W28850   5.645   5.418  12.253 -0.3581 -0.4361  0.1007
12377W        W28851  11.481  17.521   4.418  0.0691  0.2300  0.1783
12378W        W28852   3.910  13.119   0.939  0.0028  0.0793  0.1406
12379W        W28853   1.984  16.066  11.378  0.0831  0.0744 -0.2702
12380W        W28854  17.869  11.037  10.765 -0.0169  0.1548 -0.2222
12381W        W28855  10.278  14.010   4.054  0.2104 -0.4857 -0.0288
12382W        W28856   8.854   6.181   3.101  0.2280  0.1648  0.1250
12383W        W28857   2.858   3.340   1.026  0.1331  0.3108 -0.0327
12384W        W28858   8.529  10.834  12.153 -0.3906  0.0304  0.1396
12385W        W28859   3.508   7.280  12.363 -0.1451  0.1037 -0.1418
12386W        W28860   8.021  12.741   0.101 -0.1903  0.1047 -0.2532
12387W        W28861  17.235  16.513  12.168  0.1763  0.1594 -0.1986
12388W        W28862   6.731  13.749   2.376 -0.1006 -0.2192 -0.3764
12389W        W28863   3.034   0.397   2.930  0.0291 -0.3974  0.1253
12390W        W28864  13.892   8.172   9.790 -0.0895  0.1902  0.3353
12391W        W28865  11.004   1.781   5.690  0.0358 -0.2367 -0.0464
12392W        W28866  16.982   0.927   1.534  0.2218  0.0414  0.0073
12393W        W28867   1.288   1.944  13.719  0.1153  0.1345 -0.0429
12394W        W28868  11.115   5.449   5.525  0.1688  0.1241  0.0574
12395W        W28869  17.357   1.318   4.064  0.2436 -0.1345 -0.2280
12396W        W28870  13.034   7.285  13.543 -0.2301  0.0295  0.0519
12397W        W28871  11.647   9.767   4.510 -0.2314  0.1744 -0.5202
12398W        W28872   9.127   8.416   4.181 -0.0523  0.0157 -0.0854
12399W        W28873  12.265   1.697   5.575 -0.0282 -0.0717  0.2491
12400W        W28874   9.083   4.316   1.004 -0.1593 -0.0009 -0.0173
12401W        W28875   9.611  16.066  14.953 -0.2656  0.3507 -0.1325
12402W        W28876   1.475  12.434   4.434  0.0329  0.0426 -0.2105
12403W        W28877  13.583   0.082  15.603 -0.0720  0.1391 -0.0476
12404W        W28878   6.515  18.015   2.276 -0.2866 -0.1382 -0.1715
12405W        W28879  17.937  16.929   2.179  0.1678 -0.0373  0.4188
12406W        W28880  13.649   6.831  12.324  0.0654 -0.2826 -0.1334
12407W        W28881  10.111  17.023  12.765  0.1841  0.1392 -0.0197
12408W        W28882   1.588   0.222   0.309  0.0901  0.3129  0.0564
12409W        W28883   9.006  17.211   1.872 -0.0274 -0.2519 -0.3178
12410W        W28884   9.157  17.503   2.270 -0.2754  0.0153  0.1356
12411W        W28885   3.467  16.450   4.922  0.2037 -0.3425 -0.1035
12412W        W28886   6.411  10.956  14.235  0.1417 -0.2069  0.0512
12413W        W28887  12.638   8.721   0.768  0.0585 -0.1924 -0.2216
12414W        W28888  15.176   8.304  10.704  0.1228 -0.0548 -0.0585
12415W        W28889   7.292  14.866  14.945 -0.1229 -0.0707  0.2202
12416W        W28890   0.939  11.503  12.536  0.0409 -0.1676  0.2416
12417W        W28891   1.942   1.341   3.488 -0.1448  0.2775 -0.0213
12418W        W28892  15.066  11.399   4.319  0.4320 -0.1449 -0.2792
12419W        W28893  18.021  13.895  14.449 -0.0748 -0.3879  0.2990
12420W        W28894   5.438  14.054  12.584  0.2723 -0.0653 -0.1121
12421W        W28895   7.102   4.573   0.890  0.0715 -0.2285  0.1550
12422W        W28896  13.565  16.185  14.748  0.3488  0.1185 -0.5515
12423W        W28897  17.246   6.722  15.400 -0.0702  0.0814  0.0369
12424W        W28898  11.062   1.787   0.141 -0.0307 -0.3827  0.1996
12425W        W28899   6.295   8.890   0.877  0.2025  0.1259 -0.0805
12426W        W28900  10.974  15.975  12.117  0.0759 -0.0188 -0.0379
12427W        W28901  12.175  10.176  10.181 -0.0498 -0.0979  0.2302
12428W        W28902   6.089   1.343   2.442  0.4651  0.0426 -0.0479
12429W        W28903   9.801   1.358  15.360  0.4587  0.3047 -0.1046
12430W        W28904   9.826   3.472  11.600 -0.2857  0.0412 -0.0456
12431W        W28905   4.962   8.461  15.167  0.2323 -0.1553  0.2485
12432W        W28906   0.210   0.127  14.268 -0.0596  0.6378  0.2266
12433W        W28907  12.549   0.993   5.087  0.0578 -0.1409 -0.0400
12434W        W28908   1.197  11.280  14.262  0.1648  0.1098  0.1740
12435W        W28909  15.686  14.302   2.288  0.3644  0.0645 -0.1594
12436W        W28910  10.899  17.459  12.036 -0.2591 -0.0556 -0.0896
12437W        W28911  14.736   0.930  14.913 -0.2162 -0.1956  0.0475
12438W        W28912   6.925   7.205  15.408 -0.0462 -0.1103 -0.1209
12439W        W28913   4.358  14.969   2.743  0.0106  0.0616 -0.1545
12440W        W28914   4.909   4.408  12.580 -0.1801 -0.2932  0.1372
12441W        W28915   0.241  17.747  11.402 -0.0845  0.3775 -0.0021
12442W        W28916   1.292  16.477  13.521  0.0363  0.1031  0.3015
12443W        W28917   4.637   2.489   0.088 -0.0494  0.0174  0.0452
12444W        W28918   0.829   2.061  13.921 -0.2443 -0.1700  0.0953
12445W        W28919  17.064   7.606  11.787  0.0950  0.0548  0.3941
12446W        W28920   1.853  13.024  13.287 -0.2490  0.1465 -0.2504
12447W        W28921   8.819  14.345   2.081 -0.0490  0.0549  0.1528
12448W        W28922   4.753   6.296   4.943  0.1158 -0.0611 -0.0327
12449W        W28923   5.307  16.000   5.876 -0.4277  0.1225 -0.3231
12450W        W28924   6.345  18.716   3.110 -0.5900 -0.0484 -0.3405
12451W        W28925  12.757   6.948  11.854 -0.0839 -0.1736 -0.1538
12452W        W28926  15.824   0.476   3.825  0.4024  0.1505 -0.2176
12453W        W28927   9.426   1.030   3.344 -0.1694  0.1671  0.4085
12454W        W28928   2.853   1.213   2.561  0.0379 -0.2147 -0.0187
12455W        W28929  15.365  12.212   5.537 -0.0040 -0.0452  0.0072
12456W        W28930   8.851  10.068   3.439 -0.0881 -0.2182 -0.0940
12457W        W28931   8.737  18.385   3.278 -0.3092  0.1132  0.1584
12458W        W28932   1.478   5.177   2.569  0.2535  0.0371 -0.1298
12459W        W28933   2.280   3.420   4.933 -0.3346 -0.1762  0.2227
12460W        W28934  17.931  13.343  15.086  0.0980  0.3140  0.2555
12461W        W28935  13.712  14.814  14.531  0.0445 -0.0346  0.2154
12462W        W28936  16.819   5.139   0.545  0.2697  0.1288  0.0283
12463W        W28937   1.699   6.480  11.241 -0.0433  0.2370 -0.0096
12464W        W28938   6.760  11.668   5.323  0.0320  0.0341 -0.2942
12465W        W28939   8.717   2.129   1.622  0.4527 -0.1615  0.1002
12466W        W28940  16.766   3.624  14.622  0.0132 -0.1122 -0.1736
12467W        W28941   1.480  18.036   0.496  0.3914  0.0799 -0.1307
12468W        W28942   8.164   7.025   1.318  0.0842  0.2089 -0.0380
12469W        W28943  13.665  17.513  12.764  0.2155  0.0886  0.1984
12470W        W28944  17.833  17.700  10.309  0.1717 -0.1896 -0.0557
12471W        W28945  15.419  14.908   4.105 -0.4769  0.0664  0.0095
12472W        W28946   7.195  13.216   1.255  0.1226  0.2812 -0.3173
12473W        W28947  13.671   8.332  15.367  0.1916  0.1124 -0.1089
12474W        W28948  12.955   9.714  11.214 -0.1449 -0.0808  0.1014
12475W        W28949   1.863   1.530   4.908 -0.1939  0.0772 -0.0438
12476W        W28950   3.122  12.257  14.672 -0.0255 -0.2705  0.0364
12477W        W28951  16.390  12.789   4.928  0.1018  0.0079 -0.1920
12478W        W28952  12.103   9.608  13.443  0.1514 -0.5097  0.2751
12479W        W28953  14.136   6.493  10.116 -0.0486  0.0382 -0.1124
12480W        W28954   2.431  10.396   0.951 -0.0056  0.0319  0.0656
12481W        W28955  13.499  10.047  13.832  0.0548  0.2986  0.0464
12482W        W28956   3.301  14.438  15.055 -0.2039  0.1247  0.2523
12483W        W28957   7.936  12.332   1.424  0.2007 -0.2184  0.0527
12484W        W28958  10.747   9.792   0.448  0.0734 -0.0978 -0.3470
12485W        W28959   4.099  16.265  15.591  0.2992 -0.1888  0.0912
12486W        W28960   0.421  13.750  11.864  0.0050  0.1891  0.1705
12487W        W28961   0.302   7.197   2.699 -0.3111 -0.0705 -0.1132
12488W        W28962   4.004  10.019  11.242 -0.1568  0.2877  0.0315
12489W        W28963   4.563   4.825   0.931  0.3010  0.0937 -0.2030
12490W        W28964  16.392   6.224   1.926 -0.2269 -0.1078  0.2233
12491W        W28965  11.679  14.019   1.448  0.1054  0.1789 -0.3214
12492W        W28966   7.410   4.209   3.982  0.2262  0.0573  0.1153
12493W        W28967   8.385  16.408   4.297 -0.0752 -0.0431 -0.0238
12494W        W28968  14.558  10.457   1.860  0.0388  0.0628 -0.0737
12495W        W28969   9.460   3.301   2.975  0.2346 -0.0583 -0.3240
12496W        W28970  15.510   7.408   4.518 -0.3143 -0.2523  0.1715
12497W        W28971   1.296   8.432   3.867  0.0391  0.0019 -0.2690
12498W        W28972  11.510   3.642   1.416 -0.1379  0.2104  0.0799
12499W        W28973   6.066   8.179  12.104  0.0263  0.1350  0.0503
12500W        W28974   4.962   3.627   0.096 -0.1911 -0.2039 -0.1363
12501W        W28975  13.330  12.531   2.177 -0.0376 -0.3498  0.1336
12502W        W28976   1.526   5.212  10.994  0.0828 -0.0368 -0.0271
12503W        W28977  14.811   5.153   2.160 -0.0521 -0.2906 -0.4174
12504W        W28978   8.717  14.074  15.427  0.1943  0.1784  0.0197
12505W        W28979  17.816   4.117  13.299  0.2066 -0.0294 -0.1208
12506W        W28980  11.507  18.710  13.454  0.0874  0.0060 -0.0542
12507W        W28981   4.181   4.721   0.050  0.2354  0.1317 -0.2408
12508W        W28982   2.879   5.769  11.406  0.1470  0.2044 -0.1190
12509W        W28983   0.745   1.613  11.583  0.2012  0.0038  0.2288
12510W        W28984   8.955  18.216   0.294 -0.0991  0.0686 -0.1949
12511W        W28985   2.752   6.634  13.774  0.2002 -0.0075  0.1118
12512W        W28986   6.087   3.342   4.179  0.1548 -0.0870  0.1439
12513W        W28987  10.190  12.229   3.597 -0.0874  0.0005  0.0130
12514W        W28988   8.640  12.528   0.557  0.2305  0.0020  0.2668
12515W        W28989   1.440   5.483  11.436 -0.1803 -0.0732 -0.0623
12516W        W28990  17.570   6.556  11.371 -0.0153  0.0820 -0.1677
12517W        W28991   5.076   4.264   3.719  0.3117 -0.2819  0.0852
12518W        W28992   2.931  17.185   3.697  0.1001 -0.1482 -0.1680
12519W        W28993  13.335   0.872  12.323  0.4293  0.4024 -0.1014
12520W        W28994   9.836  13.464  12.296 -0.0046 -0.0632  0.1818
12521W        W28995  11.103  15.563   0.915 -0.0926 -0.0646  0.0728
12522W        W28996   8.026   0.878   1.299 -0.2878 -0.0707 -0.1982
12523W        W28997   1.073   4.549  12.156 -0.2854 -0.2314 -0.1340
12524W        W28998  15.532   6.652   0.309 -0.0773  0.4647  0.1096
12525W        W28999   2.949   5.941   2.941 -0.0915  0.2115 -0.0017
12526W        W29000  11.924   8.100   6.241 -0.1429  0.1618  0.1341
12527W        W29001  11.173   6.340   1.573  0.1692 -0.1044  0.0884
12528W        W29002   2.990   3.069   3.758  0.0688  0.1897 -0.3365
12529W        W29003   3.739   5.980   2.439  0.0864 -0.1229 -0.3103
12530W        W29004   5.450   1.891   5.794 -0.1735  0.2425  0.2582
12531W        W29005   9.724   9.757   0.970 -0.1326 -0.2656  0.4202
12532W        W29006  18.070  16.972  13.165  0.0723 -0.2660 -0.1769
12533W        W29007   1.017  17.332   1.289  0.2994 -0.0502  0.3871
12534W        W29008   3.169   7.897  11.402  0.1875 -0.2078 -0.1143
12535W        W29009  13.696   4.410   5.092 -0.0953 -0.2935 -0.0038
12536W        W29010   2.976  15.281  12.149  0.0902 -0.2233 -0.0650
12537W        W29011   0.565  16.101  13.615 -0.1947  0.1281 -0.2010
12538W        W29012  10.401   0.480  12.262  0.0074 -0.1741  0.0097
12539W        W29013   4.984   8.409   1.558  0.2946 -0.4395 -0.1436
12540W        W29014  16.142  14.125   2.307 -0.0593  0.1220  0.0002
12541W        W29015  15.560   6.328   4.191 -0.1998  0.1849  0.4448
12542W        W29016  14.488   3.264  13.783  0.0841 -0.1432  0.0600
12543W        W29017   3.926  16.798   3.086 -0.0155  0.0003  0.0532
12544W        W29018  18.763   6.821  12.630  0.0398  0.0932 -0.0422
12545W        W29019   2.072  11.279   3.387  0.0176 -0.0434  0.2659
12546W        W29020  16.644   7.816   3.845 -0.0905  0.4284  0.0873
12547W        W29021   6.636  14.715   3.743 -0.3830 -0.0293 -0.0531
12548W        W29022   6.543  10.926   1.872  0.0729 -0.1236 -0.2565
12549W        W29023  14.097  17.690  15.263  0.3628 -0.2544 -0.0187
12550W        W29024  14.450  17.890   0.769 -0.0804 -0.1357  0.1316
12551W        W29025  18.006  15.766  12.105 -0.0492  0.0747  0.1274
12552W        W29026   1.726  16.496  13.773 -0.3438 -0.1649 -0.2325
12553W        W29027   0.110  11.696   1.095  0.0566 -0.0498  0.2022
12554W        W29028  12.068   8.901  12.132 -0.1110  0.1460  0.0784
12555W        W29029  11.126   9.396  13.778 -0.0480 -0.3919 -0.4484
12556W        W29030  15.571  16.642   0.877 -0.1840 -0.2143 -0.0738
12557W        W29031   3.523  11.205   1.608  0.0822 -0.0231  0.0558
12558W        W29032  16.216   5.219   3.330  0.3131  0.3894 -0.1427
12559W        W29033   3.063  15.772  12.042  0.1278 -0.0335  0.2139
12560W        W29034   0.247  17.424  13.208 -0.0047  0.0910 -0.1282
12561W        W29035   3.540   8.523   4.758  0.1016  0.1875 -0.1179
12562W        W29036   1.155   1.141   4.826  0.1436 -0.0439  0.1316
12563W        W29037  16.629   4.686  10.516 -0.2438  0.1017 -0.2630
12564W        W29038  10.054   6.224   5.349  0.2999 -0.1017 -0.0514
12565W        W29039   4.494  11.497  14.683 -0.0846  0.3719  0.0221
12566W        W29040   3.963   0.200  12.227 -0.0022  0.1184 -0.3206
12567W        W29041  11.277  12.959   5.387 -0.0217  0.2895 -0.1080
12568W        W29042   5.177   3.175   2.117 -0.0364  0.1308  0.0528
12569W        W29043  14.134  13.586  10.759  0.0025  0.1654 -0.0837
12570W        W29044   6.067  10.361   4.240  0.1135  0.1367 -0.1101
12571W        W29045  13.268  11.790  14.588 -0.0298 -0.0350 -0.0851
12572W        W29046   5.594   5.454  14.066  0.3024 -0.3822 -0.0610
12573W        W29047   5.184  16.041   3.004  0.1492  0.1106 -0.1963
12574W        W29048   0.022   5.174  11.308 -0.1117  0.0414  0.0711
12575W        W29049   5.948  11.106  15.510  0.1253  0.3879 -0.3218
12576W        W29050   1.582  15.696   4.271  0.2502  0.1192 -0.3035
12577W        W29051  17.975  11.069  11.258  0.3282  0.1642  0.2695
12578W        W29052   3.549  13.576   4.091  0.4221 -0.1719  0.1183
12579W        W29053   9.388   3.801  12.033 -0.1281 -0.1461 -0.0146
12580W        W29054  13.395  12.085   3.580 -0.1941 -0.3456 -0.0962
12581W        W29055   2.734   5.996   1.171 -0.1560  0.2124 -0.4603
12582W        W29056   2.820   6.658   4.606 -0.1549  0.1781  0.1850
12583W        W29057  10.375   9.800   3.037  0.0617  0.1875  0.0159
12584W        W29058   0.646   5.139   5.061 -0.0321  0.0227  0.1440
12585W        W29059  13.639  10.009   1.505 -0.0007  0.3418 -0.0783
12586W        W29060   2.167   7.262  15.661 -0.1470  0.1464 -0.3037
12587W        W29061  11.053  17.662  13.392 -0.2309 -0.1328 -0.0767
12588W        W29062   7.257   2.521   5.531  0.1871 -0.1157 -0.2663
12589W        W29063   1.125   2.061  11.651 -0.0941 -0.1417  0.1461
12590W        W29064  14.663  16.959  13.792  0.1180  0.2054  0.1273
12591W        W29065   8.347  18.357  14.952 -0.2116  0.2263  0.0437
12592W        W29066   3.910   6.772  11.094 -0.0174 -0.0473 -0.0935
12593W        W29067   0.302  15.149  13.596  0.1779  0.0974 -0.2222
12594W        W29068   8.720  16.079   4.207 -0.1606  0.1690 -0.1791
12595W        W29069   4.545   9.664  14.867 -0.1525 -0.0695 -0.0480
12596W        W29070   9.553  18.433   5.281 -0.0195  0.2871  0.1507
12597W        W29071  17.346  12.731  11.750  0.1430 -0.2294 -0.0544
12598W        W29072  12.131   4.831   1.932  0.0920 -0.2183  0.1377
12599W        W29073  14.944   0.989  13.119 -0.0767 -0.1366  0.0634
12600W        W29074   8.722  12.938  12.841  0.0572 -0.1357 -0.0064
12601W        W29075   8.419   1.207  10.655 -0.0796  0.2496 -0.0624
12602W        W29076   6.645   2.046   0.882  0.0134  0.0141  0.0423
12603W        W29077  17.860   0.657  12.444 -0.0991 -0.2939 -0.0594
12604W        W29078   3.606  16.679   5.324  0.2662 -0.0413 -0.2510
12605W        W29079  11.197   7.524  14.400 -0.2915 -0.4174  0.0690
12606W        W29080   1.322  18.603   4.403  0.3613  0.0296 -0.1804
12607W        W29081  15.199  15.987   5.480 -0.1666  0.0368 -0.1380
12608W        W29082  15.359   9.223  11.652  0.0889  0.0590 -0.1574
12609W        W29083   5.838  15.325   5.486 -0.3581 -0.0492 -0.3186
12610W        W29084   1.821   3.680   3.160  0.0703  0.0221 -0.1310
12611W        W29085  17.664   2.179  13.240  0.3230  0.0940  0.2681
12612W        W29086   6.597   1.439  12.282 -0.2097  0.2435  0.1790
12613W        W29087   0.293   9.444   0.333  0.2101  0.3977 -0.2184
12614W        W29088  16.378  15.571  11.296 -0.2633  0.1195 -0.1799
12615W        W29089   0.064  10.179  14.869 -0.2117  0.0707  0.2319
12616W        W29090   2.589  16.086  12.296  0.0462 -0.2097 -0.0342
12617W        W29091   7.485   5.122   5.019 -0.0748 -0.3121 -0.0128
12618W        W29092   9.171   2.428  14.778 -0.0934  0.0521 -0.0294
12619W        W29093   3.595  11.918  14.585 -0.1626  0.2935 -0.3226
12620W        W29094   2.103   8.317   0.705 -0.1129  0.3510 -0.2172
12621W        W29095   5.018   8.371   2.116 -0.0196 -0.0519 -0.0501
12622W        W29096   3.529  15.697  14.391 -0.1989  0.3272  0.0942
12623W        W29097   7.937  15.843   4.851 -0.1754 -0.0265 -0.0764
12624W        W29098   1.957   2.912   3.711  0.0821  0.0849 -0.1912
12625W        W29099  10.621   3.148   5.383  0.1054  0.4179 -0.3565
12626W        W29100   8.184   3.715   1.726 -0.0496  0.0694 -0.1776
12627W        W29101   2.577   3.670  12.284 -0.1227 -0.0850  0.1849
12628W        W29102  13.805  14.436   0.261 -0.0220 -0.1910  0.0127
12629W        W29103   5.646   4.612   2.049  0.1323  0.2856  0.0057
12630W        W29104   8.686  16.005   2.417  0.1942  0.2226 -0.2306
12631W        W29105  14.969   8.470  13.778  0.0101  0.0450 -0.0842
12632W        W29106  15.700   8.217  12.367 -0.0226 -0.1428 -0.0826
12633W        W29107   2.138  17.517   5.886  0.1844 -0.1014 -0.1117
12634W        W29108   1.027   8.744   1.139  0.2053 -0.1229  0.2688
12635W        W29109   6.261   7.966   3.622  0.3082 -0.0311 -0.3519
12636W        W29110  15.858  15.274  15.495  0.0060  0.0339  0.2221
12637W        W29111  13.029  10.719  13.673 -0.3055  0.0902  0.2899
12638W        W29112  13.018   4.009   4.451  0.3858  0.1832 -0.2725
12639W        W29113  15.725  12.406  14.491  0.2448 -0.0640 -0.2559
12640W        W29114   1.133   2.121   0.451 -0.0310 -0.0098 -0.2444
12641W        W29115  14.416   0.044   1.114 -0.0914  0.1854  0.0008
12642W        W29116   0.171   6.607   2.605 -0.0971  0.0860 -0.4305
12643W        W29117  10.358   1.649  13.980 -0.2869  0.0839 -0.1306
12644W        W29118   6.549   2.747  13.436  0.0535  0.0977  0.0232
12645W        W29119   5.049  11.516   1.303 -0.3490  0.1836 -0.1506
12646W        W29120  11.894  18.187  13.200  0.0259  0.2501  0.2967
12647W        W29121  11.377   1.881  12.932  0.2854 -0.0673  0.0366
12648W        W29122  14.285  12.556  15.068  0.0428 -0.3667  0.0715
12649W        W29123   3.892  17.998   0.572  0.1355  0.0477 -0.3069
12650W        W29124   3.418   1.435   4.362  0.5007  0.3252 -0.1692
12651W        W29125  13.195   9.736   1.555  0.2144 -0.2449 -0.0114
12652W        W29126  14.881   4.081  11.411  0.0447  0.3560 -0.0507
12653W        W29127  10.147   1.100   2.987 -0.0030 -0.0747 -0.0260
12654W        W29128   0.738   7.348   2.193 -0.2848 -0.1706  0.2649
12655W        W29129   4.138   1.816   2.025  0.1241 -0.2097 -0.0474
12656W        W29130  18.136   9.632   5.115 -0.2611 -0.1507 -0.0797
12657W        W29131   3.060  14.501  11.020  0.1403 -0.0117  0.2251
12658W        W29132  17.394   4.962  13.804 -0.2316  0.1600  0.3023
12659W        W29133  15.537   8.131   1.612  0.0171  0.3127  0.0617
12660W        W29134   1.949  14.613   0.540  0.0313  0.0539  0.1721
12661W        W29135   2.372   2.517  14.546  0.2678  0.2073  0.1955
12662W        W29136   5.052  15.926  11.241  0.0197 -0.1798  0.0174
12663W        W29137  10.233   4.763   5.140 -0.0974 -0.3721 -0.0526
12664W        W29138   8.737   1.307  11.448  0.0120  0.0535  0.3289
12665W        W29139   2.830  10.316   3.581  0.1226 -0.2460  0.0152
12666W        W29140  12.211  18.442  12.207  0.0341  0.0289 -0.0420
12667W        W29141   0.432   4.025  12.096 -0.2294 -0.1536 -0.2495
12668W        W29142  13.138   6.513  10.296 -0.1150  0.2489  0.1213
12669W        W29143  13.347  12.534  13.423 -0.0445 -0.1545 -0.2727
12670W        W29144  14.021  15.116  15.419 -0.0769  0.1604  0.2757
12671W        W29145  11.452   4.263  12.743  0.1747  0.1381 -0.3015
12672W        W29146   8.381   6.799  13.756 -0.3096 -0.1968 -0.1317
12673W        W29147   2.927  16.005  15.615 -0.0764 -0.3061 -0.0450
12674W        W29148   9.560   0.761  12.096 -0.0025  0.0199 -0.3808
12675W        W29149   1.962  17.172   3.438 -0.0123 -0.1440  0.1584
12676W        W29150  15.619   4.052  11.863 -0.1741  0.0216  0.2103
12677W        W29151   7.345   5.388   4.032 -0.1580  0.1612 -0.0236
12678W        W29152   1.624   3.012  13.615  0.0008 -0.0825  0.3117
12679W        W29153  13.545  13.002   1.419 -0.2608 -0.0508 -0.1548
12680W        W29154   8.259   2.121   2.603 -0.1676  0.0170 -0.0838
12681W        W29155  11.507  13.727  13.624  0.1569 -0.3965 -0.4835
12682W        W29156   2.000  15.754  14.654  0.1139 -0.0180 -0.1037
12683W        W29157  14.861   9.739   2.892  0.0680 -0.3111 -0.2095
12684W        W29158   9.020   9.480  14.054 -0.0534 -0.1599 -0.3893
12685W        W29159  17.012  18.353  13.279  0.2579  0.1651 -0.0516
12686W        W29160   0.050   5.960   2.087 -0.1671 -0.0125  0.1516
12687W        W29161   5.140   0.729   4.552 -0.1566 -0.0999  0.1506
12688W        W29162   4.918   5.126  13.060 -0.3345  0.5355 -0.0356
12689W        W29163   8.443   8.385  11.838  0.0197  0.0798 -0.0246
12690W        W29164   9.832  10.751  15.235  0.0443 -0.2143 -0.1935
12691W        W29165   4.850   8.362  13.502 -0.1882 -0.2251 -0.2632
12692W        W29166  14.964  12.725  10.823 -0.3963  0.0704 -0.2623
12693W        W29167  13.567  11.631   2.751  0.1441  0.0588 -0.3151
12694W        W29168   7.783  14.144   4.820  0.0012 -0.0309  0.2107
12695W        W29169  13.703  13.332  10.494  0.1467  0.3008  0.1925
12696W        W29170  12.518   3.470  12.775 -0.2829 -0.1118  0.0780
12697W        W29171  11.240   1.825  14.401  0.1622 -0.0968 -0.0607
12698W        W29172  11.975   8.917   4.162  0.2348 -0.2253 -0.1145
12699W        W29173  14.888   5.320   3.314  0.3381 -0.4009  0.0762
12700W        W29174   4.779  11.611  13.925 -0.4655 -0.3414 -0.0181
12701W        W29175  15.401   2.552  15.355 -0.1181 -0.1096 -0.0988
12702W        W29176  11.612  14.335  15.359  0.0655  0.0786  0.0098
12703W        W29177   8.604  14.332   4.105 -0.1163 -0.1010  0.2111
12704W        W29178   3.127   1.821   3.685 -0.2039 -0.2208  0.2024
12705W        W29179   4.135  16.770   0.012  0.1392 -0.1213  0.2591
12706W        W29180   0.419  10.525   0.013 -0.1691  0.0724  0.4694
12707W        W29181  12.355   5.373   0.880  0.0945  0.2332 -0.0140
12708W        W29182  16.208   7.900   5.250  0.4231  0.0342  0.2496
12709W        W29183   6.973   5.139   1.115  0.3434  0.1133 -0.1989
12710W        W29184  13.995  11.589  13.153 -0.3273 -0.0575  0.0546
12711W        W29185   6.940   8.582   4.837 -0.0129 -0.3685  0.0960
12712W        W29186   5.942  18.787  10.971 -0.1426  0.1690  0.2043
12713W        W29187   5.720  17.438   5.633 -0.1672 -0.1035 -0.1150
12714W        W29188  18.342  17.301  15.203 -0.0476 -0.2794 -0.1042
12715W        W29189   0.213   2.141   0.648 -0.0885  0.1317  0.1057
12716W        W29190   9.947   0.382   5.515 -0.0693  0.0914  0.0568
12717W        W29191   7.569   4.316   2.153  0.1744 -0.0179 -0.0510
12718W        W29192  11.517  16.878  13.007  0.0079  0.0743  0.0085
12719W        W29193  14.724  17.109  10.519 -0.0449 -0.0213  0.0316
12720W        W29194   5.318   9.997  14.706 -0.0911  0.2009  0.1580
12721W        W29195  10.334   0.369  11.162 -0.1569  0.1942  0.1018
12722W        W29196   9.784  17.841  13.836  0.1132  0.2989  0.1575
12723W        W29197   6.153   7.300  12.648  0.0114 -0.0199 -0.2100
12724W        W29198   5.056   6.715   2.175 -0.1494 -0.1369 -0.0585
12725W        W29199  14.142   1.505   2.029  0.1084  0.0901  0.0805
12726W        W29200  18.623  18.544   2.354 -0.0636  0.1772  0.0381
12727W        W29201  14.025   4.343   2.637 -0.1106 -0.0623 -0.1384
12728W        W29202   6.658   8.871  14.246  0.0467  0.1357  0.0316
12729W        W29203  13.618  11.839   0.827 -0.1907  0.0435  0.2094
12730W        W29204   8.606  11.002   2.020 -0.2711  0.0632  0.3281
12731W        W29205   6.137   6.042  15.063 -0.0927  0.0373  0.2091
12732W        W29206   3.086   1.084   4.967 -0.0157  0.0809  0.0533
12733W        W29207  18.255   5.241   2.729 -0.0793  0.2662 -0.0963
12734W        W29208  17.933   0.855  14.263  0.2128 -0.3044  0.1349
12735W        W29209  10.952  16.837  13.258 -0.0927 -0.3244  0.2417
12736W        W29210  18.596   3.168  11.063 -0.3131  0.4468  0.2029
12737W        W29211  14.546   6.409   0.623 -0.1177  0.0014  0.2107
12738W        W29212  13.121  15.655   5.986 -0.0946  0.1119  0.3364
12739W        W29213   2.040   9.652  13.287  0.0827 -0.0982  0.0750
12740W        W29214   4.411  14.143   2.140 -0.5278  0.1706 -0.1622
12741W        W29215   4.938  15.526  14.989 -0.2957  0.2616 -0.2898
12742W        W29216   0.879   5.324   9.643  0.3569 -0.0327  0.0861
12743W        W29217   1.933  14.927   4.133 -0.2544 -0.1496  0.0303
12744W        W29218  15.268   4.927  10.645 -0.0809 -0.0983 -0.0763
12745W        W29219  15.413  11.455  10.604 -0.1626 -0.2678 -0.1344
12746W        W29220   3.935   5.580   0.831 -0.0587  0.0233  0.0619
12747W        W29221   2.919  16.463   0.685  0.1142 -0.0446 -0.0316
12748W        W29222   3.513   5.323   4.642 -0.2659 -0.0203  0.0986
12749W        W29223  16.181  14.142  12.754  0.1125  0.0457 -0.3867
12750W        W29224  16.575   7.966   1.645 -0.0355 -0.0481 -0.0571
12751W        W29225  14.006  14.126  13.700 -0.1538 -0.1887 -0.0030
12752W        W29226  10.272   0.746   1.557  0.0559  0.1105  0.1155
12753W        W29227   2.210  15.162  15.351 -0.2396  0.1807 -0.0678
12754W        W29228   3.174   9.380  11.961 -0.1048 -0.0789  0.0999
12755W        W29229   8.141  10.119  15.316 -0.1344  0.1598  0.3567
12756W        W29230  17.762   0.734  13.830  0.0354  0.1323 -0.0444
12757W        W29231   5.319  14.119   5.259  0.0959 -0.0033 -0.1861
12758W        W29232   8.893   9.108  12.511 -0.1660  0.1027  0.0648
12759W        W29233   5.479   4.851   3.837 -0.0189 -0.2507 -0.1283
12760W        W29234  11.998  11.978   0.760  0.0565 -0.1547  0.3177
12761W        W29235  13.500   2.119   1.491  0.4199 -0.1916 -0.0327
12762W        W29236   3.565  18.033  15.006 -0.2825  0.0784  0.0608
12763W        W29237   2.007   0.467   2.154 -0.1238  0.0512 -0.2373
12764W        W29238  15.582   3.181   0.693  0.0640 -0.0068  0.1019
12765W        W29239   7.990   2.920  12.203  0.2580 -0.2212  0.1720
12766W        W29240   6.054  17.203  15.200 -0.3851  0.0766  0.0837
12767W        W29241  17.461   1.719  11.201 -0.0486 -0.0552  0.0874
12768W        W29242  15.973   4.240  14.125  0.0939  0.1497  0.2736
12769W        W29243  10.652  17.772   4.626  0.0344  0.3463  0.2687
12770W        W29244  11.972  13.985  15.349 -0.3807 -0.0089 -0.1676
12771W        W29245  13.269  12.845  12.046  0.2828  0.1193  0.0770
12772W        W29246   6.252   2.359   3.049  0.2421 -0.0092 -0.0234
12773W        W29247   0.055  17.503  12.715  0.2383 -0.2223 -0.1969
12774W        W29248  17.384   3.458   2.968 -0.0182  0.2449  0.1737
12775W        W29249   3.570  11.830  13.073  0.1005 -0.0541  0.1549
12776W        W29250  14.595  13.107   3.455  0.0470  0.2685  0.2544
12777W        W29251  10.753   2.662   2.732  0.2919  0.0752 -0.0664
12778W        W29252  11.620   0.236   4.945  0.2553 -0.0858  0.1786
12779W        W29253   8.324  12.342   0.905 -0.0664  0.0504  0.0081
12780W        W29254   2.955  18.825  15.559  0.1844  0.0297 -0.2509
12781W        W29255   5.582   5.848   1.515 -0.2827  0.1993 -0.1117
12782W        W29256   6.933   9.891  14.278  0.4061  0.1622  0.4000
12783W        W29257  10.601  11.291  15.227 -0.1245  0.0197 -0.1987
12784W        W29258   0.925   3.084   1.158 -0.1017 -0.0636 -0.0035
12785W        W29259   6.202   6.347   3.230  0.1560 -0.1682 -0.1271
12786W        W29260  13.192  12.046   5.350  0.0453  0.2615 -0.0442
12787W        W29261   2.681  16.004  10.812 -0.0559  0.1312  0.0739
12788W        W29262   8.342   7.292   6.180 -0.3324  0.2567 -0.0892
12789W        W29263  16.758  13.960  13.438 -0.1828 -0.0961 -0.3808
12790W        W29264   2.580  17.180  12.971  0.1215  0.0050 -0.4400
12791W        W29265  16.670   0.457   3.081 -0.2185 -0.2248  0.0931
12792W        W29266   2.086  18.346   2.240 -0.2478  0.1726 -0.2231
12793W        W29267   3.525   3.502  12.917 -0.0158 -0.0539 -0.0615
12794W        W29268  11.120   9.232   2.740 -0.0012 -0.0925 -0.2600
12795W        W29269   8.396  13.156  13.189  0.4281  0.2729  0.0044
12796W        W29270  12.310   0.349   4.020  0.0797 -0.2496 -0.0955
12797W        W29271  18.445   4.481   0.517 -0.2714  0.2189 -0.1393
12798W        W29272  15.176   4.856  12.410 -0.2291  0.0917  0.2337
12799W        W29273  16.294   6.846  14.117  0.3171 -0.0542 -0.1947
12800W        W29274  14.887  14.459   1.300  0.0302 -0.3781  0.0211
12801W        W29275   0.372  15.150   2.419  0.2136  0.1150 -0.0089
12802W        W29276  13.606   8.073   4.919  0.2112 -0.2164  0.2323
12803W        W29277   4.778   2.007   3.308 -0.3886 -0.1264 -0.2287
12804W        W29278   4.429  12.751   4.179  0.1724  0.1996 -0.1106
12805W        W29279  13.847  18.539   4.401  0.1528 -0.2411  0.0003
12806W        W29280   8.501  17.026   3.325 -0.0563  0.0143 -0.3204
12807W        W29281   2.374   5.138   0.715  0.0393 -0.1661 -0.3641
12808W        W29282   5.062  17.265  12.873 -0.0037 -0.0771 -0.2743
12809W        W29283   2.212   4.235  11.506  0.1457 -0.3148  0.1178
12810W        W29284  15.257   8.081  13.498 -0.0442 -0.1980 -0.1629
12811W        W29285   1.675   5.365   3.169  0.2136  0.3211  0.0904
12812W        W29286  14.743  12.682   1.680  0.4268 -0.0176 -0.1159
12813W        W29287   2.875  10.513   5.088 -0.1543 -0.1273 -0.0238
12814W        W29288   7.175   2.558  11.523 -0.2708 -0.1324 -0.1066
12815W        W29289   4.257   6.385  11.417 -0.0279  0.1752 -0.0499
12816W        W29290  11.056  14.933   4.701  0.1781 -0.3574  0.0425
12817W        W29291  15.547  10.631  10.254 -0.0173 -0.1960 -0.2940
12818W        W29292  14.207   3.916  11.591  0.0498 -0.1895  0.2948
12819W        W29293  10.671  11.177  10.455 -0.0184  0.0726 -0.1190
12820W        W29294  11.819   6.416   3.082  0.1105 -0.1843 -0.1904
12821W        W29295   1.931   2.630   4.634 -0.0592 -0.0929 -0.2128
12822W        W29296  17.212  17.070   5.008  0.3038  0.0099  0.0909
12823W        W29297  10.253  17.869   1.925  0.0574 -0.2493  0.0574
12824W        W29298   4.523   0.641   1.878  0.0694 -0.0883  0.2146
12825W        W29299  13.170   6.388  11.466 -0.1651  0.2340  0.4149
12826W        W29300   6.327   8.226  13.819  0.0034  0.0192 -0.1644
12827W        W29301   9.659  13.809  14.932 -0.0968  0.2780 -0.0024
12828W        W29302  10.405   0.690  13.670 -0.2025 -0.0136  0.0371
12829W        W29303  15.024   3.581  15.603 -0.1364  0.1038  0.0737
12830W        W29304  16.853  10.890   4.612 -0.3265 -0.0221  0.0171
12831W        W29305   4.407  18.637  15.438 -0.3993 -0.1269 -0.3172
12832W        W29306  16.342   7.341  10.801 -0.0456 -0.1154 -0.1354
12833W        W29307  15.851   6.215   1.124 -0.0263  0.0840 -0.1376
12834W        W29308  16.043   6.163   0.093  0.2090  0.0299 -0.1719
12835W        W29309  15.550  18.404   2.531  0.0271  0.2650  0.0271
12836W        W29310  13.101  18.768  13.984  0.1075  0.3179 -0.3102
12837W        W29311  11.248  15.081  15.637  0.1618 -0.0777  0.1699
12838W        W29312  14.098   8.783  14.788 -0.0964  0.2839 -0.2849
12839W        W29313   6.784  11.609   0.739 -0.1897  0.0384 -0.2814
12840W        W29314   9.847   5.363   1.182 -0.0028  0.0163  0.0083
12841W        W29315  14.184  13.150   2.584 -0.0193 -0.2381 -0.0529
12842W        W29316  18.559   3.811   1.400 -0.0326  0.2721  0.2649
12843W        W29317   6.843  13.721  12.623  0.4438 -0.0120 -0.0634
12844W        W29318   6.225   8.426  15.128  0.2693  0.0511  0.0077
12845W        W29319   7.487   1.415  13.679 -0.1789 -0.1323 -0.0838
12846W        W29320   4.915   4.715   1.762  0.0243 -0.3876 -0.0425
12847W        W29321   8.935   8.685  13.745  0.0949  0.2315 -0.1847
12848W        W29322   1.408   3.622   3.775  0.0005  0.1571  0.1701
12849W        W29323   1.983  12.925   0.966 -0.0536 -0.1071  0.0456
12850W        W29324   0.667  14.547  11.104  0.4245 -0.1530  0.2793
12851W        W29325   7.896   4.581  12.279  0.0094  0.1619 -0.2719
12852W        W29326  10.048   9.679  14.111 -0.0973 -0.3106  0.0233
12853W        W29327   0.156  11.486   1.634 -0.2851 -0.0385 -0.1740
12854W        W29328  14.701   6.904   5.045  0.2631  0.3709 -0.1545
12855W        W29329   9.037   4.779   4.232 -0.0059 -0.1588  0.0288
12856W        W29330   2.320   3.489   0.875  0.0539  0.1022 -0.0062
12857W        W29331   0.770   9.119  14.024 -0.2314 -0.0883  0.1671
12858W        W29332   4.455   4.339  15.284  0.0706  0.1583  0.2014
12859W        W29333   1.931  13.132  14.575 -0.1902  0.0341  0.1808
12860W        W29334   5.981  11.931  13.487  0.0742 -0.0713 -0.1702
12861W        W29335  18.121  12.440   0.314  0.0975  0.0983 -0.1825
12862W        W29336  11.290   8.331  11.849 -0.0378 -0.1882  0.0434
12863W        W29337  13.022  12.954  13.430  0.0352  0.0916 -0.3959
12864W        W29338   0.177   3.160   0.702  0.3522 -0.0083 -0.0881
12865W        W29339  14.232  11.347   0.290  0.0256 -0.0310  0.1420
12866W        W29340   9.328  15.572   1.773 -0.1553  0.1155 -0.1484
12867W        W29341   1.181  16.101   2.978 -0.2386 -0.2129  0.1676
12868W        W29342  13.953  11.028  11.326 -0.0854 -0.0231 -0.1333
12869W        W29343   6.780   8.492  11.153  0.0437  0.0781  0.0172
12870W        W29344  12.055  13.598  13.514 -0.0844 -0.1275 -0.1082
12871W        W29345  13.296   0.756  15.033 -0.2621 -0.0998  0.0077
12872W        W29346   5.719  12.594  13.819  0.2246  0.0386  0.1737
12873W        W29347  18.786  17.084   3.253 -0.2906 -0.1133  0.1946
12874W        W29348   0.979   0.305  13.205 -0.1366 -0.1601 -0.2423
12875W        W29349  17.330   2.883   0.088  0.0419  0.1580  0.0752
12876W        W29350  17.170   2.481  13.061  0.1436  0.1712  0.0047
12877W        W29351  16.592   7.689  13.735  0.0201 -0.2583 -0.0800
12878W        W29352   5.000  17.078  10.972  0.1305  0.2413 -0.1979
12879W        W29353  13.731  10.940   0.155 -0.1576 -0.1852 -0.2755
12880W        W29354  13.281   1.153  10.283 -0.1976 -0.1909 -0.2786
12881W        W29355  14.916   2.904   5.265 -0.0803 -0.1305 -0.0406
12882W        W29356  17.822   6.288   0.460  0.0705  0.3522 -0.0156
12883W        W29357   8.540  11.258  15.553  0.1912  0.0638  0.0380
12884W        W29358   8.082  12.039  14.944  0.1433 -0.1678 -0.3678
12885W        W29359  10.060  14.547  13.812  0.0513  0.0312  0.2877
12886W        W29360   9.044  11.218   1.225 -0.1227 -0.0375 -0.3523
12887W        W29361  16.112  14.015   3.498 -0.1364  0.0680  0.1169
12888W        W29362   5.714   8.281   1.492 -0.2790 -0.2911  0.0530
12889W        W29363  10.219   1.602   5.289 -0.0854  0.1254 -0.2771
12890W        W29364  18.024  14.857  14.284 -0.0380  0.0766  0.1427
12891W        W29365   3.718  18.068   2.782  0.1375 -0.2681  0.0293
12892W        W29366  15.588  12.910   0.182 -0.1121  0.0589  0.1730
12893W        W29367   3.609   5.465  11.040  0.4009  0.0790  0.1037
12894W        W29368   9.443   4.731   1.100 -0.0509  0.2379 -0.0533
12895W        W29369  16.039  12.060  15.353 -0.3679 -0.3886 -0.4418
12896W        W29370  15.646  10.291   5.021  0.0464  0.1367  0.1309
12897W        W29371  16.476  17.194  13.240 -0.0351  0.0373 -0.1396
12898W        W29372  11.855   1.805  13.034 -0.0044  0.0507 -0.0260
12899W        W29373   8.479   6.910  14.842 -0.1267  0.2057  0.3000
12900W        W29374   0.876  11.585  10.754 -0.5153  0.1024  0.0052
12901W        W29375  12.253  16.417  11.691  0.4679  0.0092  0.3270
12902W        W29376   2.897   1.345   1.565 -0.0545 -0.2681  0.3430
12903W        W29377  17.975   1.325  14.988 -0.0149 -0.0350 -0.2274
12904W        W29378  15.833   1.841   0.650 -0.0022 -0.2349 -0.0814
12905W        W29379   0.780  15.736   3.850  0.0443  0.0933 -0.1046
12906W        W29380  11.224  11.106  14.423  0.0317  0.0813 -0.1226
12907W        W29381  15.465   4.502   1.192  0.2463  0.2729 -0.2045
12908W        W29382  15.761   3.253  10.360 -0.0054 -0.0739  0.1600
12909W        W29383   1.090   7.136   1.755 -0.3215  0.2223 -0.0375
12910W        W29384   8.253  10.308   3.245 -0.1696 -0.1012 -0.0809
12911W        W29385   3.719   9.732   2.707  0.2939 -0.0519  0.1418
12912W        W29386   3.164   2.283  14.043 -0.0726 -0.0473 -0.4644
12913W        W29387   6.529  13.092  11.482  0.2747 -0.0970 -0.1366
12914W        W29388  17.842  10.327  10.565 -0.1033  0.1488  0.0772
12915W        W29389  12.723   1.659  14.998  0.1393 -0.1486  0.2823
12916W        W29390  15.685   8.947  15.468  0.0094 -0.0138 -0.0021
12917W        W29391   6.651  11.280  12.293  0.3111 -0.1916  0.3929
12918W        W29392  16.042   5.129  14.157  0.1150  0.0172 -0.0096
12919W        W29393   8.880  15.179   0.864  0.1036 -0.2963 -0.0412
12920W        W29394  11.283  16.490  14.130 -0.0015  0.2059  0.0183
12921W        W29395   0.367   4.092  11.266 -0.0683 -0.0537 -0.2562
12922W        W29396  15.255  13.856  12.240  0.1416  0.1657  0.1643
12923W        W29397  14.054   1.607  12.528  0.0105  0.1121  0.1224
12924W        W29398  17.796  14.832  14.745 -0.2283 -0.0670  0.0095
12925W        W29399  12.053   0.484   4.772 -0.2050  0.5417 -0.2463
12926W        W29400   4.636  14.606  13.312  0.2274 -0.1376  0.1892
12927W        W29401  10.628  12.720   1.745 -0.3312  0.1106  0.0746
12928W        W29402  16.875  11.008  12.908 -0.0178 -0.0574  0.0842
12929W        W29403  17.123   4.991   1.902 -0.0383 -0.1054 -0.2182
12930W        W29404   6.217  16.741  15.246  0.0611 -0.2297 -0.0260
12931W        W29405   4.554   9.115  11.451  0.1403 -0.0326 -0.0549
12932W        W29406  18.800  14.217  13.988 -0.1030  0.0779  0.0352
12933W        W29407   8.576  15.150  14.586  0.0992  0.0656 -0.1057
12934W        W29408  15.472  16.044  10.690  0.0017  0.0391 -0.1009
12935W        W29409   8.581  11.350  13.340  0.0904  0.0642 -0.3091
12936W        W29410   3.919   9.603  12.813 -0.1262 -0.0130  0.1101
12937W        W29411   9.167  14.809  12.561 -0.0855 -0.1983 -0.1945
12938W        W29412  10.689   5.707   5.184 -0.1976  0.1913 -0.1467
12939W        W29413   0.064  10.097   0.011 -0.0531  0.2206 -0.0361
12940W        W29414  15.058   5.658   9.946  0.0669  0.0245  0.0677
12941W        W29415  10.861  14.803   0.779  0.4028 -0.0132  0.0139
12942W        W29416   7.783  17.448   3.459 -0.0161  0.1074 -0.4840
12943W        W29417  15.930   0.228  14.664  0.1403  0.2013 -0.1675
12944W        W29418   6.874   5.359  13.567 -0.0247  0.0250 -0.0849
12945W        W29419  16.710   7.665   1.006  0.2946 -0.2105  0.0069
12946W        W29420  16.671   4.660  15.335 -0.1766  0.0601 -0.1458
12947W        W29421   2.122   4.942  13.891 -0.1622  0.2279 -0.1555
12948W        W29422   7.638   0.989   4.784 -0.4186 -0.0481  0.2071
12949W        W29423  10.242  10.543   4.540 -0.0543  0.1763 -0.0294
12950W        W29424   7.127   2.490  13.039 -0.2521  0.2479 -0.0496
12951W        W29425   8.690   9.699   4.215  0.0196 -0.0788  0.1299
12952W        W29426   0.271   4.364  15.592 -0.0159 -0.0914  0.5487
12953W        W29427  17.994   6.428   4.945 -0.1446  0.0996  0.0775
12954W        W29428  16.447   6.605  11.600  0.3542 -0.0353 -0.0421
12955W        W29429   0.096   1.652  14.720 -0.2873  0.0253  0.0673
12956W        W29430   5.243  11.432  12.066 -0.1329 -0.0795 -0.1760
12957W        W29431   1.436   5.529   4.147 -0.0814 -0.1683  0.0844
12958W        W29432   0.187  15.593  11.630  0.0185 -0.4654  0.1468
12959W        W29433  10.120   7.523  15.556 -0.0913 -0.1187 -0.0101
12960W        W29434   7.274   6.103   2.439 -0.1667 -0.0588  0.0778
12961W        W29435  16.051  11.857  13.348  0.0296 -0.1296  0.1899
12962W        W29436  16.744   0.960  13.427 -0.2154  0.0068  0.1161
12963W        W29437  13.535  15.419   9.973  0.1485 -0.1081  0.0878
12964W        W29438  15.005   4.842   3.282  0.1530  0.0980  0.0194
12965W        W29439   7.554  17.401   4.352 -0.0344 -0.2275 -0.1867
12966W        W29440   2.938  15.464   0.259  0.1518 -0.0454 -0.2729
12967W        W29441   4.045  15.953   2.088  0.3115 -0.1184  0.1943
12968W        W29442   7.104   1.874   5.184 -0.1064  0.0291  0.0497
12969W        W29443  11.921  16.781   3.578  0.2323  0.0351  0.1341
12970W        W29444   7.136   3.211   4.278  0.0430 -0.0955  0.1325
12971W        W29445  16.252   3.659  15.304  0.1165 -0.0162 -0.0011
12972W        W29446  12.747   4.856   2.482 -0.1086  0.0552 -0.0266
12973W        W29447  11.912  12.838  13.312  0.0580  0.4403  0.0795
12974W        W29448  11.617  10.255  13.833 -0.0429 -0.3251  0.3370
12975W        W29449   2.928   4.112  13.617 -0.0766  0.1687 -0.1033
12976W        W29450  15.213  11.350  14.398 -0.1619 -0.0700 -0.0109
12977W        W29451  16.987  13.850  11.609  0.2017  0.2298  0.0834
12978W        W29452   0.057  17.960  12.968 -0.1196 -0.0264  0.0121
12979W        W29453  16.336   2.535   2.903 -0.1398  0.1600 -0.1254
12980W        W29454  18.059  15.785   9.350  0.2330  0.1881  0.1334
12981W        W29455  17.759   5.010   2.579  0.1083  0.0040  0.1192
12982W        W29456  16.030  10.952   0.504  0.1389  0.0219 -0.0819
12983W        W29457  12.404  10.795  14.359 -0.0050 -0.0581 -0.0745
12984W        W29458  16.346  10.822  14.200 -0.0902  0.0110  0.0041
12985W        W29459  17.036   9.938  11.603 -0.1190 -0.1396 -0.0079
12986W        W29460  15.726   4.432   2.183 -0.0426 -0.1071 -0.1035
12987W        W29461   8.236   4.007   1.001 -0.1027 -0.2255 -0.0536
12988W        W29462   9.367   3.502  13.661  0.2082 -0.4237 -0.0608
12989W        W29463  10.611   4.967  13.445 -0.4583 -0.1713 -0.1945
12990W        W29464   4.366   6.305  15.320 -0.1891 -0.1853 -0.2966
12991W        W29465   5.030  12.386  12.121 -0.1568 -0.0248 -0.0706
12992W        W29466  15.331   5.938  10.289 -0.0043  0.0397 -0.4086
12993W        W29467  16.703   8.303   3.749 -0.2033  0.1587 -0.0425
12994W        W29468  10.977  16.889   0.945  0.2255 -0.2006 -0.1077
12995W        W29469   4.308  10.993   3.694  0.1581  0.2199 -0.3675
12996W        W29470   0.923  16.735   2.811 -0.0413  0.1156 -0.0190
12997W        W29471  13.411  14.207   6.129 -0.0971  0.3036 -0.1195
12998W        W29472  15.077   8.101  14.102  0.1061  0.1999  0.0767
12999W        W29473   4.018   9.942  13.688  0.5393 -0.1416 -0.0981
13000W        W29474   4.735   1.106   3.751 -0.0236 -0.0572  0.2734
13001W        W29475  12.581   6.982   0.029  0.3093  0.0382  0.0949
13002W        W29476   8.661  10.881   3.280  0.1406  0.0299 -0.5733
13003W        W29477  15.487   0.293  13.373  0.2218  0.0812 -0.0506
13004W        W29478  14.562  15.189  15.611 -0.1224 -0.0228  0.0072
13005W        W29479   9.603   4.347  12.128  0.2101  0.0309  0.0444
13006W        W29480   0.416  18.489  12.924  0.1582 -0.1925  0.0997
13007W        W29481   5.121  10.262   2.859 -0.1041  0.1709 -0.0371
13008W        W29482   0.126  10.331   1.071  0.1501  0.0182  0.3579
13009W        W29483  10.294  17.053  14.155  0.0780 -0.0862  0.0518
13010W        W29484  12.452  11.751   4.035  0.1456 -0.0695 -0.1260
13011W        W29485  14.642  11.052   2.744  0.0841  0.4617  0.0749
13012W        W29486  16.404  16.515   3.281 -0.1297 -0.0830  0.0832
13013W        W29487  15.341  15.540   0.291 -0.0639  0.0111  0.2524
13014W        W29488   2.774   6.128   4.564  0.0837 -0.2462 -0.3345
13015W        W29489   3.203   4.011   0.478  0.1236  0.2322  0.1992
13016W        W29490  16.543  16.093   4.694 -0.1756  0.1950 -0.1307
13017W        W29491   7.322  15.752  13.908  0.1032 -0.3470 -0.1498
13018W        W29492   0.399  12.609   3.120  0.2010 -0.1746  0.1105
13019W        W29493   6.637   9.068  13.762  0.0280  0.0403 -0.0134
13020W        W29494   5.294   0.251  13.012  0.0570  0.0500  0.0614
13021W        W29495   0.371   1.817  10.998  0.2426 -0.3449 -0.0104
13022W        W29496  17.377  18.359  12.904  0.2509 -0.2257 -0.2583
13023W        W29497   6.174   8.286   2.448 -0.2173  0.1026 -0.0370
13024W        W29498  15.008  15.950  14.597  0.1088  0.1363 -0.0704
13025W        W29499   5.798  17.786  11.232  0.0881  0.0401  0.3756
13026W        W29500   2.446   3.711   0.410 -0.0907  0.1841 -0.1051
13027W        W29501  12.158  12.450  14.781  0.0222  0.2378 -0.2776
13028W        W29502   0.264  16.724   4.789 -0.0180 -0.0493 -0.0175
13029W        W29503  13.341   9.491   4.778 -0.2370  0.1038  0.0699
13030W        W29504   8.149   7.755  11.408  0.1540  0.0892  0.0071
13031W        W29505  10.763   0.962   2.263 -0.0568 -0.0184 -0.0941
13032W        W29506   5.833   5.400  15.305  0.1340 -0.2309  0.1518
13033W        W29507   6.202  17.059  13.355 -0.0893 -0.4772  0.1453
13034W        W29508  12.531   3.421  15.502  0.0852  0.0574  0.0706
13035W        W29509  11.911   0.080  12.220 -0.0049  0.0236  0.1476
13036W        W29510   6.236  11.449   0.033 -0.0254 -0.0981 -0.1536
13037W        W29511  17.355   5.120   1.437 -0.0918 -0.1700 -0.1201
13038W        W29512   3.719  10.247   3.922  0.2090 -0.0294 -0.0004
13039W        W29513  14.969  18.449   4.679  0.2943 -0.1375 -0.3177
13040W        W29514   5.579   9.993   2.948 -0.1673  0.1763 -0.3413
13041W        W29515  10.974   4.624   0.892  0.0932  0.0586  0.2046
13042W        W29516   7.291  17.915  14.761 -0.2298  0.0716  0.2177
13043W        W29517   4.673   8.896  14.354 -0.0410 -0.3842  0.0168
13044W        W29518   6.608  13.730  15.621 -0.0999  0.0971  0.0316
13045W        W29519   6.314   3.859  12.032  0.2075 -0.0193 -0.2035
13046W        W29520   9.464  14.627  11.269 -0.0012  0.1758 -0.1870
13047W        W29521   2.648  17.908   0.624 -0.4263 -0.1167 -0.1399
13048W        W29522   2.961  11.516   0.230 -0.2326 -0.0224 -0.0936
13049W        W29523  15.000   2.089   1.776 -0.0352  0.1528  0.1842
13050W        W29524  14.471   7.763  11.101  0.0526 -0.6101  0.0112
13051W        W29525  17.141  14.604  15.350 -0.1308 -0.1306 -0.0441
13052W        W29526   2.903   3.261   2.477  0.0657 -0.3020 -0.1255
13053W        W29527  10.992  10.722   2.152  0.0638 -0.3742 -0.1570
13054W        W29528  16.880   9.419  15.419  0.0823  0.0022 -0.2127
13055W        W29529  16.638   2.390  11.864  0.1896  0.0902 -0.4161
13056W        W29530  16.524  15.082   0.822  0.1316  0.2734 -0.2487
13057W        W29531   9.715   3.262   2.020  0.1228 -0.2336 -0.0556
13058W        W29532  11.086  12.586   1.891  0.1391 -0.1137  0.0003
13059W        W29533   8.735  12.746  14.868 -0.1286  0.1824  0.1867
13060W        W29534   4.287   7.888   2.219  0.1381  0.1519 -0.0521
13061W        W29535  17.092  12.606  11.359 -0.2102 -0.4208 -0.1976
13062W        W29536  11.323  14.620   3.948 -0.1070  0.2454 -0.3241
13063W        W29537  12.745  14.464  10.009  0.1791  0.1550 -0.3009
13064W        W29538   1.602  16.026  12.468  0.0148 -0.1139 -0.0548
13065W        W29539   2.134   6.460   0.404 -0.1720  0.0974  0.2598
13066W        W29540   2.903   1.872  14.258  0.3497 -0.2360 -0.3119
13067W        W29541   4.283  12.690  15.380  0.0686  0.0007 -0.0704
13068W        W29542  18.245  17.358  11.478 -0.1374  0.3392  0.0092
13069W        W29543   2.674  11.149   3.396  0.1690  0.1521  0.2468
13070W        W29544  14.794   4.944  15.298 -0.1134 -0.1109  0.0318
13071W        W29545  10.935  12.748   4.556  0.0383 -0.0023 -0.3401
13072W        W29546   4.935  14.722   4.130  0.0274  0.0905  0.1987
13073W        W29547  11.449   2.794  12.031  0.2826 -0.1246 -0.2698
13074W        W29548   0.136  14.064  10.629 -0.1411 -0.2753 -0.0289
13075W        W29549  11.331  12.717  12.624  0.0815 -0.3630 -0.1686
13076W        W29550   8.310  10.687  14.283 -0.0285 -0.1016  0.0131
13077W        W29551  13.517   3.850  13.042  0.1728  0.1455 -0.0220
13078W        W29552  10.780  10.646  13.097 -0.2108 -0.1559  0.0111
13079W        W29553   4.184  14.965   3.883  0.1455 -0.0067 -0.1314
13080W        W29554   6.918  11.433   2.958  0.0605 -0.0269  0.0092
13081W        W29555   6.384  15.732  15.419  0.0319  0.2102  0.2975
13082W        W29556   5.944  11.180   1.777  0.1799 -0.2753 -0.0484
13083W        W29557  16.916   5.103   2.741  0.0231  0.2640 -0.1519
13084W        W29558  18.579  17.018  12.235 -0.3599 -0.0917  0.1517
13085W        W29559   7.701   8.077  11.289  0.0279 -0.2108  0.0129
13086W        W29560  13.426  12.661  12.819  0.0888  0.0196  0.1685
13087W        W29561   7.282   8.830   0.470  0.3018 -0.0440 -0.1152
13088W        W29562  15.027  10.840  10.983  0.0545 -0.1141  0.0137
13089W        W29563   1.369   8.033   5.093  0.0101 -0.0909 -0.0797
13090W        W29564   7.018   7.209  14.880  0.2640 -0.3230 -0.2443
13091W        W29565   1.366  12.183  11.840  0.0336 -0.1379 -0.2205
13092W        W29566  15.858   0.968  14.432  0.0598  0.1390 -0.0603
13093W        W29567   4.153   5.470  12.720 -0.0692 -0.0220  0.2055
13094W        W29568  11.990   2.637   1.347  0.2608 -0.0450  0.0264
13095W        W29569  12.192  13.814  12.526 -0.2028  0.1828 -0.0810
13096W        W29570  13.452  15.344  11.212  0.0001  0.0919  0.0124
13097W        W29571  17.867   0.123   4.738  0.0879 -0.1289 -0.2221
13098W        W29572   0.304  12.955   1.826  0.3431  0.1836  0.1401
13099W        W29573  11.909   7.026   1.339 -0.1076  0.2328 -0.0010
13100W        W29574  10.494   6.463   3.490 -0.5748 -0.1151  0.1885
13101W        W29575   1.665   6.375   1.044  0.0098  0.1039 -0.0060
13102W        W29576   5.025   6.891  13.469  0.2234 -0.1667 -0.1021
13103W        W29577   4.321  13.581  12.331  0.0275 -0.0225 -0.0449
13104W        W29578  16.403  15.128   4.542  0.1948  0.0510  0.1457
13105W        W29579  15.713  15.926   5.212  0.2847  0.1550 -0.1686
13106W        W29580  12.963  12.316   3.064 -0.1005 -0.1872  0.1017
13107W        W29581   3.815  13.661  14.482  0.1500  0.0125 -0.1396
13108W        W29582   7.674   8.315  13.216 -0.2231 -0.3343  0.2640
13109W        W29583  12.567  15.099  14.073 -0.1109  0.0737 -0.3880
13110W        W29584  14.604   4.705  11.037  0.0850  0.1261 -0.0491
13111W        W29585   3.462   6.464  10.935 -0.0812  0.0457  0.4780
13112W        W29586  16.564  12.693   0.411 -0.4022  0.0672 -0.1462
13113W        W29587   8.297   6.606   1.054 -0.1841 -0.0827  0.0689
13114W        W29588   9.812  14.553  15.023  0.3572 -0.4410 -0.2999
13115W        W29589  10.946  11.792  12.431 -0.2011 -0.0597  0.4630
13116W        W29590   9.913  13.195  14.852 -0.2557 -0.0361  0.0305
13117W        W29591  11.817  14.706   2.473  0.2538 -0.1167  0.1389
13118W        W29592  16.228   2.247   0.776  0.3105  0.2671  0.0290
13119W        W29593   7.638   2.232   3.580 -0.0686  0.2077 -0.2455
13120W        W29594  13.309  17.850  14.251 -0.1065  0.1939 -0.0332
13121W        W29595   0.129  10.900  10.417 -0.0751 -0.2617 -0.3068
13122W        W29596  11.171   1.349   5.325 -0.2014 -0.0756 -0.1210
13123W        W29597   6.847   9.452   3.520  0.2239  0.0548 -0.2402
13124W        W29598  14.345   6.778   2.125 -0.2484  0.1695  0.2322
13125W        W29599   7.071   7.367   0.244  0.0928  0.1042  0.0301
13126W        W29600   0.969   3.031   0.664  0.0580  0.1618  0.0166
13127W        W29601   5.261  11.374   3.839 -0.1886 -0.3279  0.0191
13128W        W29602  17.050   7.996   5.143  0.1713  0.0592  0.1000
13129W        W29603   2.070  12.274   2.268  0.1884  0.0281 -0.0124
13130W        W29604  15.491   2.837  13.929 -0.2662 -0.0835  0.2845
13131W        W29605  14.186  10.772   0.396  0.0604  0.2301 -0.1280
13132W        W29606   4.330   2.578   3.348 -0.1520 -0.1990 -0.2148
13133W        W29607   0.281   0.945   2.077 -0.2241  0.1002 -0.2125
13134W        W29608  13.128  15.362  12.854 -0.2178  0.0243 -0.4695
13135W        W29609  16.852   5.660   9.832 -0.0727 -0.0112 -0.2122
13136W        W29610  14.749   2.821  12.221  0.2707  0.1585 -0.1400
13137W        W29611  10.481   7.907  12.308  0.0449 -0.1338 -0.1290
13138W        W29612  12.696   0.814   0.962 -0.0968 -0.5221  0.1585
13139W        W29613  16.282  14.293  14.945 -0.0780  0.1284  0.1849
13140W        W29614  14.810  15.704   3.871 -0.0698 -0.3766 -0.0532
13141W        W29615   5.340   6.357   2.411 -0.2921 -0.2131 -0.3687
13142W        W29616   5.601   2.371   0.156 -0.0262  0.0400 -0.1821
13143W        W29617   5.869   8.494   2.840 -0.0872  0.1707  0.1738
13144W        W29618  10.598  14.439   0.979  0.1768 -0.0482 -0.1297
13145W        W29619   8.871   5.578  10.587  0.1274 -0.1649 -0.2940
13146W        W29620  12.255  12.399   5.445  0.1383  0.0973  0.1209
13147W        W29621   8.049  11.093   2.084  0.2579 -0.3280 -0.0006
13148W        W29622   7.909  14.973  13.867 -0.0851 -0.1992 -0.0064
13149W        W29623  12.878   5.088   0.968 -0.0885  0.0066 -0.2918
13150W        W29624   3.745   9.311   1.564  0.2334  0.2674 -0.0461
13151W        W29625   0.057  13.233  15.630 -0.3488 -0.0033 -0.3690
13152W        W29626  12.588  12.033  14.896 -0.2295  0.1194 -0.1300
13153W        W29627   1.749   7.163  13.242 -0.1428 -0.2304  0.1736
13154W        W29628   9.249   5.963   3.002 -0.1251  0.1332 -0.1068
13155W        W29629   1.899  11.997   0.631  0.4698 -0.0487  0.0684
13156W        W29630   6.719   4.640   1.339 -0.0790  0.0774 -0.3695
13157W        W29631  18.836  10.755  14.470 -0.3075 -0.0026 -0.1119
13158W        W29632   7.259  16.136   2.447 -0.2323  0.2057 -0.2111
13159W        W29633  11.288  11.500  13.621  0.0664 -0.2473 -0.1175
13160W        W29634   0.526  11.328   0.503  0.0939 -0.0529 -0.3021
13161W        W29635  14.885  18.284  10.637 -0.0161 -0.0587  0.0896
13162W        W29636  13.105  11.486  14.257  0.2318 -0.0079  0.1003
13163W        W29637  16.498   0.089   0.995  0.0377  0.0959  0.2483
13164W        W29638  17.261   6.320  11.030  0.1444 -0.2555  0.0618
13165W        W29639   3.055  17.381   3.219  0.1915  0.2136  0.2613
13166W        W29640   9.421  14.253   4.843 -0.2300 -0.0337  0.2135
13167W        W29641   5.644   0.946  13.059 -0.0430  0.2777 -0.0386
13168W        W29642   4.136   9.021   1.961  0.0301  0.2684 -0.0173
13169W        W29643  12.240   0.481   1.942  0.2552  0.0273  0.0968
13170W        W29644  17.719  16.609  13.264  0.1413  0.0324  0.4203
13171W        W29645  14.156  18.297  13.872  0.3194 -0.1309 -0.0754
13172W        W29646   3.725   2.064   1.821  0.3700  0.0837 -0.0058
13173W        W29647   5.030  12.994   3.425  0.0396 -0.0269  0.0087
13174W        W29648  12.594  18.376   1.257 -0.1071 -0.0259 -0.0208
13175W        W29649  13.410  17.081   4.204 -0.3327  0.1394  0.2193
13176W        W29650  12.995  13.525   4.803 -0.0321 -0.2249  0.2920
13177W        W29651  11.482  14.002   1.955  0.1821 -0.3460  0.1718
13178W        W29652   3.069   1.798  14.931 -0.1168 -0.0159  0.0073
13179W        W29653   1.750  15.946   3.881  0.1730 -0.0135  0.0651
13180W        W29654   3.363  16.726   4.475 -0.4648  0.1164  0.1854
13181W        W29655  12.586   2.699   0.398  0.3906 -0.1253  0.4012
13182W        W29656   6.707  17.127  12.729 -0.1423 -0.0474  0.0531
13183W        W29657   7.240   4.205  14.014 -0.2499 -0.0294  0.1134
13184W        W29658  15.611   4.101   2.633  0.1124 -0.3287  0.1632
13185W        W29659  12.704   7.612   1.774  0.0431 -0.0205 -0.1730
13186W        W29660  10.810  14.909   3.289 -0.5298  0.3263  0.3967
13187W        W29661  10.404  16.494   5.005 -0.0446  0.1203  0.1565
13188W        W29662  14.707   2.390  14.781 -0.3659  0.2175  0.1242
13189W        W29663   4.122  13.556  12.805 -0.0802  0.0627 -0.0914
13190W        W29664   3.103  10.587  15.299  0.0406 -0.1702  0.1820
13191W        W29665  11.840  18.065  11.586  0.3054 -0.1060 -0.1325
13192W        W29666  11.310   0.232   1.553 -0.0395 -0.0337  0.2833
13193W        W29667  15.540   2.820   0.087  0.1693 -0.1205  0.0330
13194W        W29668   3.150   6.657   5.810 -0.1175 -0.3471 -0.1466
13195W        W29669  10.408  13.402   0.125 -0.3026 -0.0847 -0.0252
13196W        W29670  15.477  15.359  13.693  0.1208  0.0860  0.2155
13197W        W29671  16.997  14.306   2.327  0.0500 -0.1503 -0.0880
13198W        W29672  13.767  12.720   1.934 -0.1912  0.1109  0.2779
13199W        W29673   6.720   9.251   5.256  0.0738  0.2915  0.1397
13200W        W29674   4.401   5.633   0.641  0.0134  0.2327  0.5735
13201W        W29675   5.332  10.408  15.574  0.3784 -0.0757  0.3552
13202W        W29676   6.957   0.313  10.639  0.0216 -0.0008 -0.0945
13203W        W29677   1.636  11.067   3.296 -0.0596  0.2565 -0.1730
13204W        W29678   9.763  17.761   1.507  0.0438  0.2775  0.0641
13205W        W29679  12.276   0.962   3.699  0.0419  0.1375 -0.1060
13206W        W29680   7.717   7.067   4.619  0.0271 -0.1866  0.1377
13207W        W29681  15.608   9.439  11.328 -0.1799 -0.2339  0.0434
13208W        W29682  18.352   5.731  15.444 -0.1447  0.1576 -0.1248
13209W        W29683  13.688   9.731   3.869 -0.0843  0.3310  0.2895
13210W        W29684  10.920   5.810   2.589  0.0635 -0.0962  0.0428
13211W        W29685   5.430  17.391  12.645  0.0709 -0.0299  0.0635
13212W        W29686   1.053   1.161   2.001 -0.0502  0.1790  0.2314
13213W        W29687   7.830  13.016   0.444  0.0359 -0.2615 -0.1068
13214W        W29688   7.805   6.761  12.672 -0.0410 -0.4171  0.0353
13215W        W29689   7.845   5.163   0.925 -0.3266 -0.1816  0.1684
13216W        W29690   1.691  16.494   4.925  0.0874  0.0222  0.0422
13217W        W29691   9.848   7.649   2.383  0.1143 -0.0349 -0.0145
13218W        W29692   7.953  11.956  11.934  0.0528  0.1381 -0.1580
13219W        W29693  11.010   2.233  13.713  0.2630  0.0081  0.0926
13220W        W29694   9.682   8.611   3.940  0.0334 -0.0292 -0.1965
13221W        W29695   7.804   9.337   4.909 -0.1358 -0.2259 -0.1214
13222W        W29696   4.052   2.943   5.548 -0.3405  0.3504 -0.1253
13223W        W29697  15.163   7.892   0.226 -0.1997  0.3663  0.3935
13224W        W29698  12.267  10.239   1.384 -0.1106  0.2854 -0.2044
13225W        W29699   4.180   7.065   4.572  0.2263 -0.0016  0.0600
13226W        W29700   4.483   6.703   0.841  0.3325  0.0786  0.3399
13227W        W29701   0.090   7.487   4.858  0.1332  0.1854 -0.1385
13228W        W29702  17.567   6.155   0.878 -0.0210 -0.0003 -0.2517
13229W        W29703   2.281   6.970   4.006 -0.0944  0.0461  0.3333
13230W        W29704  18.090   2.763  11.567 -0.0954 -0.2108 -0.2489
13231W        W29705  15.927  13.772   0.548 -0.1261 -0.2325 -0.0635
13232W        W29706   1.350   6.741   9.898 -0.2738  0.3071  0.0601
13233W        W29707   0.816  13.958  10.307  0.2632 -0.1311 -0.1875
13234W        W29708  18.270  15.724   3.383  0.0605  0.4428 -0.2156
13235W        W29709   0.929  11.116   4.846  0.0232  0.0961  0.0683
13236W        W29710   3.694   2.356   0.775 -0.1822  0.1149 -0.0855
13237W        W29711  13.029  11.079  12.411  0.1941  0.1442 -0.0276
13238W        W29712   2.116   9.913   3.359  0.1811 -0.0557  0.0984
13239W        W29713  18.657  13.196  14.006  0.1729  0.3380 -0.4223
13240W        W29714  18.580   0.673  11.373 -0.1693 -0.0970 -0.1746
13241W        W29715  17.352  11.687   0.948 -0.1807 -0.2077  0.3069
13242W        W29716  10.765   4.881   1.683 -0.0213 -0.1916  0.1515
13243W        W29717  16.296  14.648  14.212 -0.2328  0.1300  0.1466
13244W        W29718  17.179  18.417   4.806 -0.2322 -0.3877  0.0794
13245W        W29719  13.256   7.699  14.702 -0.2718 -0.5772 -0.0356
13246W        W29720  14.746  13.746  13.356 -0.0824 -0.0432 -0.1382
13247W        W29721  11.587   9.094   3.582 -0.3379  0.3895  0.0468
13248W        W29722  11.438  18.768   4.142  0.0192  0.1974  0.1410
13249W        W29723   3.700  11.357   3.491  0.4358  0.0064 -0.0356
13250W        W29724   8.988  16.367   2.238 -0.1639  0.0198  0.0208
13251W        W29725  13.890   6.973  13.976  0.1768  0.1294  0.2010
13252W        W29726  11.653   5.609  14.393 -0.2390  0.0231  0.2123
13253W        W29727  13.233   6.573   0.289 -0.0698 -0.0380 -0.0330
13254W        W29728  10.245  17.396   4.920  0.1352  0.2617 -0.4723
13255W        W29729  11.385  17.577   4.890  0.2402 -0.3100 -0.5413
13256W        W29730  10.742   2.625  13.876 -0.2297 -0.1845 -0.1410
13257W        W29731  13.629   3.398  13.797 -0.3116 -0.3165  0.0482
13258W        W29732  17.107  17.421   4.685 -0.1115  0.1629 -0.2121
13259W        W29733   8.742  12.501   4.596  0.2217 -0.3238  0.2885
13260W        W29734  17.053  16.549   2.785  0.1044  0.0764  0.0471
13261W        W29735   3.234   0.280  11.968 -0.2872 -0.1330 -0.4392
13262W        W29736   8.426  10.559   1.830 -0.2159 -0.0600  0.1875
13263W        W29737   5.415   9.768   5.131 -0.1783  0.2470  0.0401
13264W        W29738   3.951   0.769   3.816  0.1736  0.2152  0.2262
13265W        W29739  13.071   1.496   3.186  0.0042 -0.3285  0.0867
13266W        W29740  15.814   6.760  13.406 -0.0207 -0.0533 -0.1379
13267W        W29741   9.741  18.294   0.687  0.1696  0.0983  0.0167
13268W        W29742   0.998  12.478   3.233 -0.0038 -0.0430  0.0607
13269W        W29743   6.829  16.896   2.089  0.0583  0.1124  0.1966
13270W        W29744  13.577  15.204  15.587  0.1138  0.1391  0.3522
13271W        W29745   7.080   9.321   5.654  0.1197 -0.2631 -0.1993
13272W        W29746  16.274   7.837   5.780 -0.2946  0.4143  0.0253
13273W        W29747   9.778   0.740  10.062 -0.0948  0.1814  0.1456
13274W        W29748   7.253   1.486  13.109 -0.3222  0.0691 -0.2223
13275W        W29749  18.058   4.725   3.908 -0.0050  0.3012 -0.1403
13276W        W29750   4.165   6.934  11.646 -0.0624  0.1637 -0.1515
13277W        W29751  17.282  10.075   0.132  0.0222 -0.0749 -0.1072
13278W        W29752  16.567  18.322   3.089 -0.0581  0.1807  0.1576
13279W        W29753   9.037  17.766   3.606  0.0589  0.0268 -0.0479
13280W        W29754   4.322  14.495   3.557  0.2129  0.1781 -0.0532
13281W        W29755  12.870   5.865   0.974  0.1398 -0.1522  0.0556
13282W        W29756   5.976   9.323   4.214 -0.0405  0.0042  0.3310
13283W        W29757   2.155  10.966   5.179 -0.0296 -0.0150  0.1087
13284W        W29758  13.043  14.945  14.195  0.1335  0.0086 -0.2875
13285W        W29759  14.052   7.658   1.083  0.0234  0.1796 -0.0604
13286W        W29760  13.223  13.090   0.420 -0.3404 -0.0721  0.4377
13287W        W29761   9.488   4.590  15.599  0.1576  0.1347 -0.1570
13288W        W29762   7.564  12.227  12.852  0.0441 -0.1516 -0.1290
13289W        W29763   5.487  13.143   4.291 -0.0554 -0.0333 -0.1431
13290W        W29764   0.759  14.139  13.549 -0.0800  0.0947 -0.0227
13291W        W29765   8.905  17.904  15.543  0.1411 -0.0442 -0.1405
13292W        W29766  11.014   7.634  13.883  0.1718 -0.4268  0.1555
13293W        W29767  11.695   1.758  15.683  0.2022  0.0855  0.3043
13294W        W29768  11.214  11.600   3.830 -0.1584  0.0462  0.2085
13295W        W29769  10.250   0.754   3.966  0.0861 -0.1200 -0.0738
13296W        W29770  16.806   0.076  14.462  0.1179 -0.1222 -0.1053
13297W        W29771   1.730  11.536  14.603 -0.0726 -0.1461 -0.1662
13298W        W29772  11.992   7.433   2.126 -0.3233 -0.3992 -0.0767
13299W        W29773  13.933   9.004  11.199 -0.3751 -0.1165  0.2044
13300W        W29774  18.473  17.231   2.331  0.1909  0.1286 -0.0096
13301W        W29775   5.523  12.336  14.264 -0.0471  0.0176  0.0015
13302W        W29776  10.746   0.872   6.010 -0.1643 -0.0381 -0.2576
13303W        W29777   0.319   1.152   2.539  0.0892 -0.2201 -0.0074
13304W        W29778   6.116  11.899  15.386  0.2819 -0.2212 -0.0961
13305W        W29779  18.317   4.076   5.416  0.3487 -0.1071  0.0195
13306W        W29780  11.297   7.967   3.242  0.3477 -0.3569  0.0100
13307W        W29781   6.824  14.726  11.750  0.1587  0.3675  0.1777
13308W        W29782  10.391   9.315   0.750  0.1851 -0.1932  0.2984
13309W        W29783  10.535  15.361   3.208  0.2154 -0.1064 -0.1529
13310W        W29784  13.656   8.706  15.032 -0.1087  0.4481 -0.0758
13311W        W29785   6.312  17.085  15.613  0.0208 -0.0244 -0.1013
13312W        W29786  18.770  16.514  11.231  0.1850  0.1816  0.0922
13313W        W29787   4.664  10.103  12.556 -0.2583  0.0300  0.5166
13314W        W29788  16.371   7.343  14.145  0.3135 -0.0796 -0.1595
13315W        W29789  18.295  10.079   3.639 -0.3162  0.1173 -0.2614
13316W        W29790  13.684   1.926   2.802 -0.1757  0.2714  0.2906
13317W        W29791  15.891   4.399   3.952 -0.0112  0.1058 -0.2142
13318W        W29792   9.702   7.592   5.942 -0.1333 -0.0997 -0.2226
13319W        W29793   3.956  14.154   2.904  0.1744 -0.1467 -0.1029
13320W        W29794  18.231  14.073  11.237  0.2054  0.3520  0.0387
13321W        W29795   6.780   6.744   1.983 -0.0216 -0.1568  0.1378
13322W        W29796  18.829   2.099   5.046  0.0593 -0.1967 -0.0957
13323W        W29797  15.691  17.884   4.655 -0.2699 -0.0339  0.1333
13324W        W29798   3.022   0.721   2.441  0.1327 -0.1315 -0.0065
13325W        W29799  12.397  15.805   1.417 -0.1519  0.2812  0.0629
13326W        W29800   3.017  18.744   2.752 -0.0832 -0.1937  0.0708
13327W        W29801  15.282   2.953  11.444  0.0971 -0.2549 -0.2060
13328W        W29802   6.232   7.707  11.062  0.0355 -0.0970 -0.1199
13329W        W29803  15.416  13.424   5.715  0.0211 -0.1123  0.1467
13330W        W29804   6.210  12.881  14.583 -0.0317 -0.0874  0.4861
13331W        W29805   9.291  15.692  12.110  0.2353 -0.2785  0.0534
13332W        W29806  12.488  16.486  12.249 -0.1950 -0.1076 -0.0355
13333W        W29807  15.165  17.288   4.208 -0.1977 -0.2263  0.2954
13334W        W29808   2.565  17.224  14.688  0.1108  0.0604  0.0190
13335W        W29809   0.917   6.580  10.678 -0.0310 -0.1601 -0.1782
13336W        W29810   9.378   4.060  15.320  0.3643 -0.3250  0.1368
13337W        W29811   7.223   5.536  15.643  0.0038  0.2554 -0.1222
13338W        W29812   9.162  12.503   0.423 -0.4394 -0.3690 -0.0135
13339W        W29813   0.955  10.224  13.076  0.0069 -0.0413 -0.0079
13340W        W29814   5.808  10.346   2.205 -0.2567  0.1447 -0.3400
13341W        W29815  13.688   4.523  10.937  0.2393 -0.0644 -0.1597
13342W        W29816   2.030   4.800   0.267 -0.1683 -0.1475  0.1598
13343W        W29817  11.496   6.519   0.681  0.0749  0.0004 -0.3544
13344W        W29818   9.438   0.335   1.149  0.2073  0.3166  0.1281
13345W        W29819   9.958   6.980   0.952 -0.4276  0.0052  0.0026
13346W        W29820  13.482   9.476  14.466 -0.0337  0.3175 -0.2758
13347W        W29821   6.868   0.015   0.149 -0.0636  0.0426  0.2435
13348W        W29822   3.478   7.913  13.788 -0.0300 -0.3264 -0.2346
13349W        W29823  11.800   6.145  10.554  0.1279 -0.0976  0.1780
13350W        W29824  15.614  13.924   0.194  0.3214 -0.1130 -0.1966
13351W        W29825   6.871  12.115  14.186 -0.1285 -0.0603  0.1494
13352W        W29826   2.459  11.733  12.393 -0.2976  0.1668 -0.0039
13353W        W29827  16.314  18.842   0.177  0.1937  0.0562 -0.2126
13354W        W29828   1.234   6.315   0.239 -0.0214 -0.2718 -0.3074
13355W        W29829  18.153  10.783  11.671  0.1697  0.0521  0.0727
13356W        W29830   2.802  12.766   2.766 -0.1091 -0.0010 -0.1803
13357W        W29831   3.950   8.227   0.460  0.2785  0.1862  0.1696
13358W        W29832  14.433   8.455   1.644  0.2993 -0.1672  0.0928
13359W        W29833  10.829   3.026   2.295 -0.1220 -0.1158  0.1195
13360W        W29834  13.039  10.257  13.902 -0.0828  0.2484 -0.1197
13361W        W29835   5.671   1.243   1.247 -0.0008  0.1356  0.0798
13362W        W29836   1.196   7.799   2.789  0.2238  0.0289 -0.0597
13363W        W29837   1.652   6.733  15.172  0.3104  0.1342  0.5064
13364W        W29838   9.348   2.133  14.369 -0.3364  0.0564 -0.2825
13365W        W29839  15.446   4.832   1.713  0.0321 -0.2864 -0.4506
13366W        W29840  11.175   7.869  11.671 -0.1067  0.3306 -0.1413
13367W        W29841   6.282   4.852   3.742  0.1117 -0.1630 -0.1217
13368W        W29842   4.969  13.554   0.035 -0.0153 -0.0845  0.5098
13369W        W29843   6.886  15.177  11.992 -0.2317 -0.1880  0.1787
13370W        W29844  16.682  13.683   3.317 -0.0624  0.0189  0.2476
13371W        W29845   6.852  12.429   3.487  0.0522 -0.0420 -0.6483
13372W        W29846  13.169  11.990   2.707  0.0733 -0.3151 -0.4279
13373W        W29847   9.594   7.157  14.474  0.1589 -0.3094  0.2395
13374W        W29848  11.508  18.363  12.708 -0.1569 -0.0427 -0.2219
13375W        W29849  17.090   2.556  11.554  0.3206  0.2061 -0.0577
13376W        W29850  18.407   2.799   0.667 -0.2295  0.3149 -0.1192
13377W        W29851   2.549   3.966   1.435  0.0381 -0.0167 -0.1873
13378W        W29852  16.745   0.196   9.993 -0.2611 -0.2094  0.4860
13379W        W29853  17.790   2.031   0.173  0.2151 -0.1005  0.1145
13380W        W29854  17.222  14.985   2.931 -0.0097 -0.0869 -0.1656
13381W        W29855   4.382  12.482  11.529 -0.0971  0.3412  0.0140
13382W        W29856  10.299  14.526  15.191 -0.0616  0.3068  0.0055
13383W        W29857   3.813   7.604   2.770  0.0216  0.0877  0.0537
13384W        W29858  10.585  13.044  13.804 -0.0587  0.1408  0.0132
13385W        W29859   0.300   3.460  10.364 -0.1599  0.1641 -0.0709
13386W        W29860  16.576   4.701   0.527 -0.1308  0.0443 -0.4189
13387W        W29861   6.445  13.817   4.327 -0.2480  0.2013  0.1367
13388W        W29862   8.409  14.516  14.811  0.1641  0.2398  0.1602
13389W        W29863  14.063  18.277   4.774 -0.0645 -0.1790  0.0406
13390W        W29864   1.015   0.712  14.449  0.2183  0.1647  0.2391
13391W        W29865   9.646  13.729   1.996  0.4233 -0.0321 -0.0518
13392W        W29866  17.341  13.506  11.033 -0.0658 -0.2264  0.0102
13393W        W29867   0.913  10.570   3.202 -0.3421  0.2104  0.1725
13394W        W29868   4.377  15.345   0.725 -0.0478 -0.1650 -0.1134
13395W        W29869  11.706  14.502  12.405  0.2020  0.1023 -0.0922
13396W        W29870   5.222  17.626   2.270  0.1074 -0.2325  0.0025
13397W        W29871   2.394   9.859  12.892  0.0679 -0.1064 -0.0737
13398W        W29872  10.250   1.927  12.932  0.1528  0.1858  0.2496
13399W        W29873   6.121   2.656   2.280 -0.0936  0.0898  0.0106
13400W        W29874   0.189   2.886   4.696 -0.1394  0.0102  0.0679
13401W        W29875   5.238   7.205  13.845 -0.0767 -0.2315  0.0300
13402W        W29876   2.025   4.560   0.686 -0.4128  0.0246  0.0839
13403W        W29877   8.461   8.240   6.288  0.3308 -0.0287  0.2525
13404W        W29878   7.240  16.595  14.938 -0.0233 -0.2176 -0.1713
13405W        W29879  17.651  12.454   1.017 -0.2886  0.0862 -0.3444
13406W        W29880   5.659   0.560   3.248 -0.1613  0.2346 -0.3556
13407W        W29881   1.602   8.302  14.403 -0.1028 -0.3689 -0.3886
13408W        W29882   2.295   6.027   5.084 -0.0225  0.2898  0.4399
13409W        W29883   3.576   0.454  12.449 -0.0966  0.0364  0.1905
13410W        W29884   5.887   6.456   1.650  0.0098 -0.1836 -0.2303
13411W        W29885   0.646   0.932   3.905 -0.2090  0.0277  0.0775
13412W        W29886   0.818  16.382  12.841  0.0121 -0.0093  0.0240
13413W        W29887  15.637  12.852  15.062  0.0050 -0.0897 -0.2898
13414W        W29888   9.105  17.924   2.613 -0.2622  0.0274  0.0284
13415W        W29889  11.271   6.883  14.928 -0.1898 -0.0040 -0.2653
13416W        W29890  10.417   4.316  11.687 -0.0140  0.3359  0.1450
13417W        W29891   3.771  15.043  13.178  0.0846  0.3152 -0.1945
13418W        W29892   7.202   5.764   4.471 -0.1108 -0.0136  0.2318
13419W        W29893  10.588   8.084   0.306 -0.0445 -0.3157  0.0593
13420W        W29894   1.687   1.813   1.990 -0.1971  0.0948 -0.0988
13421W        W29895  13.117   0.755  14.541 -0.3770 -0.1234  0.3682
13422W        W29896   9.648   9.596  14.434 -0.1377  0.1567 -0.0959
13423W        W29897   0.380  13.499   1.672 -0.4204 -0.2504  0.1788
13424W        W29898  13.543   4.556  13.740 -0.1408  0.2143  0.2060
13425W        W29899  14.168   6.854   2.604 -0.1407 -0.2330 -0.0621
13426W        W29900  16.349  17.814   3.470  0.3697  0.2658  0.4814
13427W        W29901   1.350   7.502  14.853 -0.1184  0.2125  0.1834
13428W        W29902  13.623  14.884   4.041  0.0751  0.0107 -0.2154
13429W        W29903  15.431  11.140   4.672  0.3047 -0.1525  0.1735
13430W        W29904   0.153   6.943   4.584 -0.2912 -0.0541 -0.1521
13431W        W29905  16.093  11.880  14.335 -0.3332  0.0029 -0.3909
13432W        W29906  16.917  11.172   3.087 -0.0806  0.2262 -0.1726
13433W        W29907  11.822  12.813  15.400  0.1375  0.1014  0.1103
13434W        W29908   3.622  17.957  12.441  0.0547  0.0663 -0.3852
13435W        W29909  12.901  12.852  14.777  0.0308  0.2504 -0.0558
13436W        W29910  17.488  15.400   1.371 -0.1027 -0.0549  0.0651
13437W        W29911  10.502   3.016   4.961 -0.1053  0.0272  0.1329
13438W        W29912   5.634  14.263   1.548  0.0775 -0.0518  0.1405
13439W        W29913   4.258   7.982   3.566  0.1227 -0.0008  0.2118
13440W        W29914   9.195  15.219  12.067 -0.0860  0.0938 -0.0061
13441W        W29915  17.528   2.132   1.082  0.2163 -0.1588  0.0995
13442W        W29916   6.232  12.618  11.488  0.2232 -0.2567 -0.0125
13443W        W29917  11.263   1.051  11.673 -0.3533  0.3069 -0.0088
13444W        W29918   9.354   8.729   5.138  0.0665 -0.2397 -0.0756
13445W        W29919  14.527   9.269   0.154 -0.0044  0.1234  0.0974
13446W        W29920   9.352  17.878  14.836 -0.1822 -0.2370  0.0625
13447W        W29921   4.861  14.990   1.510 -0.1855 -0.0228 -0.0160
13448W        W29922  14.334  15.302  15.077 -0.0872 -0.1534  0.1224
13449W        W29923  12.937   6.977   4.181 -0.2620  0.2483  0.0344
13450W        W29924   3.530   5.128  10.667  0.0811 -0.2857  0.1407
13451W        W29925   1.601   4.817   1.015 -0.0117  0.0411  0.1140
13452W        W29926  15.311  14.428  12.374 -0.4518  0.5359  0.0028
13453W        W29927   9.332  11.903   0.597 -0.2031  0.3437 -0.3274
13454W        W29928  12.233  16.075   0.141  0.3256 -0.3722  0.2186
13455W        W29929   1.265   8.990   1.944  0.1218  0.0437 -0.0864
13456W        W29930  17.691   7.372   2.972  0.3195 -0.3149  0.2907
13457W        W29931   7.315  18.468   2.721  0.2225 -0.0150  0.1506
13458W        W29932  10.022  17.776   1.035  0.0884 -0.1128 -0.2378
13459W        W29933  18.458   7.511   5.080  0.0110  0.1527  0.0316
13460W        W29934  13.937  13.817  12.966  0.3003 -0.0751  0.0874
13461W        W29935  16.285   1.050  15.112 -0.2049 -0.3758  0.2328
13462W        W29936   0.826  17.945  11.969  0.2676 -0.1062 -0.1314
13463W        W29937  17.997   5.336  14.560  0.2384 -0.0560  0.0757
13464W        W29938  11.681  13.727  14.468  0.2729 -0.0627 -0.0804
13465W        W29939  11.874   0.691   1.538 -0.2176 -0.3720 -0.1405
13466W        W29940   5.195  14.964   3.778 -0.2031 -0.2908 -0.0231
13467W        W29941  16.982   3.272   4.147  0.1177 -0.0815 -0.2528
13468W        W29942  12.515  14.150   5.296  0.0899  0.2307 -0.1888
13469W        W29943   9.366  13.343   1.780 -0.1198 -0.0333  0.0468
13470W        W29944   6.644   7.626  14.734 -0.2020  0.1246  0.2120
13471W        W29945  15.506  16.631   1.635 -0.0251 -0.3156 -0.1190
13472W        W29946  16.515   5.025   1.794 -0.3317  0.0559  0.3899
13473W        W29947  15.775   8.995  13.051  0.0156  0.0732  0.1391
13474W        W29948  16.273   3.905   1.546 -0.0658 -0.0698 -0.1335
13475W        W29949   3.894  17.471   1.719  0.2333 -0.1197 -0.0047
13476W        W29950  12.929   8.305   0.701  0.2831  0.0787 -0.0774
13477W        W29951  16.260   3.431   0.506 -0.0429 -0.1942 -0.2672
13478W        W29952   0.844   5.787  13.743  0.4017  0.0981  0.2481
13479W        W29953   0.498   7.314  12.917  0.2765 -0.0161 -0.1374
13480W        W29954   2.841   8.050  14.557  0.2657 -0.0081 -0.1045
13481W        W29955  10.361  13.176   0.588  0.0131 -0.0772  0.0482
13482W        W29956  15.393   2.880   1.996 -0.1813  0.1225 -0.1259
13483W        W29957   7.793  11.791   2.729  0.3967  0.3329  0.0225
13484W        W29958   3.785   4.927   4.534  0.1261  0.2265  0.0107
13485W        W29959   3.385  10.525   4.932  0.0622  0.0130  0.1640
13486W        W29960   5.672  16.552  14.008  0.0147 -0.2538 -0.1154
13487W        W29961  14.961   4.509  12.771 -0.0424  0.0254 -0.1403
13488W        W29962  10.007   6.969   1.488 -0.3781 -0.2477  0.1023
13489W        W29963  11.648  10.422  13.325  0.0766  0.2504 -0.0641
13490W        W29964  13.874   1.056   2.686  0.1126 -0.2564  0.0355
13491W        W29965   3.573   7.973   4.610  0.1756 -0.1060  0.2224
13492W        W29966   0.068  15.976  14.501 -0.1546  0.0095  0.2549
13493W        W29967   4.148  16.128   5.943  0.0253  0.1655 -0.2119
13494W        W29968  12.579  12.497   0.045 -0.0543 -0.0085  0.1495
13495W        W29969   5.520   6.697  13.736  0.0956  0.1274 -0.1641
13496W        W29970  18.245   8.869   1.028 -0.0744  0.2606 -0.1259
13497W        W29971  10.647   6.785   6.667 -0.1262 -0.0676 -0.0138
13498W        W29972  10.619   1.345  11.815  0.1561  0.3265 -0.0184
13499W        W29973  12.733   0.770   1.884  0.0956  0.1462 -0.2239
13500W        W29974  10.843   0.220  15.085  0.0915 -0.1675 -0.1548
13501W        W29975   9.981   6.724   4.349  0.0652  0.1166 -0.0339
13502W        W29976   9.162   3.342  11.845 -0.1811  0.0329 -0.2747
13503W        W29977  14.500  12.069  13.017  0.2490  0.1740  0.2064
13504W        W29978  14.605  11.948   4.817 -0.1621  0.3878  0.1108
13505W        W29979  18.268   6.117   0.206 -0.0113  0.0278  0.2100
13506W        W29980  15.099   8.470   5.713  0.0687 -0.1349  0.0013
13507W        W29981  12.870   1.309   4.145 -0.3136 -0.1764 -0.0135
13508W        W29982  16.801  13.529   2.269  0.1344  0.3050 -0.5340
13509W        W29983   1.571  17.671  15.338 -0.4305  0.2157 -0.2749
13510W        W29984  12.436   5.068   6.024 -0.2109 -0.1775 -0.1751
13511W        W29985  15.680   7.093   2.363 -0.1187 -0.2898  0.1444
13512W        W29986  15.722  11.674   1.652  0.1480  0.1841  0.4731
13513W        W29987  14.972   1.461  13.274  0.0176  0.1127  0.2601
13514W        W29988  12.709   8.183   1.339  0.1458  0.1350  0.2306
13515W        W29989   2.209   2.347  12.274 -0.4928  0.1427  0.0791
13516W        W29990   0.742  15.413  15.138  0.2943 -0.0901  0.3210
13517W        W29991   0.523   8.790   2.113 -0.0129  0.2833  0.0458
13518W        W29992  13.456   1.674  11.329  0.0477  0.1269 -0.1012
13519W        W29993  13.923   4.131   1.730 -0.2293  0.0611  0.0437
13520W        W29994   5.440   6.190   3.798 -0.2076 -0.2387 -0.1750
13521W        W29995   4.636  15.494   3.392  0.0988  0.0286 -0.1643
13522W        W29996  11.530   3.361   0.978  0.0862 -0.0547  0.3293
13523W        W29997  14.715   7.263   3.888  0.0978 -0.3204  0.1729
13524W        W29998  11.387  15.958   3.865 -0.0025 -0.1507  0.1509
13525W        W29999  15.508   9.355   4.942  0.3569 -0.3090 -0.1048
13526W        W30000   1.438   3.140   3.715 -0.2721  0.2068  0.0362
13527W        W30001  15.390  12.839   4.047  0.1627  0.3497  0.0664
13528W        W30002   9.260  17.029  11.301  0.0508  0.1438  0.0564
13529W        W30003   3.858  10.414  14.091  0.1236  0.0116  0.1706
13530W        W30004   9.373  15.232   0.943 -0.0508  0.0771  0.0142
13531W        W30005  15.903  12.294  14.982  0.0236 -0.1232  0.0671
13532W        W30006   9.097   8.351   5.469  0.1585  0.0630 -0.1831
13533W        W30007   6.868   0.543  14.127 -0.1186 -0.0568  0.4216
13534W        W30008  17.834  13.863   2.767 -0.1082 -0.2864 -0.0667
13535W        W30009   6.979  12.420  10.109 -0.0688 -0.1255  0.1162
13536W        W30010  18.717   7.716  12.597 -0.0173  0.1256 -0.1803
13537W        W30011  13.123  16.771   2.856 -0.1431  0.0846  0.1160
13538W        W30012   3.662  10.876   5.151 -0.1602 -0.1070  0.1473
13539W        W30013  12.560  13.034   3.817 -0.0409  0.0425 -0.0281
13540W        W30014  17.178  12.615   0.596  0.2494 -0.2125 -0.2206
13541W        W30015  13.286   2.392  12.987  0.1384  0.3477 -0.0645
13542W        W30016  15.345   9.695  12.616  0.0651  0.0606 -0.1869
13543W        W30017   0.055   5.362  13.732 -0.1087  0.0395  0.3180
13544W        W30018  16.993   2.042   0.398  0.0850 -0.0572  0.3610
13545W        W30019  14.549   2.959  10.428  0.1584 -0.0593 -0.2875
13546W        W30020   0.829  11.377   1.680  0.2717 -0.1551 -0.1000
13547W        W30021   8.529   6.157  13.126 -0.1312 -0.2834  0.0585
13548W        W30022  10.802   0.556   1.932 -0.0565  0.1049  0.0688
13549W        W30023   2.919   0.987  10.020 -0.2768  0.0182  0.1432
13550W        W30024  11.721  14.084  12.667 -0.0152 -0.2542 -0.0334
13551W        W30025   5.348   6.526   4.201 -0.0766  0.1265  0.1845
13552W        W30026  16.944  18.188   3.991  0.4100  0.0071  0.1319
13553W        W30027   2.785  16.824   4.457 -0.2014 -0.1641 -0.1511
13554W        W30028   4.477   3.607  12.789  0.1300  0.1960 -0.0096
13555W        W30029   4.713   9.420   2.861  0.1712  0.1219  0.3080
13556W        W30030   5.165   5.630  11.506 -0.0874  0.2286 -0.2245
13557W        W30031  16.594  12.725  15.541  0.1080 -0.0469  0.3521
13558W        W30032  14.973  10.858  12.819 -0.0809 -0.1324 -0.1996
13559W        W30033  10.617   4.537  13.151 -0.1028 -0.0264 -0.0061
13560W        W30034  15.085  12.707  11.867  0.0186 -0.1116 -0.1012
13561W        W30035  12.782  15.439   1.278  0.0790 -0.0709 -0.0927
13562W        W30036  13.041  15.826  12.634 -0.0100  0.4393  0.2593
13563W        W30037   2.214  15.618  14.119  0.0174  0.2577 -0.0812
13564W        W30038  10.209  15.356   3.980  0.2046  0.3228 -0.0073
13565W        W30039   6.472  18.347   1.631 -0.0620 -0.0537 -0.4346
13566W        W30040   0.244   2.682  12.434 -0.0380  0.2935 -0.1201
13567W        W30041  15.228  13.264  15.066  0.1583 -0.1689  0.2595
13568W        W30042   7.916  17.694  11.611 -0.1090  0.0596 -0.0620
13569W        W30043  17.644   3.077   4.947 -0.2754 -0.3448 -0.0003
13570W        W30044  11.678   9.926  13.384 -0.0562 -0.0206  0.1518
13571W        W30045  15.594   0.548  15.575  0.0288  0.3976  0.1236
13572W        W30046  13.222   4.170  12.397  0.1166  0.6807  0.1906
13573W        W30047   9.087  10.521   3.343 -0.1994 -0.0296  0.1956
13574W        W30048   6.282  16.295   0.960 -0.0843 -0.1009  0.3652
13575W        W30049   7.421   5.358   3.540  0.1627  0.4184  0.0344
13576W        W30050  13.991   9.473   0.837 -0.1965 -0.2731  0.1213
13577W        W30051   8.733  18.627  12.516  0.0876 -0.0262  0.2177
13578W        W30052   5.494  10.303  13.842  0.1205  0.0168 -0.3285
13579W        W30053   4.362   4.663   0.495  0.0589 -0.2527 -0.2760
13580W        W30054  12.914  15.949   0.081 -0.1076 -0.0131  0.0553
13581W        W30055   7.850   2.556   0.590  0.2328  0.0679 -0.2650
13582W        W30056   0.752  14.157  14.471 -0.2521 -0.0126 -0.0225
13583W        W30057  15.428   6.853  11.680 -0.1581  0.1532  0.0335
13584W        W30058  11.507  18.430  11.477  0.2079 -0.1706  0.1109
13585W        W30059   8.711   2.666   0.810 -0.3081  0.0760  0.1189
13586W        W30060   2.374  14.823   3.906 -0.0816  0.0218  0.3677
13587W        W30061   1.175  12.160  15.656 -0.0664 -0.2030  0.0281
13588W        W30062  15.898   1.205  14.906  0.1727  0.2553 -0.0697
13589W        W30063  14.906  17.954  11.601  0.3862  0.1022 -0.3293
13590W        W30064  17.297   1.987  12.887  0.0641 -0.0660 -0.0726
13591W        W30065   5.618   3.080   3.533  0.1464  0.4517  0.3125
13592W        W30066  11.418  18.257   2.024  0.1423 -0.0717 -0.2241
13593W        W30067   6.641   2.943   0.961  0.1709 -0.0476 -0.2370
13594W        W30068  15.993   9.405   1.342  0.3630 -0.0126 -0.0143
13595W        W30069  15.366  12.414   0.887 -0.1657 -0.0001 -0.1603
13596W        W30070  18.467  17.482   4.516 -0.3901  0.0231  0.0833
13597W        W30071  17.065  11.443   3.862  0.2858 -0.2262  0.4377
13598W        W30072  15.522   4.940   0.403 -0.0523  0.1322  0.1563
13599W        W30073   6.533   1.571   2.306  0.0924  0.2450 -0.2511
13600W        W30074   4.912   0.730   1.269 -0.3455  0.2088 -0.0674
13601W        W30075  11.741   9.661  14.890  0.0502  0.0628 -0.1713
13602W        W30076   9.713   0.167   2.722 -0.2663 -0.1043 -0.2152
13603W        W30077   7.804  12.558  11.853 -0.1410  0.0378 -0.0167
13604W        W30078   0.449   1.851   4.822 -0.4309 -0.3244 -0.3248
13605W        W30079  13.091   5.786   4.803  0.0930  0.1066  0.4505
13606W        W30080  12.541   5.863   4.217 -0.1855  0.3074  0.0676
13607W        W30081   8.809   0.706  12.366 -0.2470 -0.1648 -0.3815
13608W        W30082   7.996  15.190   2.771 -0.0667 -0.5037  0.2495
13609W        W30083   8.973   0.298  11.708 -0.0292 -0.0176  0.1466
13610W        W30084   1.111   2.803  10.945  0.3221  0.2895 -0.1939
13611W        W30085  16.844  10.325  14.225 -0.2468 -0.0372  0.1084
13612W        W30086  10.732  13.122  12.609  0.1076 -0.1043  0.3701
13613W        W30087  17.112   0.762  11.201  0.2735 -0.0591 -0.1617
13614W        W30088   9.962  16.604  13.006 -0.2354  0.0204  0.0467
13615W        W30089  17.019  17.107   1.894  0.0436  0.1440 -0.0209
13616W        W30090   0.046   5.799  11.871 -0.2152 -0.0103 -0.1961
13617W        W30091  13.018  12.484   5.556  0.3978  0.3662  0.2365
13618W        W30092  13.142   9.783  13.563  0.3410 -0.0355 -0.4059
13619W        W30093  11.007   2.149  14.702  0.0142  0.0052 -0.0967
13620W        W30094   3.171  15.160   5.000 -0.0575  0.0116 -0.1844
13621W        W30095  16.950  11.104   4.192  0.3984  0.1755 -0.2410
13622W        W30096  14.390  17.516   2.260  0.2038 -0.0155 -0.2383
13623W        W30097  13.753  11.675   4.705  0.0661 -0.1261 -0.0262
13624W        W30098  16.063  18.258   0.268  0.0079 -0.0207  0.2563
13625W        W30099  17.814   5.651  12.686  0.2148  0.0829 -0.0844
13626W        W30100   8.344   4.700   7.112 -0.0457  0.4522 -0.0303
13627W        W30101   9.705   2.437   2.065  0.0872  0.0589 -0.1380
13628W        W30102   9.837  15.459   0.854 -0.1060 -0.0241 -0.1066
13629W        W30103   6.386   2.846  14.914  0.1292  0.0999 -0.4008
13630W        W30104  15.220   7.067   2.059  0.2038  0.2474 -0.1523
13631W        W30105   6.320   1.940  13.050  0.4596 -0.0447 -0.0684
13632W        W30106  16.908   5.748  12.643  0.2977  0.1316  0.1136
13633W        W30107   0.759  11.799   4.979 -0.1294 -0.0399  0.1541
13634W        W30108  14.537  14.322   2.491  0.1637 -0.1724  0.2197
13635W        W30109   0.483   0.355   3.720  0.1207  0.0930  0.0418
13636W        W30110   4.960   9.019   2.549 -0.0993 -0.0679  0.2220
13637W        W30111  10.403   9.275  12.684 -0.0344 -0.3430  0.1443
13638W        W30112   9.164  10.288   0.691 -0.0624 -0.1631 -0.1757
13639W        W30113   4.479  17.100   2.817  0.4663  0.0325  0.1671
13640W        W30114  16.517   9.128  12.284 -0.3189  0.0388 -0.1013
13641W        W30115  12.766  14.455  12.267  0.1181  0.1496 -0.0773
13642W        W30116   8.172  11.409  15.150  0.1407  0.1798 -0.1317
13643W        W30117   4.884  17.180   3.652  0.1607  0.2257 -0.1041
13644W        W30118   7.263  17.158   2.551  0.0333  0.3370 -0.0961
13645W        W30119  18.810   0.194  15.605 -0.1683 -0.1632 -0.2578
13646W        W30120   6.627   0.665  13.496  0.2873  0.4516 -0.3547
13647W        W30121   1.823  17.878   3.991 -0.1832  0.0529 -0.2729
13648W        W30122  14.572   2.384  13.764  0.2036 -0.0922 -0.3842
13649W        W30123  17.190   2.655   3.453  0.0827 -0.2437  0.0105
13650W        W30124  15.371  13.629  12.687 -0.2430 -0.1816  0.0299
13651W        W30125  11.989   3.778  13.070 -0.1417  0.3835 -0.0283
13652W        W30126   9.861   1.844   1.527  0.0543 -0.1860 -0.3322
13653W        W30127  16.841  13.617   1.816 -0.0775  0.1318  0.2569
13654W        W30128   8.115  16.669   1.115  0.2451  0.2002 -0.0501
13655W        W30129   1.741  18.501  11.477  0.1037 -0.2029  0.2568
13656W        W30130   5.824  12.055  13.062 -0.0125 -0.2662  0.1012
13657W        W30131   4.132   4.665  15.017 -0.1477  0.1010 -0.3474
13658W        W30132   2.268   4.562   3.296 -0.1739  0.2179  0.0654
13659W        W30133  14.102  15.488   0.098 -0.3404 -0.0695 -0.1310
13660W        W30134  15.325   0.698  12.697  0.0835  0.0276 -0.0602
13661W        W30135  18.832  12.317  14.185 -0.0759  0.1361  0.2334
13662W        W30136  13.124  10.620   4.422  0.0821 -0.0155  0.1668
13663W        W30137  16.207  11.373  14.428 -0.0943 -0.0283  0.1737
13664W        W30138   8.673  11.830   6.017  0.2889 -0.1213  0.1524
13665W        W30139   1.330  15.208  13.359  0.2306 -0.0162  0.2028
13666W        W30140   1.177  11.642  14.753 -0.0809 -0.3677  0.1652
13667W        W30141  17.868  16.373  10.145  0.1229  0.0345  0.0938
13668W        W30142  12.099   5.639   2.602 -0.2891 -0.0884 -0.0142
13669W        W30143  14.422  12.270   3.248  0.0714 -0.1134 -0.0139
13670W        W30144   8.843  11.383   2.853 -0.0466 -0.0041  0.1710
13671W        W30145   5.524   5.390  14.652  0.0925 -0.0349  0.0006
13672W        W30146  10.648   8.549   5.319 -0.0478 -0.1521  0.2767
13673W        W30147   1.263  14.970   2.550 -0.3374 -0.3494 -0.0803
13674W        W30148   9.258   6.943  14.164 -0.0385  0.5882  0.1026
13675W        W30149   1.533   6.402  14.738 -0.0524 -0.1993 -0.1271
13676W        W30150  12.184  10.742   3.193 -0.2523  0.0280 -0.0730
13677W        W30151  16.311   3.565  12.531 -0.0418 -0.1349  0.1183
13678W        W30152  12.906   7.461   3.973 -0.0443 -0.0822  0.2190
13679W        W30153   5.347   0.302   2.034 -0.0587  0.0676  0.1041
13680W        W30154  15.355   0.236   1.176 -0.3846 -0.0779 -0.1720
13681W        W30155  14.945   4.394   3.519 -0.3300 -0.0066 -0.3766
13682W        W30156  17.248  18.801   0.682 -0.2824  0.1646 -0.2956
13683W        W30157  12.290   2.057   1.674 -0.1928 -0.0439  0.3457
13684W        W30158   8.056  15.365  14.211 -0.2056 -0.1177  0.0384
13685W        W30159   1.364  15.044  15.613 -0.0106  0.1294  0.2457
13686W        W30160  12.255   9.915  14.938  0.2328 -0.0816 -0.1262
13687W        W30161  16.220   9.329   4.465  0.0574 -0.3871 -0.2469
13688W        W30162  12.883  18.390  15.376 -0.1672 -0.0481 -0.2273
13689W        W30163  15.797   5.636  13.018  0.1308 -0.2039 -0.1858
13690W        W30164   7.068  18.575   4.130  0.1184  0.2574 -0.0249
13691W        W30165   8.010  16.887   3.542  0.0242 -0.4342 -0.0787
13692W        W30166   5.158   2.706   2.277 -0.5705  0.1697 -0.1745
13693W        W30167   4.790   5.887   3.405  0.1770 -0.4094  0.1537
13694W        W30168  13.576   0.047   4.804  0.1551  0.2936 -0.1531
13695W        W30169   8.289   6.291   5.071 -0.0555 -0.1266  0.2593
13696W        W30170  14.344  13.560  14.119  0.0471 -0.4414 -0.0221
13697W        W30171   0.009  10.814   1.991  0.3363  0.2571  0.1295
13698W        W30172  10.928   6.630   2.879  0.2260 -0.0715  0.2185
13699W        W30173   2.084   8.794   1.414 -0.0838 -0.0443 -0.0548
13700W        W30174  10.722   5.925   3.455 -0.4349  0.0694 -0.0192
13701W        W30175  11.302   6.288  14.898 -0.1243 -0.2286  0.0837
13702W        W30176  13.539   2.477  12.548 -0.0060 -0.0432 -0.1751
13703W        W30177  15.837   2.346  12.858  0.0863  0.2387 -0.0141
13704W        W30178  15.400  13.388  14.240  0.0871  0.0716  0.0654
13705W        W30179  11.801  15.000  14.865 -0.1645  0.2890 -0.4612
13706W        W30180  10.237  13.072   4.145 -0.1776  0.2722  0.3119
13707W        W30181   4.638  18.489   3.282  0.0699  0.1414  0.1542
13708W        W30182   1.176   1.593   0.663  0.0773 -0.4549 -0.1679
13709W        W30183   2.201  16.038  10.958  0.2762 -0.0526  0.3660
13710W        W30184   6.313   7.854  14.340  0.1908  0.0852  0.2031
13711W        W30185   1.433   8.214   0.381  0.0604 -0.1383 -0.2030
13712W        W30186   1.080   8.828  14.958  0.2157 -0.0955  0.2173
13713W        W30187   1.311   8.775   0.118 -0.2129  0.0786  0.0371
13714W        W30188   4.249  14.059  12.774  0.1608  0.1100  0.0578
13715W        W30189   9.992  12.367   3.018  0.2638  0.5212  0.0615
13716W        W30190  16.905   0.455  10.771 -0.2565  0.1194 -0.0982
13717W        W30191   3.660  10.674   4.138  0.2733 -0.0464  0.0359
13718W        W30192  10.516   5.755  13.098  0.2966 -0.0868  0.1591
13719W        W30193   8.457   3.483   3.061  0.1719  0.3049 -0.2445
13720W        W30194   5.005   8.650  14.659  0.0367 -0.0533  0.2441
13721W        W30195  16.047   7.938  14.418  0.1193 -0.1152 -0.1786
13722W        W30196   1.032  13.579   2.193  0.0509 -0.3209 -0.2596
13723W        W30197   0.566  12.071   4.079 -0.2447  0.0531  0.1778
13724W        W30198  12.795  12.434  13.374  0.0393 -0.3911  0.0494
13725W        W30199  15.565   5.692  10.653 -0.1032 -0.1266  0.1503
13726W        W30200  16.794   8.505   0.028 -0.5815  0.0016  0.0389
13727W        W30201   4.969   4.520  15.585  0.1878 -0.1628  0.0615
13728W        W30202   1.214  14.963   1.663  0.1363 -0.2008  0.0095
13729W        W30203  12.939  15.829  11.069  0.0901 -0.0632  0.0557
13730W        W30204  13.071  15.366   4.738  0.1928  0.1229 -0.2240
13731W        W30205  15.432  10.999  11.973  0.4216  0.1014  0.1998
13732W        W30206  12.231  16.584   2.857  0.1634  0.0100  0.2128
13733W        W30207   8.470   1.148   1.289  0.2087 -0.0400  0.0658
13734W        W30208   4.679   7.720  11.014 -0.0764  0.1366 -0.0885
13735W        W30209   4.771  10.406  13.431 -0.2628  0.1440  0.2455
13736W        W30210  10.086  17.062   4.518  0.0948 -0.2042  0.2468
13737W        W30211  13.980   9.846  14.168 -0.1091  0.0803 -0.3673
13738W        W30212   4.994  18.386  10.827  0.2663  0.1414 -0.0810
13739W        W30213  15.827  16.655  12.797 -0.1602  0.2687 -0.2152
13740W        W30214  12.379  16.504  15.613 -0.0581 -0.1049  0.0930
13741W        W30215  10.276  12.528  11.519  0.1303  0.1559  0.2842
13742W        W30216  16.232   1.440  13.787 -0.5336  0.3721  0.0980
13743W        W30217   3.109   1.653   2.594 -0.0698 -0.1072  0.1697
13744W        W30218   2.234  11.597  11.914 -0.0170  0.3508 -0.1543
13745W        W30219   4.890   2.420  12.078 -0.2645 -0.0451  0.1645
13746W        W30220   4.118   6.176   0.067 -0.0059  0.2470 -0.4001
13747W        W30221   4.268   9.423   5.717  0.3011 -0.0556  0.1148
13748W        W30222   8.262   8.279  15.013  0.0993 -0.0498 -0.2669
13749W        W30223  13.705   3.274   1.527 -0.2658 -0.0962  0.3907
13750W        W30224  12.890   3.754  11.034 -0.2889 -0.0104 -0.0933
13751W        W30225   4.758  11.682   5.683  0.2796  0.0879 -0.0128
13752W        W30226  12.649   7.066  13.263 -0.1277  0.0597 -0.0882
13753W        W30227  11.820   4.138   2.867  0.0509  0.3245 -0.0365
13754W        W30228  13.627   2.435  14.907 -0.0727  0.2957  0.1555
13755W        W30229  17.698   1.566   0.423 -0.0747 -0.4606 -0.0911
13756W        W30230   1.074  18.410   0.668  0.0047  0.1092 -0.1726
13757W        W30231   5.558  18.095  13.895  0.6047  0.0829  0.1742
13758W        W30232   2.441   7.567   1.210 -0.2775  0.0052 -0.1566
13759W        W30233   7.958   0.674   4.152 -0.2305  0.0933  0.0122
13760W        W30234  11.786   3.640  14.327 -0.0656 -0.0250  0.2546
13761W        W30235  14.720   9.606  11.216 -0.1581 -0.2403  0.0200
13762W        W30236  16.659  12.487   1.299  0.0423  0.1493 -0.4408
13763W        W30237   5.386  10.272  11.069  0.1594 -0.0314 -0.1592
13764W        W30238  16.410   1.500  12.963  0.1682  0.2384 -0.1851
13765W        W30239   3.602   8.091  11.910 -0.0153 -0.1903 -0.3719
13766W        W30240  15.586  12.904  11.952  0.1513  0.0032 -0.0029
13767W        W30241  16.996   8.295   1.861  0.2756  0.0052  0.4221
13768W        W30242   4.177   3.098   2.597 -0.2153  0.2220  0.1696
13769W        W30243  12.681   5.326   4.323 -0.2072 -0.0648  0.1997
13770W        W30244   8.328   4.112   1.489  0.2523  0.2024  0.2249
13771W        W30245  12.134   2.511  11.257  0.2185 -0.1412  0.2466
13772W        W30246   9.923   5.786  13.929 -0.1165  0.1658 -0.1752
13773W        W30247  11.339  13.841  11.805  0.3113 -0.3526 -0.1334
13774W        W30248  15.720  18.012  12.769  0.0623  0.1108 -0.1883
13775W        W30249   4.008   1.086   1.736 -0.1251 -0.1463 -0.0964
13776W        W30250  17.351   5.886   0.329  0.2571  0.2057 -0.0953
13777W        W30251   0.575   1.649   2.881 -0.3423 -0.3018 -0.0424
13778W        W30252   1.916  18.778   2.513  0.1008 -0.0528 -0.1828
13779W        W30253  15.309   2.331  10.722  0.0722 -0.2727  0.4519
13780W        W30254  13.671   2.799   5.311  0.0325  0.2886  0.2435
13781W        W30255   6.632  15.838   3.001  0.1794 -0.2461 -0.0802
13782W        W30256   4.753  13.971   3.260 -0.0708  0.3008  0.0005
13783W        W30257  11.370   8.382   2.896 -0.0236 -0.1904 -0.0715
13784W        W30258  17.505  10.866  11.390  0.4242 -0.2767  0.1573
13785W        W30259  16.108  12.695   9.925  0.0793  0.1045  0.0334
13786W        W30260   2.328   3.402  11.956 -0.1345  0.1405  0.0159
13787W        W30261  16.432   8.055   2.499  0.4096  0.0159 -0.2003
13788W        W30262  10.157  12.379   5.142  0.0450 -0.0522  0.0201
13789W        W30263   6.058   7.726  13.896 -0.0110 -0.1921  0.2331
13790W        W30264  18.549  12.369   4.335 -0.2998  0.1094 -0.4016
13791W        W30265  16.975   7.511   1.699  0.0469 -0.1786 -0.0301
13792W        W30266  16.760  18.243  13.900 -0.2736  0.2774 -0.0338
13793W        W30267   1.706   8.432  12.033  0.2131 -0.3297  0.1042
13794W        W30268  13.256   5.312   3.471 -0.0952  0.0706 -0.1540
13795W        W30269   1.338   4.238   1.947  0.2964 -0.4066  0.0170
13796W        W30270   6.466   2.422  14.315  0.0173 -0.0939 -0.1365
13797W        W30271  12.472  16.838   0.903  0.1269 -0.2002 -0.0387
13798W        W30272  17.353  17.720   5.043 -0.0620  0.1845 -0.0662
13799W        W30273  17.228   3.015   4.746 -0.2571 -0.2199 -0.1159
13800W        W30274  13.469   1.632   0.866  0.1510 -0.0510  0.0179
13801W        W30275   3.618   1.625  14.727  0.1553  0.2212 -0.0839
13802W        W30276  13.751  14.444   4.635  0.0556  0.2239 -0.2022
13803W        W30277  16.211  11.524   2.716 -0.2731 -0.1581  0.1695
13804W        W30278  12.353  12.088  14.460  0.1265 -0.0695  0.0508
13805W        W30279   2.913   2.220  15.302 -0.0550 -0.1549 -0.1524
13806W        W30280   0.065   4.514  12.968 -0.4031  0.0927  0.0208
13807W        W30281  11.822   8.008   1.989 -0.0191  0.1403 -0.0538
13808W        W30282   6.326   7.650  15.615  0.0866 -0.4042 -0.0775
13809W        W30283   6.901  13.961   4.093  0.4921 -0.0395  0.0709
13810W        W30284  13.756   9.362  14.047 -0.1898 -0.0824 -0.0123
13811W        W30285  12.368  16.061   2.051 -0.1311 -0.3819 -0.2844
13812W        W30286  12.229   4.405  11.363  0.2736 -0.2595  0.0401
13813W        W30287   9.386   0.132   2.082  0.0142  0.2126 -0.1819
13814W        W30288   1.755   7.615  11.345 -0.0414  0.0888 -0.1274
13815W        W30289  11.653  17.207  12.603  0.1502 -0.1170 -0.1715
13816W        W30290  17.919   2.962  13.029 -0.1123  0.2538  0.0130
13817W        W30291  11.431  10.107  14.239  0.0241  0.0304 -0.1785
13818W        W30292  11.910   8.410  11.904  0.2169  0.0301 -0.0711
13819W        W30293  15.162  14.936   3.283 -0.1749 -0.1166 -0.0862
13820W        W30294  17.683   6.995   4.256 -0.2402 -0.0646  0.0157
13821W        W30295  15.850  15.528  14.419  0.0363 -0.1076 -0.0389
13822W        W30296  11.435  10.278   3.931 -0.0076 -0.0471 -0.0983
13823W        W30297   9.452   8.309  11.811 -0.1484 -0.3392 -0.0414
13824W        W30298   9.633   4.148  12.971  0.3587  0.1281  0.0373
13825W        W30299  16.560  15.758   1.624  0.0374 -0.0478  0.4014
13826W        W30300   7.879   4.175   1.300  0.1770 -0.1966  0.3432
13827W        W30301   4.839   5.236  15.283 -0.2806  0.0050 -0.2793
13828W        W30302  13.437  11.801  13.024 -0.1158 -0.0763 -0.1978
13829W        W30303   9.860  15.963   3.461  0.1357  0.0834  0.2081
13830W        W30304  16.295   0.441  10.719 -0.3798  0.0434 -0.0247
13831W        W30305   9.429  18.411  12.633  0.3364 -0.1519  0.0954
13832W        W30306   3.464  18.134  10.963  0.1326 -0.2895 -0.2878
13833W        W30307   1.781   7.632  13.180 -0.3315  0.0189 -0.1676
13834W        W30308   3.332  10.090   3.575 -0.2623  0.3603  0.0135
13835W        W30309  17.984   8.054  13.297  0.1037 -0.1447  0.1561
13836W        W30310  15.031   9.572  15.240 -0.1903 -0.2442  0.1160
13837W        W30311  16.957   1.885   1.382 -0.3230 -0.2711  0.0548
13838W        W30312  10.223   7.216   5.347  0.1539  0.1603 -0.2714
13839W        W30313   6.364   9.721   2.124 -0.1035  0.2176 -0.1194
13840W        W30314  14.589   5.059   3.001  0.0836 -0.0384  0.2087
13841W        W30315  10.352  12.884   3.221  0.4137 -0.2273  0.4097
13842W        W30316  15.109  10.822   4.909 -0.0081  0.0711 -0.0447
13843W        W30317   8.855   7.811   5.482 -0.0685  0.0497 -0.4682
13844W        W30318   5.325   1.181  10.020 -0.3665  0.3141  0.0443
13845W        W30319   9.913  18.443   4.917  0.0776  0.2966 -0.0293
13846W        W30320   9.671   3.146  14.710  0.1597  0.1735 -0.2018
13847W        W30321   3.194   8.732   3.910 -0.2005 -0.1592 -0.3901
13848W        W30322   1.658   1.328  14.582  0.1489 -0.0400  0.0802
13849W        W30323  17.801  15.413   2.125  0.1600 -0.1300 -0.4178
13850W        W30324   0.408  12.592   1.493  0.1357 -0.1871  0.0275
13851W        W30325  16.541   0.092   2.448  0.1201  0.0921 -0.4192
13852W        W30326   4.853  12.191   1.220 -0.0631  0.1671 -0.1676
13853W        W30327  16.472   8.441   2.917 -0.1733 -0.2075  0.1394
13854W        W30328   6.292  15.759   1.145  0.1406  0.1805  0.0834
13855W        W30329   5.093  15.992   1.695  0.2143 -0.0010 -0.1458
13856W        W30330   7.433   8.536   4.443  0.0965 -0.1126 -0.2679
13857W        W30331   1.456   7.821  12.791  0.0396 -0.2130 -0.0211
13858W        W30332  10.024   4.943  12.459 -0.1113 -0.3150 -0.2357
13859W        W30333   2.229   8.580   3.555  0.2319  0.1211 -0.1517
13860W        W30334   1.343   1.112  11.270  0.4118 -0.0125 -0.2330
13861W        W30335   4.962   5.103   4.386 -0.0842 -0.0206 -0.2556
13862W        W30336   0.144  11.409  12.515  0.1596 -0.0932  0.1934
13863W        W30337  15.095   4.122  12.402  0.0014  0.1916  0.0737
13864W        W30338   7.459  18.457   1.256 -0.0091  0.0222  0.1130
13865W        W30339   9.400   6.550   3.134 -0.2463 -0.1994 -0.0360
13866W        W30340  13.321   6.519  13.985  0.0581 -0.0925 -0.1126
13867W        W30341   4.489  13.416   0.271 -0.0290 -0.3832  0.0378
13868W        W30342  15.817   2.524   4.209 -0.2863 -0.1829  0.3151
13869W        W30343  11.423  16.213  11.830 -0.4122  0.3511  0.3597
13870W        W30344   0.625   4.587   5.059 -0.1227  0.1390 -0.1457
13871W        W30345   6.976  11.350   5.778 -0.0359 -0.1056 -0.1322
13872W        W30346   2.532   5.230  14.693 -0.6283 -0.3733 -0.0342
13873W        W30347   7.793   9.189  11.931  0.1197 -0.2261  0.2044
13874W        W30348   2.278  18.550   4.271  0.1344 -0.0869 -0.4383
13875W        W30349  17.679  12.573   4.615 -0.3892 -0.0914 -0.2468
13876W        W30350  11.364   8.431  11.367 -0.2510 -0.2385  0.0086
13877W        W30351   4.665   9.968   3.721 -0.0521 -0.0553  0.1909
13878W        W30352   4.600  13.893  15.243  0.2052  0.2339 -0.1708
13879W        W30353  17.115  17.582   1.753 -0.1394  0.3041  0.1468
13880W        W30354  11.642   1.663  14.069  0.2143 -0.0859  0.2016
13881W        W30355   2.519  14.828  14.647  0.1904  0.0533 -0.0326
13882W        W30356   8.910  15.268   1.760 -0.0591 -0.1127  0.0466
13883W        W30357   9.786  12.510   1.648  0.1885  0.0397 -0.0785
13884W        W30358   1.221   3.224  14.582  0.1156 -0.3181  0.0798
13885W        W30359  13.801  16.213  13.733  0.2798  0.1384 -0.1335
13886W        W30360   4.532   5.118  13.496  0.1703  0.0790 -0.1180
13887W        W30361  13.520   6.146   0.288 -0.2537 -0.3265 -0.0499
13888W        W30362   1.784   3.813   2.013 -0.3775  0.0913 -0.0060
13889W        W30363   3.030   9.713  11.273 -0.0953  0.0889 -0.1434
13890W        W30364  10.539   3.416   3.937  0.0560  0.1794 -0.0714
13891W        W30365   9.768   5.646  14.371 -0.3040  0.3416  0.0643
13892W        W30366   6.111   9.489  13.175  0.2020 -0.0614 -0.1867
13893W        W30367  17.433   6.545   4.431 -0.1166  0.0949 -0.2526
13894W        W30368  11.242  11.239   0.500 -0.0911  0.3866  0.1068
13895W        W30369  14.310  15.774   4.584 -0.0147  0.3764  0.1170
13896W        W30370   5.333   6.547  14.677  0.1071  0.0067 -0.1147
13897W        W30371  16.770  13.052   3.410  0.0447 -0.1779 -0.0424
13898W        W30372  17.645   2.155   2.428  0.2772 -0.1443 -0.0501
13899W        W30373   7.921  10.671  15.077  0.1076  0.0767  0.1098
13900W        W30374   9.782  14.836   0.736  0.0739  0.3122 -0.0757
13901W        W30375   4.507   7.945   5.659  0.2675 -0.0426 -0.3406
13902W        W30376  15.150  10.467   1.756 -0.0378  0.0879  0.0277
13903W        W30377   4.044   6.627  14.331 -0.2865 -0.0324 -0.0638
13904W        W30378   3.492  15.017   2.529  0.0745 -0.1375 -0.0745
13905W        W30379  14.926   0.310  14.368 -0.2829 -0.0890  0.1711
13906W        W30380   2.904  13.833  12.926 -0.0017 -0.2833 -0.2515
13907W        W30381  13.520  11.315  13.894  0.0007  0.2980  0.3139
13908W        W30382  18.534   2.738  14.040  0.1716  0.2990 -0.0295
13909W        W30383   9.296  14.366  11.709 -0.1797 -0.2375 -0.3244
13910W        W30384  11.072  11.400   4.610 -0.0678  0.3795 -0.0809
13911W        W30385  18.045   1.513   5.216  0.1133  0.2226 -0.2844
13912W        W30386   8.338   9.180   6.136 -0.0199 -0.0471 -0.0046
13913W        W30387  15.523   0.446   1.725  0.1906  0.3829 -0.2488
13914W        W30388  12.719  12.811   3.405 -0.1252  0.0894  0.2856
13915W        W30389  16.695  14.987  15.270 -0.1730 -0.1288  0.1635
13916W        W30390  17.792  14.500  11.894 -0.1552  0.3020 -0.0178
13917W        W30391  13.088  13.257   2.380 -0.2913  0.3420 -0.2926
13918W        W30392  17.080   2.026   0.868  0.0535 -0.2399 -0.3547
13919W        W30393   9.350   4.564   1.683  0.0527  0.2442  0.0514
13920W        W30394  12.332   5.443  14.520  0.0459 -0.1699 -0.4033
13921W        W30395  18.316   6.696  15.108 -0.0500 -0.0734 -0.1734
13922W        W30396   1.494   6.067   0.628  0.0265  0.1219  0.1246
13923W        W30397   1.032  18.795  15.516 -0.0281  0.0071 -0.0563
13924W        W30398  16.339   3.820  14.327 -0.2428  0.3272 -0.0134
13925W        W30399  17.191   1.370  13.464  0.1371 -0.1688 -0.0661
13926W        W30400  13.085  16.111  14.953 -0.1570 -0.0540 -0.0149
13927W        W30401   4.460  10.880   1.766  0.2045  0.0129  0.0817
13928W        W30402  12.855  16.825  15.077  0.3604  0.1605  0.0369
13929W        W30403  18.292  15.811   2.571  0.4433  0.0166  0.0533
13930W        W30404   6.579  15.754   5.860  0.2764  0.0641 -0.1770
13931W        W30405   0.542   9.238   3.730 -0.0376 -0.4228  0.0411
13932W        W30406  15.128   9.594  12.080  0.2877 -0.0749  0.0774
13933W        W30407   1.552  15.147   4.390 -0.2383 -0.1271  0.2182
13934W        W30408  14.509   8.962   1.712 -0.1684 -0.4425 -0.1279
13935W        W30409   3.598  16.898  14.061  0.2839 -0.1571 -0.0157
13936W        W30410  13.881   2.890  11.305  0.0795 -0.0752  0.1592
13937W        W30411   2.272  18.333  14.201 -0.3477  0.0967  0.0949
13938W        W30412  11.902  12.786  13.815  0.1680  0.4956 -0.0303
13939W        W30413   5.971  15.049   0.598 -0.1989 -0.1068  0.0516
13940W        W30414   9.173   0.641   0.204 -0.2213 -0.2359 -0.3135
13941W        W30415   5.748  13.783  11.294 -0.1631 -0.2310 -0.1487
13942W        W30416   4.464   4.287   0.150 -0.0330 -0.0289 -0.2139
13943W        W30417   2.368  15.900   4.222  0.1912 -0.0604  0.0807
13944W        W30418   7.885   4.283  11.813 -0.2853  0.1133 -0.0044
13945W        W30419   3.009  15.107  14.383 -0.4432 -0.1936  0.0382
13946W        W30420  12.566   1.684  11.309 -0.1028 -0.0366 -0.1592
13947W        W30421   4.106  18.193   4.988  0.3235  0.0216 -0.3671
13948W        W30422   9.387  14.849   5.011 -0.0828  0.1084 -0.0263
13949W        W30423   9.406   3.194  11.434 -0.5602  0.1642 -0.2054
13950W        W30424  18.501  18.441   1.867  0.3590 -0.4484  0.4255
13951W        W30425   6.225   5.576   3.079  0.3601  0.0702 -0.1749
13952W        W30426   3.246  16.603  11.787 -0.4018 -0.2021  0.0827
13953W        W30427   5.532   6.414  10.967  0.4631 -0.1047  0.2539
13954W        W30428  13.219   5.274  11.084 -0.1950 -0.1323  0.1849
13955W        W30429  17.547   1.309  12.110  0.3239 -0.0055 -0.0203
13956W        W30430   1.128  11.794   1.538  0.2958  0.0369 -0.2050
13957W        W30431   0.289   2.412  10.389 -0.2715  0.3839  0.1279
13958W        W30432  15.934   8.180   3.606  0.0227  0.2343  0.3808
13959W        W30433   8.228   5.464   1.703  0.0866 -0.0119  0.0567
13960W        W30434  18.531  17.270   5.001 -0.2954 -0.2311  0.1548
13961W        W30435   9.798   7.163   4.572 -0.2781 -0.0566  0.0717
13962W        W30436  15.489   6.439   1.382  0.0359  0.2144 -0.2269
13963W        W30437   5.158   3.428   1.280 -0.1813 -0.0736 -0.0351
13964W        W30438   6.399  14.632  13.881  0.1633 -0.2114  0.2758
13965W        W30439  13.813   4.425   5.931 -0.0105 -0.1583 -0.1606
13966W        W30440  18.693   3.077  14.459 -0.0782 -0.1756 -0.1628
13967W        W30441   7.998  10.270   0.711  0.1185  0.2035 -0.1213
13968W        W30442  18.045   9.770  13.171 -0.4219 -0.2070 -0.1418
13969W        W30443   7.992  16.056   0.900  0.0138 -0.0769  0.0365
13970W        W30444   2.361   3.332  14.827 -0.1504 -0.2177 -0.1482
13971W        W30445   5.654   6.987   5.206 -0.2297  0.0349  0.1588
13972W        W30446   7.040  17.192  15.032 -0.1517 -0.3235  0.2411
13973W        W30447   0.737   0.743   0.098  0.0056  0.0167 -0.0082
13974W        W30448   4.267   3.208   4.083 -0.0282  0.2272 -0.2127
13975W        W30449  11.831   7.219  14.242 -0.1195 -0.2996 -0.3609
13976W        W30450   4.609  18.818   3.656 -0.3185  0.0931  0.2456
13977W        W30451   3.698   6.255   4.183 -0.2960  0.3297  0.2345
13978W        W30452  16.871  18.752  12.334  0.1302  0.1668 -0.0123
13979W        W30453   2.632  13.367  15.039  0.2109 -0.0783 -0.0059
13980W        W30454  15.633   5.414  12.080 -0.0460 -0.3005 -0.3643
13981W        W30455  15.659  18.738  13.595  0.1948  0.2229 -0.1834
13982W        W30456  13.885  10.086  11.443 -0.3135 -0.2749  0.0561
13983W        W30457  10.216  10.261   5.106  0.0743  0.2322  0.0326
13984W        W30458  11.305  16.635   5.757  0.0622  0.0390 -0.0975
13985W        W30459   4.649  13.348  13.978  0.2325 -0.0783 -0.0270
13986W        W30460  16.240   4.566   5.007  0.1664 -0.0083 -0.1145
13987W        W30461  12.028   5.637   4.051 -0.0569 -0.3128  0.0654
13988W        W30462   2.115   7.570   2.957 -0.0206 -0.0809  0.1471
13989W        W30463  17.456   9.409  12.303 -0.0162 -0.2390 -0.2222
13990W        W30464   9.501   7.557  11.547  0.0860 -0.0100 -0.0831
13991W        W30465   3.666   5.097   4.072 -0.2174  0.0801  0.2465
13992W        W30466  11.550   7.542   4.371  0.1599 -0.2539  0.0859
13993W        W30467  10.729   3.619   5.247 -0.0854 -0.0298 -0.3726
13994W        W30468  11.539   3.551   2.755  0.1548  0.0147 -0.0495
13995W        W30469  10.705   0.366   6.129 -0.0785  0.4265  0.0652
13996W        W30470   7.173   5.080  15.077  0.0781  0.0867 -0.2407
13997W        W30471   2.760   5.356   3.736 -0.1790 -0.1342  0.0519
13998W        W30472  13.920  14.891   0.165 -0.0566 -0.3760 -0.0233
13999W        W30473  11.462   2.694   1.822  0.1335 -0.1864  0.1744
14000W        W30474  13.719   5.995  15.452  0.3521  0.0463  0.1723
14001W        W30475   0.992   4.862   5.331  0.1563 -0.1413 -0.2692
14002W        W30476   7.264   3.485  11.669 -0.0868  0.2961  0.0624
14003W        W30477  17.393  14.449   2.036 -0.1269  0.2062  0.1692
14004W        W30478   2.863  10.277   0.139 -0.1595 -0.3988 -0.2763
14005W        W30479   1.022  14.373  10.124 -0.0821 -0.3453  0.2610
14006W        W30480  18.399  12.137   0.035 -0.0349  0.1683 -0.0102
14007W        W30481   5.367  18.570  14.093  0.0672 -0.0152  0.0052
14008W        W30482  12.260   4.566   0.465  0.1758 -0.3029  0.1824
14009W        W30483   6.463   5.371  14.492  0.1063  0.0398  0.3260
14010W        W30484  12.731   2.026   0.242  0.1529 -0.2638  0.0255
14011W        W30485   4.887  12.377  12.741  0.0753 -0.1287 -0.1751
14012W        W30486  16.643   3.112  13.422 -0.0807 -0.2699 -0.0176
14013W        W30487  12.276  13.424   4.066  0.0521  0.2301  0.1039
14014W        W30488   2.689  14.700  11.477  0.2877 -0.1423 -0.3191
14015W        W30489  17.355  15.983   2.661 -0.2660  0.0385  0.2066
14016W        W30490   8.953   3.953   2.301 -0.1889 -0.0352 -0.1738
14017W        W30491   9.009   9.286  12.064 -0.3323  0.0113  0.0370
14018W        W30492   8.820   2.958   4.211 -0.1783  0.2678 -0.0111
14019W        W30493   7.276   0.464  15.166 -0.2105  0.2173  0.3882
14020W        W30494  13.920  10.494   4.212 -0.0650  0.0516 -0.2539
14021W        W30495  13.032   5.711  12.821  0.3678 -0.1807  0.3147
14022W        W30496   9.220   1.760   5.956  0.3738 -0.1371 -0.0074
14023W        W30497  13.108  17.143  15.351  0.0564 -0.2194  0.1221
14024W        W30498   8.967   9.210   2.935 -0.0996 -0.3521 -0.2964
14025W        W30499   4.894  17.277   0.399 -0.1754  0.1134 -0.0007
14026W        W30500  15.372   1.407   0.116  0.0174 -0.2985  0.2345
14027W        W30501  10.890  14.498  14.388 -0.1167  0.2742  0.1116
14028W        W30502  15.513  15.116  14.494  0.0258 -0.3341 -0.2877
14029W        W30503  11.055   5.779  15.579 -0.1614 -0.0745  0.0697
14030W        W30504  12.693   3.145  11.688 -0.4582  0.0959 -0.1525
14031W        W30505  15.218  13.426   4.055  0.1842  0.1030 -0.0426
14032W        W30506  17.744   8.524   2.223 -0.2006  0.0012  0.3671
14033W        W30507  16.351  17.470   3.924  0.1401 -0.2386 -0.0053
14034W        W30508   1.624   1.973  13.300  0.1585 -0.0678  0.2904
14035W        W30509   2.996   7.077  10.992 -0.0605  0.1069 -0.1086
14036W        W30510   9.777  12.470  11.645 -0.0108  0.1806 -0.0418
14037W        W30511   2.419   8.966   1.819  0.4459 -0.3319  0.0578
14038W        W30512   9.025  11.269  15.415 -0.3147  0.0601  0.1027
14039W        W30513   9.073   5.863  13.598 -0.2143 -0.2404  0.3151
14040W        W30514  14.296  13.520  15.115  0.0804  0.1162  0.1517
14041W        W30515   6.932  14.200   1.677 -0.5940 -0.0218  0.2561
14042W        W30516   4.512  10.627  10.925 -0.0139 -0.2158 -0.1823
14043W        W30517   4.328   4.603   4.654 -0.1449 -0.0836  0.0556
14044W        W30518   8.735   3.441  14.979 -0.1386 -0.0473 -0.1639
14045W        W30519   8.041  14.795  11.126 -0.0816 -0.0735  0.1430
14046W        W30520  16.332   0.967   4.264  0.0851 -0.0098 -0.2021
14047W        W30521  16.596  18.526  13.538  0.1240  0.0461  0.0076
14048W        W30522   5.596   6.908  11.923 -0.2782  0.1290  0.0224
14049W        W30523   7.101  10.430   0.721  0.6630 -0.2907 -0.0960
14050W        W30524  17.334  10.925  12.896 -0.1703  0.2722 -0.1627
14051W        W30525  10.109   4.074   2.068 -0.1767  0.2657 -0.1691
14052W        W30526  17.882   4.237  14.262  0.1977 -0.0899  0.0633
14053W        W30527   7.057   4.018   0.829  0.0404  0.0169  0.3218
14054W        W30528   2.419   6.313  13.946 -0.1321 -0.1786 -0.1335
14055W        W30529  15.769   8.935  13.619  0.1599  0.3768  0.0347
14056W        W30530  17.019  11.795   2.849 -0.2427  0.1710  0.0715
14057W        W30531   7.630  14.775   0.670  0.1694  0.0565  0.0750
14058W        W30532   0.590  14.796  13.261 -0.3936  0.1737 -0.5126
14059W        W30533   0.849  16.835   5.550  0.1720  0.2129  0.2290
14060W        W30534  16.596   9.646   0.493 -0.3285 -0.2253  0.1706
14061W        W30535  15.794   6.763   3.646 -0.2181 -0.2159  0.0546
14062W        W30536   3.326   7.575   0.638 -0.1503  0.0275 -0.2578
14063W        W30537  12.072  11.127   1.850 -0.0918 -0.1068 -0.0292
14064W        W30538   4.960  13.161  11.596  0.2908 -0.0380  0.3860
14065W        W30539  15.789  11.287  13.249  0.1495 -0.0896  0.2207
14066W        W30540   2.250  13.522  11.514  0.2333 -0.5652 -0.1085
14067W        W30541   2.494  14.635  12.978 -0.1172  0.0473  0.2466
14068W        W30542  13.343  13.622   2.630  0.1338 -0.3853  0.1670
14069W        W30543   4.366  15.420  14.641  0.0969 -0.0347  0.1666
14070W        W30544   4.746  18.544   2.773  0.3940 -0.1795 -0.2073
14071W        W30545   8.202   0.887   4.727  0.2905  0.1731 -0.0288
14072W        W30546   7.021   6.056   4.928 -0.1966 -0.3633 -0.2554
14073W        W30547  10.723  10.359   0.442  0.3535 -0.0642 -0.1469
14074W        W30548  14.177  16.434   4.640  0.2172  0.1094 -0.1432
14075W        W30549   2.407   4.451   0.396 -0.0379 -0.0018 -0.0840
14076W        W30550  18.505   2.643   2.583 -0.2354  0.0601 -0.1522
14077W        W30551   1.000   3.251   1.964 -0.0137 -0.2783  0.1024
14078W        W30552   9.161  11.402   3.853 -0.0906  0.2313 -0.2577
14079W        W30553   4.003   2.014  11.479 -0.3754 -0.0929 -0.0443
14080W        W30554  17.004   0.117   1.923  0.2416 -0.3637  0.3119
14081W        W30555  17.646   2.572   3.218 -0.2043 -0.1622 -0.0097
14082W        W30556   2.964   7.405   3.396 -0.1054 -0.0437  0.1157
14083W        W30557  13.744   1.074  10.522 -0.2600  0.4176  0.1389
14084W        W30558   3.601   4.390  14.929 -0.3274 -0.0671  0.0287
14085W        W30559  16.165  18.049   2.536 -0.0549 -0.1375  0.1209
14086W        W30560  18.691  14.297   2.321 -0.1897 -0.2236  0.3525
14087W        W30561   4.174   1.608  13.749  0.1576 -0.0871  0.2886
14088W        W30562   0.086   2.631  13.804  0.1234 -0.0233 -0.2013
14089W        W30563   6.950   9.122  12.986 -0.1312 -0.0217  0.2502
14090W        W30564   5.716  13.332   4.822 -0.2830 -0.1227  0.2106
14091W        W30565   0.043   1.594   2.332  0.2733 -0.0235  0.1026
14092W        W30566  12.154  12.847   5.110 -0.0110  0.2044  0.1529
14093W        W30567   7.207  18.403  14.720  0.0284  0.0904  0.3482
14094W        W30568  13.974  15.918  15.029  0.4385  0.3158  0.0598
14095W        W30569   8.176  10.173  11.450  0.0464  0.0721 -0.0045
14096W        W30570   6.951  18.494  14.289  0.1163  0.0568 -0.0310
14097W        W30571   7.741   9.889  13.144 -0.1587 -0.1868 -0.0627
14098W        W30572  18.387   9.406  13.212  0.0638 -0.0996  0.1402
14099W        W30573  11.497   0.902   2.589  0.2720 -0.0707 -0.5115
14100W        W30574   8.768   0.538  13.620 -0.1534  0.0931 -0.3855
14101W        W30575  13.539   6.352   2.096  0.0490  0.3153  0.3477
14102W        W30576   1.964  13.213   2.442  0.1001 -0.3820  0.2885
14103W        W30577   5.003   4.145  14.636 -0.0294 -0.2079 -0.2056
14104W        W30578   8.530   6.066   0.817 -0.0782 -0.1096 -0.2270
14105W        W30579  18.079   0.621   4.544  0.2014 -0.0624  0.0772
14106W        W30580  12.247   6.204  11.635 -0.3522 -0.0061 -0.0411
14107W        W30581  16.937  10.017  13.011  0.3092 -0.1344  0.3305
14108W        W30582  12.213  13.371  14.789  0.0992 -0.1696 -0.1703
14109W        W30583   7.104  18.080   0.758 -0.5559  0.1756 -0.0112
14110W        W30584   9.889   9.232   2.705  0.2986 -0.4690  0.4208
14111W        W30585   4.748   7.076   2.391 -0.1935  0.0186  0.3969
14112W        W30586   6.259  16.584   0.002  0.0171 -0.0918  0.0906
14113W        W30587  10.224   3.113   3.408 -0.1939 -0.2240 -0.0007
14114W        W30588   8.008  10.767   5.428 -0.1438  0.0963  0.1464
14115W        W30589  13.592   9.586   3.359  0.0320 -0.1481 -0.0666
14116W        W30590  10.874   9.631   2.570 -0.1907  0.2766  0.1074
14117W        W30591   0.072   6.200  13.231 -0.1798 -0.1304 -0.0793
14118W        W30592   7.035  15.133   3.517 -0.0084  0.1728 -0.1389
14119W        W30593   4.923   8.029  15.478 -0.1827  0.2326  0.0375
14120W        W30594   4.468  18.180  15.579  0.2060 -0.3008  0.1349
14121W        W30595   3.772   3.360   2.030 -0.2766  0.4129 -0.0541
14122W        W30596   1.820  16.360   3.279  0.0556  0.0597  0.3677
14123W        W30597  10.014  15.253  14.357 -0.0981 -0.1788 -0.1725
14124W        W30598   7.155  16.828  12.959 -0.0953 -0.0608  0.0427
14125W        W30599   3.255  13.053   3.085  0.0117 -0.2279  0.3347
14126W        W30600   8.658   5.301  14.569 -0.1459  0.0059  0.3816
14127W        W30601  10.281   2.550  14.197 -0.1622  0.3042  0.1810
14128W        W30602   0.403   0.476  15.445  0.2265  0.2948  0.1674
14129W        W30603  10.258   3.532  13.315  0.2252 -0.0611  0.2533
14130W        W30604   5.661   7.178   2.810  0.0624  0.4065 -0.0166
14131W        W30605   6.742   4.712   4.000  0.0598 -0.0337 -0.2732
14132W        W30606  17.070  11.165  11.378 -0.1935 -0.1288 -0.1004
14133W        W30607  15.816  17.917   0.542  0.2115  0.2441  0.0666
14134W        W30608  14.268   6.803  11.061  0.0541 -0.2386  0.0159
14135W        W30609  15.141   9.882   3.314 -0.2269 -0.0908  0.0366
14136W        W30610   8.363   6.078   0.296 -0.0753 -0.0316  0.1742
14137W        W30611  14.580   8.887   3.818  0.0186 -0.2955 -0.0876
14138W        W30612   0.295   8.426   1.719 -0.1425  0.0896  0.4580
14139W        W30613   4.803  10.325  13.924 -0.3784  0.1310 -0.0664
14140W        W30614   8.914   1.027   1.561 -0.1633 -0.0192 -0.0396
14141W        W30615  18.512  17.324  13.269  0.0964  0.1766  0.0961
14142W        W30616  15.155  16.435   1.117 -0.0113 -0.0084  0.0288
14143W        W30617   9.939  17.820   5.002  0.0987 -0.0954  0.0063
14144W        W30618  18.587  11.611   5.259 -0.0103  0.1120 -0.0017
14145W        W30619   2.603  11.392  15.554 -0.1798  0.0773 -0.1864
14146W        W30620   1.529  11.065  13.436  0.0616  0.0944 -0.2010
14147W        W30621   5.438   1.762   3.018 -0.0834 -0.0872 -0.3146
14148W        W30622  15.510  15.779  14.683 -0.0191  0.2499 -0.0188
14149W        W30623   8.238  16.372  12.143 -0.1132  0.2081  0.0079
14150W        W30624  16.164  14.721   0.654 -0.0409 -0.1149 -0.0120
14151W        W30625   2.237  16.088  11.882  0.0245  0.1215 -0.1064
14152W        W30626  14.066   8.567   4.594  0.1573  0.0220 -0.0392
14153W        W30627  14.406   0.683   1.101 -0.1425  0.1504  0.1916
14154W        W30628  15.383   4.675  11.542 -0.1953  0.2322  0.0402
14155W        W30629  16.681  10.274  11.204 -0.0651 -0.0149  0.1024
14156W        W30630  13.589   1.048  13.825 -0.0217 -0.3280 -0.0270
14157W        W30631  11.670  13.235  13.426 -0.1033 -0.3157  0.0336
14158W        W30632   4.290   8.057   0.812  0.0964 -0.1365  0.2091
14159W        W30633  16.896  12.109  11.317  0.1566 -0.0609 -0.2380
14160W        W30634  10.377  16.799  11.623  0.1600  0.0546  0.0963
14161W        W30635  17.445   4.313  12.525  0.0873 -0.0126 -0.1336
14162W        W30636  10.705   8.122   2.035 -0.2772  0.1611 -0.0751
14163W        W30637  15.792   0.048   1.442 -0.1469 -0.0936 -0.0228
14164W        W30638  13.421  13.801   5.033  0.0787 -0.1856  0.0042
14165W        W30639  15.072   7.441   4.236 -0.1976  0.0165  0.0070
14166W        W30640   5.702   0.178   1.605  0.0055 -0.5005  0.1878
14167W        W30641   7.863   8.268   5.824 -0.2429 -0.0860  0.1615
14168W        W30642   9.634   8.421  15.683 -0.0516  0.0162 -0.2457
14169W        W30643   6.336   1.716   4.777  0.1778  0.0712 -0.0261
14170W        W30644  12.860   6.783   2.070  0.2713 -0.1952  0.1375
14171W        W30645  13.852  10.212  10.907  0.0084  0.2482  0.3582
14172W        W30646   3.341   6.750   3.037 -0.2810 -0.0049  0.1161
14173W        W30647  15.012   0.474  11.755  0.4549  0.0983 -0.1562
14174W        W30648   1.823  18.224  12.793 -0.2243 -0.1922 -0.5461
14175W        W30649  18.458  16.851   0.449  0.0264 -0.0430 -0.0307
14176W        W30650   4.527  15.534   0.258 -0.2217  0.3643 -0.0824
14177W        W30651  12.882  10.936   0.662 -0.1139  0.1817 -0.1000
14178W        W30652  15.535  15.668  10.394  0.1070 -0.2011  0.0802
14179W        W30653   8.886   1.045   4.209 -0.5692  0.0275  0.2688
14180W        W30654   2.955  10.922   2.524  0.0608 -0.1355 -0.2581
14181W        W30655   5.284  12.748  15.109 -0.2685  0.0368 -0.0795
14182W        W30656   7.605   0.946  12.236  0.5921 -0.1061  0.1910
14183W        W30657  13.805   4.785  14.307  0.3153 -0.0999 -0.2222
14184W        W30658  16.599  14.434  14.481 -0.2945  0.1840 -0.3276
14185W        W30659  11.791  17.841  13.819 -0.2167  0.2504 -0.0528
14186W        W30660  17.406   6.325   4.871 -0.0671 -0.1739  0.2588
14187W        W30661  11.374   8.757   1.909  0.1419 -0.1721  0.0974
14188W        W30662   0.514   0.559  10.367 -0.0147  0.1719  0.0540
14189W        W30663  12.221   0.776  15.114 -0.1930  0.0816 -0.2092
14190W        W30664  13.128   0.601   2.501  0.0893 -0.0318  0.0681
14191W        W30665  15.728   3.841   3.118 -0.2883  0.1275 -0.3321
14192W        W30666   6.405   3.202   5.313  0.1078  0.0542 -0.0395
14193W        W30667   8.021  17.574  15.329  0.0523 -0.0703  0.0996
14194W        W30668  18.351   6.774   3.911 -0.0817 -0.0344  0.1074
14195W        W30669   4.104  15.439  11.247  0.2023 -0.2109  0.1433
14196W        W30670   5.353   8.602   2.927  0.5212  0.0409  0.2906
14197W        W30671  16.563  10.973  11.143 -0.1052  0.1136 -0.0617
14198W        W30672  11.265   3.751   5.388 -0.4432  0.0977 -0.3589
14199W        W30673   8.653   1.605   0.940 -0.1012 -0.1371 -0.1007
14200W        W30674  12.747   3.993  15.560  0.1708  0.0683  0.0845
14201W        W30675   4.692  11.307  12.998 -0.0783  0.0500  0.2264
14202W        W30676  17.143  11.334  15.356 -0.1591 -0.1291  0.2897
14203W        W30677  14.672   1.341  12.841  0.0289  0.0180  0.1673
14204W        W30678   3.454   0.077  14.580 -0.0577  0.1822  0.0167
14205W        W30679   3.515  11.431   4.053  0.2368 -0.0257  0.0529
14206W        W30680  11.384   7.034  14.417  0.0034  0.0102  0.2552
14207W        W30681   3.813   7.405   2.288 -0.1218 -0.1476 -0.2866
14208W        W30682   6.035  13.041   1.185 -0.2608  0.1834  0.0301
14209W        W30683   3.960  16.047  14.376 -0.2569 -0.1816 -0.0864
14210W        W30684   4.731   0.290  14.362 -0.1202  0.5969 -0.0689
14211W        W30685  11.208   7.164   5.145  0.2169  0.0734 -0.1112
14212W        W30686  17.875   8.995   4.471 -0.0146  0.0886 -0.0082
14213W        W30687   0.753   2.882  14.917 -0.1375  0.0882  0.1450
14214W        W30688   8.314  17.725   3.775 -0.1085 -0.2743 -0.2034
14215W        W30689   9.464  10.205   3.266  0.1093  0.1913  0.1622
14216W        W30690  13.376  14.184   0.141 -0.3059 -0.0585 -0.0449
14217W        W30691   1.252  18.603  11.347  0.1835 -0.0411  0.1539
14218W        W30692   7.125  14.363  13.217 -0.0271  0.0874 -0.1753
14219W        W30693  18.833  13.296   4.750  0.2380  0.3577 -0.0729
14220W        W30694   3.866  11.550  11.785 -0.0872 -0.0786  0.2223
14221W        W30695  15.509   2.593  13.389  0.0739 -0.0982 -0.1419
14222W        W30696   9.048  10.189   4.854 -0.0658 -0.0358 -0.0758
14223W        W30697   5.249   6.524  12.105  0.2921 -0.1370 -0.1541
14224W        W30698  14.267   2.643  11.951 -0.1010  0.0407 -0.0048
14225W        W30699  17.507   4.259  14.599  0.1556 -0.1106 -0.1757
14226W        W30700   9.725  18.067   2.892  0.2548 -0.0443 -0.0603
14227W        W30701  11.879  11.470  11.869 -0.2856 -0.0972  0.0009
14228W        W30702   9.823   3.700   2.296 -0.2991 -0.2630  0.0452
14229W        W30703   7.847  12.949   2.697 -0.1880 -0.2666 -0.0711
14230W        W30704  11.867   2.001  14.412  0.2547  0.4333  0.0381
14231W        W30705   7.631  12.883  10.629 -0.1525 -0.4277  0.0828
14232W        W30706  17.510   2.207  12.127 -0.0447  0.3017  0.0327
14233W        W30707  15.517  17.139   4.645  0.0811 -0.0153  0.0387
14234W        W30708   4.711   6.069  14.697  0.1686  0.1528 -0.2406
14235W        W30709  15.422   5.860  14.989  0.0319 -0.0228  0.0676
14236W        W30710   5.889   0.787   5.866 -0.0182 -0.0933 -0.3841
14237W        W30711  13.056   0.333   1.036 -0.0564 -0.2799 -0.0311
14238W        W30712  14.904  11.034   1.703 -0.3152 -0.0160  0.1278
14239W        W30713   9.198   1.523   5.475 -0.1774  0.1045  0.0432
14240W        W30714  16.530   0.581  12.521 -0.1048  0.1125  0.1799
14241W        W30715   6.985   5.905   5.943 -0.5674 -0.2634  0.0012
14242W        W30716  15.717   2.610   1.625 -0.3127  0.2397  0.0142
14243W        W30717   0.420   1.959   0.226  0.0329  0.1084  0.1308
14244W        W30718  15.425   7.995   1.124  0.1557 -0.1358 -0.0154
14245W        W30719  18.373  17.868  11.703  0.0506  0.2145  0.0235
14246W        W30720   0.599   7.363   0.851 -0.3562  0.0686  0.3545
14247W        W30721   3.765   6.518   0.292  0.3398  0.0376  0.1758
14248W        W30722  17.409  14.822  12.653  0.2356 -0.2693  0.1243
14249W        W30723   8.610   0.693   3.898 -0.1636  0.0656 -0.3072
14250W        W30724   4.505  17.887  13.678 -0.0119 -0.1912  0.0022
14251W        W30725  18.688   0.516  11.919 -0.1705  0.3370  0.2016
14252W        W30726   7.188   8.817   1.420 -0.1560 -0.1650  0.0107
14253W        W30727   6.727  16.439  11.062  0.0264  0.1746  0.4657
14254W        W30728   9.518   5.561   1.608 -0.2374 -0.0679  0.1584
14255W        W30729  15.386  17.542   1.642 -0.2876 -0.2499  0.0378
14256W        W30730   5.730   0.210   5.189 -0.1079  0.1999 -0.1703
14257W        W30731   2.615   5.633  15.050  0.0323 -0.0792 -0.0282
14258W        W30732  13.631   8.713   5.851  0.3459 -0.0486  0.0624
14259W        W30733   8.791   5.268   4.541  0.0042  0.1336 -0.0079
14260W        W30734  18.000   5.867  14.606  0.0127 -0.2502  0.3226
14261W        W30735   7.234   5.026  13.319  0.0234  0.3549  0.3069
14262W        W30736   9.288   2.611   5.550  0.0397 -0.1470 -0.2818
14263W        W30737   5.542   0.626  12.661 -0.0822  0.0255 -0.0262
14264W        W30738   8.538   3.036   0.022 -0.1839 -0.2496  0.0413
14265W        W30739   0.905   0.708  12.614 -0.2455 -0.0369  0.0928
14266W        W30740  14.922   3.371  12.262 -0.1761  0.0403  0.2425
14267W        W30741   6.761   0.607   4.191 -0.0771 -0.0814 -0.0474
14268W        W30742   8.435   5.359  13.703  0.0735 -0.1055 -0.0443
14269W        W30743  10.735  10.774   5.273 -0.1045  0.1531  0.2460
14270W        W30744  16.837  16.864  13.054 -0.3394 -0.2383 -0.2524
14271W        W30745  18.235   2.907  10.719  0.1696 -0.1186 -0.1268
14272W        W30746  17.920  13.730  12.934  0.0800 -0.1164  0.0309
14273W        W30747   5.292   5.420   1.626  0.1194  0.1555  0.0504
14274W        W30748  14.730   8.267   1.960  0.0138 -0.0521  0.0297
14275W        W30749   3.003  16.357   4.652  0.4741 -0.0528  0.1197
14276W        W30750   7.643  17.200  12.451  0.0024 -0.0817 -0.1061
14277W        W30751   6.080  13.715   0.625  0.0463 -0.0740  0.0486
14278W        W30752  15.951   3.587  12.924 -0.0870  0.1426  0.1289
14279W        W30753  13.827  14.325  10.472 -0.0689  0.0220 -0.2718
14280W        W30754   6.598   0.462   3.716  0.1263 -0.2423  0.4081
14281W        W30755  17.316  16.392   1.304 -0.3404 -0.2377 -0.1831
14282W        W30756  12.510   2.152  11.088  0.0255 -0.4268  0.1167
14283W        W30757  12.876  10.008   1.900  0.2137 -0.0469  0.3596
14284W        W30758   6.605  10.682  10.933  0.1556  0.3073  0.1668
14285W        W30759  17.312  17.431  13.602 -0.2011 -0.0411 -0.0985
14286W        W30760  13.921  16.028  15.599  0.1320  0.0247 -0.0368
14287W        W30761   6.221  12.540   4.616  0.2265  0.4422  0.1195
14288W        W30762  14.888   7.408   3.398  0.1914 -0.0116  0.0361
14289W        W30763   7.621   7.235  13.441  0.1787 -0.1986  0.2919
14290W        W30764  17.674   8.438  12.040 -0.0208  0.1599  0.0029
14291W        W30765   6.892   2.214   5.429 -0.1073 -0.0889  0.0907
14292W        W30766  16.209  11.756  11.986 -0.0373 -0.1274 -0.1156
14293W        W30767  11.043   3.486   0.745  0.1444  0.0401 -0.2024
14294W        W30768   6.097  18.156  12.450  0.0494  0.2764 -0.0499
14295W        W30769   7.734   3.085   3.496 -0.1886 -0.0209  0.0517
14296W        W30770   0.237   5.269   1.409  0.0013 -0.2390  0.3251
14297W        W30771  13.998  12.253  13.401 -0.3499 -0.3432 -0.2148
14298W        W30772  10.401  15.897   4.389 -0.0942  0.2872  0.3010
14299W        W30773  13.372   0.891   4.816  0.0545  0.3356  0.0709
14300W        W30774   2.053  10.485   3.988 -0.0476 -0.1043 -0.1724
14301W        W30775  18.688   1.358   0.678 -0.0269 -0.2605 -0.0223
14302W        W30776  14.376   9.157  15.072  0.3826 -0.0516 -0.0151
14303W        W30777  17.760  10.068   0.814 -0.0787  0.1521  0.0820
14304W        W30778   8.907  11.345   0.262  0.1921 -0.1288 -0.0539
14305W        W30779  15.236   5.365  10.841 -0.4198  0.1418  0.0263
14306W        W30780   1.108   6.659   1.725  0.0123  0.1210  0.0497
14307W        W30781  13.629   1.489  14.602  0.2510  0.2292 -0.2110
14308W        W30782  16.299   5.917  12.159  0.1069  0.4338 -0.0724
14309W        W30783  15.082   9.735   2.250 -0.1286  0.0027 -0.2324
14310W        W30784   1.060   8.945  11.300 -0.0392  0.3235 -0.0751
14311W        W30785  10.069  11.761   5.791  0.0994  0.1715 -0.2747
14312W        W30786   6.537  10.044  14.012 -0.1175 -0.0302  0.0057
14313W        W30787   4.245  15.751  13.574 -0.2266 -0.0724  0.0529
14314W        W30788   0.023  17.041   2.749 -0.2998  0.2371 -0.1885
14315W        W30789   4.229  10.715   4.154  0.1785  0.0935 -0.3129
14316W        W30790  18.076   5.258  12.256 -0.2046 -0.1136  0.1556
14317W        W30791  16.005   7.292   3.575 -0.0356 -0.1933  0.0871
14318W        W30792  12.452   0.209  14.234 -0.3036  0.4718 -0.2242
14319W        W30793  16.668  11.432   0.107  0.0088 -0.1440 -0.1061
14320W        W30794  11.809  16.059   4.628  0.0217  0.0349  0.0772
14321W        W30795  17.827  15.439  14.502 -0.1190  0.1297  0.1572
14322W        W30796   5.305   4.218   5.779 -0.1828 -0.4030  0.0943
14323W        W30797   8.059   1.382   4.032 -0.0963  0.0021 -0.1758
14324W        W30798   5.287  15.935  12.547  0.0471 -0.0791 -0.0397
14325W        W30799  15.496   3.361  10.795  0.1531  0.3893  0.2701
14326W        W30800   4.321   2.512   5.165 -0.0127  0.4969  0.0062
14327W        W30801  13.539  13.761  12.184  0.1690 -0.1003 -0.0061
14328W        W30802  14.663  14.864  14.495  0.0160 -0.2886  0.1980
14329W        W30803  13.345  18.106  15.383 -0.0855 -0.3241  0.3423
14330W        W30804   9.726   0.926   3.734  0.1458 -0.1096  0.1120
14331W        W30805  16.145   1.598   4.052 -0.3097 -0.0008 -0.0936
14332W        W30806  11.036  14.541   1.229 -0.1858 -0.3038  0.0397
14333W        W30807   3.069  16.028  14.500 -0.1829  0.0089  0.0935
14334W        W30808   1.142  13.344   1.017  0.1374 -0.2237  0.2762
14335W        W30809   6.242   8.146   1.419  0.2529  0.2294 -0.1193
14336W        W30810   8.164  13.355   2.634 -0.1312  0.0854  0.0753
14337W        W30811  17.784  14.335  12.436  0.2496  0.0189 -0.2045
14338W        W30812  13.493   6.294  13.430  0.1169  0.1167 -0.1791
14339W        W30813  12.705   8.035  15.103 -0.2428  0.3343  0.0720
14340W        W30814  16.036  10.700  10.436  0.1032  0.0195  0.2545
14341W        W30815  17.555   4.456   2.538  0.0701  0.0957  0.3731
14342W        W30816  10.797   2.321  11.432  0.0563 -0.1599 -0.0710
14343W        W30817   1.499   6.556  15.578  0.0946  0.3334 -0.1239
14344W        W30818   6.864  15.521   3.821 -0.4600  0.2244  0.0351
14345W        W30819   0.842  14.971  14.618  0.1980  0.0133 -0.1254
14346W        W30820   7.170  11.332  14.395  0.0867 -0.4910 -0.0533
14347W        W30821   7.580  11.306   6.030  0.0397 -0.2292  0.0090
14348W        W30822  17.959   2.685  11.081  0.2444  0.2803 -0.0139
14349W        W30823  13.882   4.892  14.785  0.0446  0.1220  0.3581
14350W        W30824  10.631  17.687   0.626  0.2965 -0.1547  0.1757
14351W        W30825  18.174   0.361  13.353  0.0970 -0.1387  0.0765
14352W        W30826  17.801   5.473   2.667 -0.3992 -0.3123  0.1153
14353W        W30827  10.131   5.632   5.799  0.1122  0.1627 -0.3662
14354W        W30828  11.000  15.436   3.597 -0.1404 -0.1652 -0.3483
14355W        W30829  15.326  10.857   1.973  0.0648  0.0262  0.0926
14356W        W30830  16.752   2.883  12.060  0.1623  0.0153  0.0683
14357W        W30831   4.175   6.010  11.988 -0.2138 -0.1092 -0.2123
14358W        W30832   6.965  12.829   1.030  0.0029 -0.1803 -0.3588
14359W        W30833   6.874   5.059  11.349 -0.1270  0.0219  0.1133
14360W        W30834   7.418   5.755   1.368 -0.3927  0.0557  0.2941
14361W        W30835   4.936  10.469  12.869 -0.1172 -0.1735  0.1991
14362W        W30836  14.319   4.770   2.570 -0.0654 -0.1533 -0.0888
14363W        W30837   1.994  10.202   1.317  0.1562 -0.0551 -0.0032
14364W        W30838   2.433   8.684   0.545 -0.1431  0.3328  0.2058
14365W        W30839   6.914   1.614   4.809 -0.1243  0.2763  0.1821
14366W        W30840  10.416   2.393  15.431  0.0437  0.2095  0.2811
14367W        W30841  13.390  16.714  14.070  0.2934 -0.0872  0.0700
14368W        W30842   5.026  14.018   2.223 -0.0572 -0.1525  0.1678
14369W        W30843  18.474   5.734  10.115 -0.0594  0.1256  0.1378
14370W        W30844   1.080   7.183  12.060 -0.1672  0.2316 -0.2123
14371W        W30845  16.425   7.351  13.351 -0.2198 -0.1712 -0.2212
14372W        W30846  15.522   5.788   9.847 -0.2501 -0.2580  0.0253
14373W        W30847   0.371   7.107  14.949  0.5062 -0.0563 -0.0379
14374W        W30848   0.781   6.304   4.071  0.2143  0.0868  0.0907
14375W        W30849   7.975   3.408  10.978  0.0045 -0.1409 -0.0168
14376W        W30850  11.320   9.050  12.518 -0.2245 -0.3763  0.1362
14377W        W30851  16.726  11.898  14.660  0.0066  0.1148 -0.3957
14378W        W30852   5.835  12.797  14.258 -0.1799  0.2644  0.1438
14379W        W30853   0.092  12.199   3.638 -0.4117  0.0045  0.0098
14380W        W30854  10.028   3.069  12.179  0.2135 -0.0662  0.1540
14381W        W30855   4.514  13.241  12.584 -0.0949 -0.1443  0.1518
14382W        W30856   6.324  16.276   0.437 -0.2079 -0.1734  0.0692
14383W        W30857  17.817  17.686   3.367  0.0788  0.0629 -0.1306
14384W        W30858  13.743   2.377  13.287  0.0883  0.0670 -0.1786
14385W        W30859   2.082  16.645   2.231 -0.3184  0.1228 -0.4850
14386W        W30860  15.289  14.949  13.047 -0.0755 -0.0316  0.2510
14387W        W30861   5.221  16.233  12.148 -0.1533 -0.1359 -0.1744
14388W        W30862   8.368   7.934  13.966  0.0036  0.0424  0.0772
14389W        W30863  13.969  14.184   1.722  0.1152 -0.0352  0.0769
14390W        W30864   3.624  13.558   4.606 -0.2636 -0.0165 -0.4184
14391W        W30865  13.010   0.788   1.372 -0.2806 -0.1329  0.0258
14392W        W30866  15.000  15.320   1.987  0.1638  0.2581 -0.1575
14393W        W30867   9.768   1.870  15.283  0.0254 -0.1716  0.0253
14394W        W30868   7.707   4.014  15.375  0.0287 -0.0785  0.0233
14395W        W30869   3.684   9.579  13.714 -0.1339 -0.1948  0.0816
14396W        W30870  13.594  17.578   0.157  0.2490 -0.1690 -0.1759
14397W        W30871   1.096   9.378   4.838 -0.0318  0.1583  0.1980
14398W        W30872   0.054   8.878   4.459  0.0911  0.0956  0.0624
14399W        W30873   4.896   0.009   3.107 -0.2322 -0.2966  0.0471
14400W        W30874   7.467  10.801  11.388  0.4666  0.1240  0.2554
14401W        W30875   5.597   3.387   4.372  0.0403  0.1907  0.1907
14402W        W30876   7.835   9.826   2.026  0.2437  0.3796 -0.3841
14403W        W30877  13.664   5.796  12.166 -0.1947 -0.0235  0.2796
14404W        W30878   7.920   3.039   0.661 -0.1061  0.1286  0.1063
14405W        W30879   8.717   7.205  15.151 -0.0072 -0.0108 -0.2058
14406W        W30880  15.732   2.799  15.096 -0.0225 -0.2623  0.0431
14407W        W30881   6.781   6.672   2.517 -0.1909 -0.0851 -0.0747
14408W        W30882  11.778   4.760   0.761  0.0316  0.1832  0.1032
14409W        W30883   5.089  10.659  11.029  0.3714  0.2015 -0.0030
14410W        W30884  13.274   3.848   0.086 -0.2370  0.3947 -0.1736
14411W        W30885   3.368  17.780   2.990  0.4121  0.0433 -0.4647
14412W        W30886  10.999   3.516  12.885  0.0645 -0.1246 -0.1983
14413W        W30887   3.570   3.809   2.198  0.2165 -0.0849  0.2504
14414W        W30888   5.920  13.382   0.241 -0.1109 -0.0281 -0.5038
14415W        W30889   9.083  18.171   5.302 -0.1083 -0.0929 -0.2047
14416W        W30890   3.234  18.303  12.292 -0.1866  0.1631 -0.0778
14417W        W30891   0.883   7.081   0.030  0.0160 -0.1595 -0.3169
14418W        W30892  11.652   5.294  13.068 -0.1502  0.0175  0.3027
14419W        W30893  12.336   5.788   5.412  0.0288 -0.3080 -0.2273
14420W        W30894   2.491  12.133   1.988 -0.1702  0.1170 -0.4411
14421W        W30895   8.125   3.073  13.911  0.1075 -0.2184  0.0810
14422W        W30896  13.865   7.839  10.127  0.4434 -0.1560 -0.0464
14423W        W30897   7.956   4.597   3.497  0.2260 -0.1298 -0.0196
14424W        W30898   7.825   8.282   2.230 -0.2053 -0.1600 -0.0873
14425W        W30899  18.433  15.466   2.955 -0.2430  0.3065 -0.0187
14426W        W30900  16.089   5.434   1.003  0.0110 -0.5874 -0.2472
14427W        W30901  13.525  13.941   1.729  0.0139  0.0563 -0.0950
14428W        W30902   0.325  14.201  12.688 -0.0265  0.1988  0.0217
14429W        W30903   0.381   7.896   5.314 -0.2485  0.3170  0.0357
14430W        W30904  12.793  15.667   5.461 -0.1572 -0.0780 -0.1946
14431W        W30905  18.296  13.062  11.534  0.1216 -0.1017 -0.0364
14432W        W30906  11.287   0.582   1.077  0.1440  0.1260  0.2578
14433W        W30907   7.114   7.505  13.357 -0.2119 -0.1086 -0.1206
14434W        W30908  18.836   6.995  11.684 -0.0524  0.2174 -0.2397
14435W        W30909   9.305   4.701  11.694 -0.1827  0.1873  0.0063
14436W        W30910  17.441  16.105  13.800  0.1015  0.0816  0.2335
14437W        W30911   1.363   7.538   1.510  0.2286 -0.0154 -0.2298
14438W        W30912   8.803  18.015  14.934 -0.1259  0.0642 -0.0158
14439W        W30913   9.340  14.977   3.658 -0.0401  0.0558 -0.0433
14440W        W30914   5.654  18.476  13.609 -0.0685  0.0539  0.3276
14441W        W30915  15.142  10.461  10.510 -0.2569 -0.0848 -0.1419
14442W        W30916  17.966   8.934  12.144  0.0063  0.1450 -0.0708
14443W        W30917  18.354   1.030   5.251 -0.0764 -0.1670  0.2779
14444W        W30918  11.694   9.603  11.660 -0.1129  0.1599  0.1324
14445W        W30919   5.054  15.662   2.667  0.1018  0.0272  0.1224
14446W        W30920  18.441  12.480  15.286 -0.1722 -0.1909 -0.3721
14447W        W30921  10.905   5.291   2.601 -0.0242 -0.2335  0.3205
14448W        W30922  18.234  17.642  13.566  0.1376  0.0017 -0.2515
14449W        W30923  10.125  17.861  11.326  0.2904  0.0547  0.0402
14450W        W30924   1.089  13.600   2.800  0.1244  0.0462 -0.2104
14451W        W30925   9.615   7.572  15.599  0.0656 -0.1457 -0.3063
14452W        W30926  15.729  15.375   1.295  0.2134 -0.1294  0.0023
14453W        W30927  13.872   3.801   2.688  0.2450  0.3141  0.1113
14454W        W30928   2.757  11.299   1.815 -0.0751 -0.0721 -0.0917
14455W        W30929  10.895  18.185   0.075  0.1327  0.2922  0.0959
14456W        W30930   7.379   2.065   5.571 -0.0261  0.0116 -0.0826
14457W        W30931  16.624   4.289   2.168 -0.4506  0.1305 -0.1442
14458W        W30932   8.516   9.131  11.374 -0.2705 -0.1001  0.0180
14459W        W30933  17.639   5.183  11.972 -0.5979 -0.0204 -0.4135
14460W        W30934   6.817   6.138   4.441  0.1390 -0.0630 -0.1433
14461W        W30935  15.427  16.231  14.354  0.3226 -0.0919  0.1602
14462W        W30936   2.953  18.428   5.062 -0.1539 -0.1866 -0.4435
14463W        W30937   8.811  16.155   2.998 -0.3904 -0.2096  0.0842
14464W        W30938  15.537   7.730  10.303  0.0718  0.1848  0.0796
14465W        W30939  16.422   1.997   2.081  0.0245 -0.0443 -0.0571
14466W        W30940   1.723  15.922   0.171 -0.0709 -0.0161 -0.0824
14467W        W30941  13.744  12.031   5.271  0.0620 -0.1693  0.2224
14468W        W30942  17.725  15.175   3.720 -0.2234  0.1271  0.4419
14469W        W30943  11.832  14.604   3.668 -0.2715 -0.5706  0.3411
14470W        W30944   4.655   3.750  12.064  0.0000 -0.1354 -0.1693
14471W        W30945   2.730   3.558  13.576  0.1743  0.1391 -0.2226
14472W        W30946   1.529   4.337   5.616  0.2564 -0.3558 -0.1745
14473W        W30947   3.000   7.852  14.090  0.0610 -0.2043 -0.0678
14474W        W30948   8.594  10.254   4.162 -0.1793 -0.0465  0.1583
14475W        W30949  10.424   5.649   2.434  0.1504 -0.2854 -0.3782
14476W        W30950   6.028   8.338  10.600 -0.2699  0.1070 -0.0883
14477W        W30951  10.320  16.312  13.176  0.0205 -0.0844  0.1958
14478W        W30952  11.376  11.238  13.192  0.0475 -0.1367 -0.0951
14479W        W30953   4.980   4.886  14.021 -0.4166  0.2020 -0.1100
14480W        W30954   7.294   3.957   3.568  0.2201  0.1986 -0.1857
14481W        W30955   4.969  10.502   2.471  0.0875 -0.0148 -0.0334
14482W        W30956  13.248  11.530   5.449  0.1792  0.1749  0.0904
14483W        W30957   0.617   0.643  11.424  0.2873  0.0216  0.1813
14484W        W30958  10.989   6.898   3.315  0.0431  0.4862 -0.0354
14485W        W30959  16.625  15.866  14.949  0.1024  0.3942 -0.2423
14486W        W30960  11.402  13.335  11.515 -0.4006 -0.2402  0.3612
14487W        W30961  15.161   4.236  14.904  0.4477 -0.2827 -0.0301
14488W        W30962   3.398   9.565  10.978 -0.2474  0.0763 -0.2470
14489W        W30963   8.151  14.951   3.177 -0.0910  0.0061 -0.2507
14490W        W30964   9.792  12.980  12.330 -0.2441 -0.0835  0.2089
14491W        W30965  16.720  11.681  12.197  0.2200 -0.0140  0.2471
14492W        W30966   2.843  13.583  12.522 -0.0812 -0.3080 -0.0002
14493W        W30967  17.287   9.155  14.545 -0.0865 -0.1815 -0.0855
14494W        W30968   0.559   7.506  15.423 -0.0022 -0.0954  0.2742
14495W        W30969  14.233   0.009   1.841 -0.1756 -0.1477  0.3007
14496W        W30970   9.083   1.686  12.421 -0.2874 -0.0569  0.1791
14497W        W30971   5.851   7.617   0.044  0.4243  0.0292  0.2483
14498W        W30972  10.173  13.424   1.237  0.2222  0.0700 -0.1367
14499W        W30973   0.131  10.162   4.637 -0.1701  0.0408 -0.2137
14500W        W30974  11.719  17.745  15.214  0.1444  0.2825  0.2139
14501W        W30975   8.683   4.887  13.625  0.3456 -0.1832 -0.0571
14502W        W30976  18.677   7.336  14.842  0.1070 -0.0883  0.0189
14503W        W30977   2.597   0.197  11.658  0.1099  0.0675  0.1295
14504W        W30978  15.690  18.327  11.642  0.1701  0.0538 -0.1058
14505W        W30979  11.547   9.323   4.311  0.1493 -0.2071  0.1338
14506W        W30980  14.657   1.638  14.230 -0.1798  0.3693 -0.0905
14507W        W30981   2.937  13.243  14.681 -0.1331  0.2252  0.0863
14508W        W30982  17.473  13.674  11.540 -0.1499 -0.4029 -0.0428
14509W        W30983  18.516  15.946  14.984  0.1598 -0.0254  0.1887
14510W        W30984  11.847  13.446   3.209 -0.0690 -0.1189  0.1583
14511W        W30985   2.255   8.690   0.041  0.3501 -0.0082  0.1959
14512W        W30986   3.463   5.038   1.529 -0.3397 -0.0532  0.2273
14513W        W30987   6.948   2.631   5.011 -0.0552  0.0045  0.0537
14514W        W30988  10.175  12.857   1.609 -0.2468  0.0562  0.1755
14515W        W30989  11.092   1.572   4.725 -0.0983 -0.0106 -0.0996
14516W        W30990   6.497  11.527   3.251 -0.1235 -0.0058 -0.0947
14517W        W30991   4.086  10.976  11.049  0.1726 -0.0672 -0.0741
14518W        W30992  11.545   2.782  13.100 -0.0099  0.2674 -0.0500
14519W        W30993   5.655  12.706   1.086  0.1907 -0.1495  0.2058
14520W        W30994   0.633  15.934   1.925  0.0708  0.1769 -0.0831
14521W        W30995   8.275   4.992   1.805  0.2377 -0.3354 -0.1963
14522W        W30996  17.476  14.996   0.410  0.1243 -0.0285  0.2561
14523W        W30997   3.500   0.506   3.792 -0.3804  0.1856  0.0217
14524W        W30998   4.903   6.070   1.370  0.1538 -0.0186 -0.0273
14525W        W30999   8.767  18.186   3.814  0.1218 -0.1026 -0.1171
14526W        W31000  18.662   8.933  14.651  0.1463 -0.3787  0.2097
14527W        W31001   1.346   9.350  14.050  0.1009  0.0521 -0.2580
14528W        W31002   2.734   0.697   0.271  0.1556  0.1629  0.1491
14529W        W31003  17.460  12.958   2.034 -0.2756 -0.0449  0.1484
14530W        W31004   9.460  11.232   3.478  0.1237 -0.1909 -0.1612
14531W        W31005   2.013  13.049   3.954 -0.2336  0.1563  0.0059
14532W        W31006  14.235   3.136   4.283 -0.1702  0.0770  0.1442
14533W        W31007   2.238   1.048  13.047 -0.0857 -0.2123 -0.1291
14534W        W31008  17.476   1.990  10.181  0.2069 -0.0887 -0.0282
14535W        W31009  17.119  15.874  10.793 -0.0576  0.0329  0.0173
14536W        W31010   8.774   5.722   2.245  0.4059 -0.3383  0.1736
14537W        W31011   0.157   3.620  12.194  0.5471  0.0702 -0.0711
14538W        W31012   8.251   7.340  14.920  0.0836  0.0441 -0.0216
14539W        W31013  10.993   3.090   1.139 -0.1031 -0.1824  0.1592
14540W        W31014  16.114   0.805  15.638  0.2265 -0.2247 -0.0767
14541W        W31015  18.481  11.413   9.213 -0.3112  0.0489  0.1755
14542W        W31016   3.595  18.444   5.160  0.0541 -0.2660 -0.1176
14543W        W31017   7.614  11.277  11.133 -0.1666  0.3986  0.0061
14544W        W31018  13.752   3.287   4.329  0.0947 -0.2293 -0.0541
14545W        W31019  11.838  13.435   2.674 -0.0814 -0.1493  0.1041
14546W        W31020   4.787   3.674  14.397 -0.2347 -0.1326 -0.0688
14547W        W31021   2.103  14.196  10.416  0.0779 -0.2301  0.1511
14548W        W31022  16.206  17.816   2.959 -0.0212 -0.4904 -0.0235
14549W        W31023   1.720  12.356   2.661  0.3176 -0.2930 -0.1137
14550W        W31024  14.478   1.525  14.833 -0.2732  0.1555  0.2426
14551W        W31025   9.282  14.980   1.808 -0.2512  0.0757  0.0853
14552W        W31026   0.000   9.873   4.234 -0.3637  0.2265  0.2741
14553W        W31027   9.589   9.292   3.204 -0.2872 -0.2157  0.3557
14554W        W31028  17.272  13.689  15.585  0.3076  0.0270  0.1150
14555W        W31029   9.630   7.943   0.248  0.1449  0.0359  0.1525
14556W        W31030  18.686  10.996  12.290 -0.1188  0.2466 -0.0446
14557W        W31031  13.049  15.637   0.908  0.1271 -0.1578 -0.0914
14558W        W31032  13.623   6.679   1.685 -0.0085 -0.0477 -0.1859
14559W        W31033   6.448  12.360  11.890 -0.0371 -0.0576  0.0947
14560W        W31034  14.087   8.399  13.263  0.2489  0.0187  0.0978
14561W        W31035  13.042   3.105  15.144  0.1548  0.2481  0.1769
14562W        W31036   0.507  14.404  10.418 -0.0157  0.3470  0.2732
14563W        W31037   0.973   8.797  15.448 -0.4410 -0.0032  0.3027
14564W        W31038   2.114   5.043   9.960  0.1910 -0.1956 -0.0268
14565W        W31039  14.206   5.351  12.381  0.1265 -0.1428 -0.0612
14566W        W31040  17.643  12.784  12.644 -0.2054 -0.5289 -0.1914
14567W        W31041   8.064   1.807  13.559  0.4177 -0.2180 -0.0876
14568W        W31042   2.351  12.709  13.355 -0.2163  0.0482  0.1697
14569W        W31043  15.552  10.117   5.478 -0.1257  0.1359 -0.0804
14570W        W31044   4.752  16.812   1.306  0.1703  0.0794 -0.2707
14571W        W31045  12.898   5.940  14.770 -0.0941  0.0111 -0.1960
14572W        W31046  18.148  15.138   1.212 -0.1849 -0.2392  0.1408
14573W        W31047   4.645   0.566  13.528 -0.0038 -0.1841 -0.1108
14574W        W31048  15.842  17.242   0.089  0.2064  0.2886 -0.2141
14575W        W31049  10.822  11.056  14.797  0.1047  0.1833 -0.0652
14576W        W31050   5.539  10.074   0.225 -0.6050 -0.0972  0.4451
14577W        W31051  11.431   3.656  12.665 -0.0029  0.2408 -0.0304
14578W        W31052   8.362  11.240  12.462  0.0438 -0.0151  0.1117
14579W        W31053   8.573  16.130   5.712  0.0866 -0.1143 -0.1168
14580W        W31054  17.556   1.574   4.491 -0.0639  0.1513  0.2381
14581W        W31055  13.504   5.717   3.807 -0.0516  0.1595  0.1685
14582W        W31056  17.142   2.752   2.217 -0.1897 -0.2292 -0.0684
14583W        W31057  11.514  13.535   1.530  0.2867  0.0281 -0.1166
14584W        W31058   3.847   2.917   4.079 -0.1614 -0.1015  0.0047
14585W        W31059   6.278   5.379   0.519 -0.4397  0.0684 -0.0306
14586W        W31060   6.406   2.912   1.379 -0.4203  0.2383 -0.0583
14587W        W31061  18.566  11.901   3.439  0.1272 -0.0509  0.4380
14588W        W31062  15.594  10.074  12.503 -0.1084 -0.4895 -0.0455
14589W        W31063  18.433  14.615   3.453  0.1566  0.0482 -0.1715
14590W        W31064  11.404  12.521   2.431  0.0012  0.0281  0.0523
14591W        W31065  16.076  16.223   5.403  0.0217  0.0092  0.0185
14592W        W31066  16.895  15.356  14.830 -0.1717 -0.1611 -0.5328
14593W        W31067  11.232  18.504   1.490  0.1962 -0.0704  0.1460
14594W        W31068   9.740   8.721   0.378  0.2805  0.0423 -0.2844
14595W        W31069  15.547   3.967   1.352 -0.0577  0.0045  0.1743
14596W        W31070  12.877   8.573  12.065 -0.0226 -0.0515 -0.0188
14597W        W31071  17.062  14.877  14.925  0.2498 -0.3961  0.2409
14598W        W31072   3.312  16.966  15.677 -0.2044 -0.1675 -0.1347
14599W        W31073  10.225   5.228  15.589 -0.0531  0.3736 -0.2392
14600W        W31074  13.542   6.916   2.927 -0.0460 -0.1627 -0.1085
14601W        W31075   2.580   7.207   0.437 -0.1009 -0.1457 -0.1822
14602W        W31076   1.524   8.993   2.685  0.0989 -0.2207  0.3263
14603W        W31077  15.460  15.368  13.207  0.0299  0.1728 -0.0749
14604W        W31078  15.093  18.384   0.933  0.1769 -0.0010 -0.0931
14605W        W31079  11.037   7.414   3.133  0.2594 -0.2621  0.1955
14606W        W31080   9.669  11.399  14.643  0.1809  0.1443 -0.1678
14607W        W31081   9.784  17.263  12.457 -0.1946 -0.1348  0.2407
14608W        W31082  17.524   3.229  12.314  0.1788 -0.0722 -0.2686
14609W        W31083   9.932   7.599  15.106 -0.1350  0.0234 -0.2361
14610W        W31084   0.685  16.701   3.484 -0.1405  0.2468  0.1535
14611W        W31085   6.440   8.091   4.242  0.0765 -0.1167 -0.0832
14612W        W31086  16.615   1.006  13.874  0.2451 -0.1767 -0.2903
14613W        W31087   9.719  15.786   0.149  0.1286 -0.1262  0.0591
14614W        W31088  16.024  11.238  15.253  0.0775  0.0212  0.0757
14615W        W31089   8.717   0.600  14.487  0.0058  0.2920 -0.1169
14616W        W31090   7.186  15.595   0.929 -0.0083 -0.1464 -0.1473
14617W        W31091  11.231  10.830  14.929 -0.1139  0.1918 -0.0675
14618W        W31092  11.086   9.383   3.368  0.2199 -0.6369  0.1785
14619W        W31093   1.634   1.772  12.825  0.0297  0.1785 -0.2619
14620W        W31094  14.960  15.543   0.603 -0.0325  0.3339 -0.2023
14621W        W31095  10.102   0.972   1.148  0.1085  0.0093 -0.1314
14622W        W31096  15.397   6.024   1.078 -0.1325 -0.3721 -0.1536
14623W        W31097  11.940   8.254   0.027  0.1805 -0.2468  0.1435
14624W        W31098   2.466   9.386   3.879 -0.2585  0.2843 -0.0752
14625W        W31099  16.701  11.326   3.515  0.0848 -0.1230 -0.3156
14626W        W31100   0.513  12.802  13.034 -0.3993 -0.0781  0.0127
14627W        W31101   9.670   7.406   2.775  0.2581  0.3181  0.0031
14628W        W31102   5.638  12.531  15.467  0.0337 -0.2049  0.1243
14629W        W31103   7.006  18.488   1.476 -0.1824 -0.2708  0.0993
14630W        W31104  10.622  13.468   5.948  0.1373  0.1837 -0.2024
14631W        W31105   6.818   6.771  13.022 -0.1927 -0.0633  0.0438
14632W        W31106  15.019   3.587   2.330  0.1667 -0.0070  0.1489
14633W        W31107   8.832   7.838   2.352  0.1175  0.1123  0.2457
14634W        W31108   7.761   4.736   1.222  0.2507  0.0794 -0.0763
14635W        W31109   1.553   8.377  12.923  0.1751 -0.0787  0.1398
14636W        W31110   5.843  17.880   0.283 -0.1025 -0.0998  0.1089
14637W        W31111   1.983  15.608   5.755  0.2048 -0.0165 -0.1249
14638W        W31112   4.915   2.591  11.136 -0.1366 -0.1017 -0.1638
14639W        W31113   8.837  16.432   0.253 -0.0971  0.2790 -0.0685
14640W        W31114  11.095   0.721  14.943 -0.1621  0.1626 -0.1075
14641W        W31115  15.770  15.491   0.517  0.0262 -0.0245 -0.3580
14642W        W31116   6.840  12.553   0.032 -0.0676 -0.0229 -0.3291
14643W        W31117   9.120   5.389   6.075 -0.0587  0.1420  0.0331
14644W        W31118  17.480  16.888   3.878  0.1474 -0.1643 -0.1848
14645W        W31119  14.519   6.948  11.525 -0.2707 -0.2376  0.2682
14646W        W31120   6.085   3.767   0.544  0.0130  0.1203  0.0383
14647W        W31121  15.211   8.707   2.409  0.0989 -0.2487 -0.2002
14648W        W31122  16.931  14.653  12.563  0.1024 -0.1903 -0.0477
14649W        W31123   6.695  11.406   4.298  0.3769 -0.2957 -0.0774
14650W        W31124   9.745   9.452   2.147  0.2174  0.0100  0.1931
14651W        W31125   7.300  16.429   2.896 -0.1023  0.0801 -0.0672
14652W        W31126   4.525  13.740   5.231 -0.0586 -0.0490 -0.4495
14653W        W31127   1.934   2.185  15.473 -0.0865 -0.1021 -0.0028
14654W        W31128  12.709  13.955  12.049 -0.0361 -0.0870 -0.0053
14655W        W31129  15.363   9.357   4.345  0.2551 -0.2577  0.1620
14656W        W31130  15.312   1.137  13.690  0.1914 -0.1614  0.2226
14657W        W31131  14.726  12.985  12.134 -0.3328 -0.1273  0.2082
14658W        W31132   8.558  12.715   3.260 -0.2280  0.2239  0.1660
14659W        W31133   0.717   9.711  15.022  0.1350  0.0830  0.4599
14660W        W31134   7.734   6.861   2.086 -0.0340 -0.0670 -0.1600
14661W        W31135   4.128   5.208   4.362  0.0400 -0.2243  0.2402
14662W        W31136  12.971   6.024  13.667  0.0872  0.0994  0.0835
14663W        W31137   5.134   2.919  13.558 -0.1465  0.5486 -0.4203
14664W        W31138   2.900  13.008  12.464 -0.0570 -0.0860  0.4623
14665W        W31139  15.028  18.690  13.976  0.2652 -0.0600 -0.1491
14666W        W31140  13.587   9.385   5.160 -0.1167 -0.2806  0.1761
14667W        W31141   9.104  10.009   3.016 -0.0607  0.1561  0.1344
14668W        W31142   9.023  14.491  15.409 -0.0502 -0.0239 -0.0238
14669W        W31143   1.718   8.633   0.653 -0.0707  0.0359 -0.1456
14670W        W31144  10.142   6.706   6.647 -0.3207 -0.1445  0.0416
14671W        W31145   8.330   5.509   3.184 -0.3618 -0.2827  0.0582
14672W        W31146  15.917   1.810   1.585  0.3989 -0.2800 -0.1031
14673W        W31147   3.207   2.369   5.372  0.0997  0.2983 -0.2003
14674W        W31148  18.033   5.098  12.697 -0.0313 -0.1098 -0.6194
14675W        W31149   7.865  16.129   2.505 -0.1138 -0.4086  0.1035
14676W        W31150   3.938   9.249  10.539 -0.2311  0.2393 -0.0825
14677W        W31151   1.860   8.743  12.987 -0.0100 -0.1051 -0.0503
14678W        W31152  12.181   1.986   4.471 -0.3212  0.0066 -0.1716
14679W        W31153   6.989  11.377  15.451  0.1713  0.2404  0.0800
14680W        W31154   9.352  18.208  15.454  0.2878  0.0131 -0.4999
14681W        W31155  12.054   9.523  13.979  0.1258 -0.1659  0.0565
14682W        W31156   2.534  10.915  10.610  0.0740 -0.2349  0.1548
14683W        W31157   4.391  10.966   5.761  0.1532  0.0279 -0.2034
14684W        W31158   5.571   3.724   2.107 -0.2815 -0.0502 -0.0035
14685W        W31159   0.084  11.164   0.736  0.2028 -0.2538 -0.1834
14686W        W31160  16.666   1.298   0.608  0.1889  0.0220 -0.2768
14687W        W31161  18.178   3.956   3.335  0.2203 -0.1258  0.2027
14688W        W31162   3.055   6.947   1.724  0.2945  0.2151  0.1776
14689W        W31163   1.476  17.448  10.951  0.1274 -0.3875 -0.1458
14690W        W31164   3.317  14.751  13.150 -0.1014 -0.0510 -0.3913
14691W        W31165   0.515   9.081   2.573  0.3084  0.1232  0.0187
14692W        W31166   4.222   5.429  13.206 -0.2071 -0.4004 -0.0344
14693W        W31167  12.947   9.325  13.433 -0.0260  0.0908  0.3099
14694W        W31168  12.345   5.653   3.056 -0.0372  0.2341 -0.1278
14695W        W31169   3.486   2.451   4.980 -0.1459 -0.0104  0.1820
14696W        W31170   2.668   1.351  13.189 -0.0029  0.1732  0.3145
14697W        W31171  16.236  13.987  11.058 -0.3500  0.0653 -0.0921
14698W        W31172   3.078   3.038  14.960 -0.2524 -0.0055  0.2418
14699W        W31173  11.279   7.982   4.047 -0.0473  0.1827 -0.2306
14700W        W31174  18.565   1.670  12.360 -0.2408  0.2464  0.1040
14701W        W31175   3.198   5.223   3.388  0.3908 -0.0729 -0.3366
14702W        W31176  12.884  11.939   3.694  0.1202  0.0425 -0.0181
14703W        W31177   8.609  16.365   1.916 -0.1649  0.1510  0.1155
14704W        W31178  10.252   5.939  14.473  0.2529 -0.0741 -0.0998
14705W        W31179   5.429  12.413  10.968 -0.0636  0.0472 -0.0037
14706W        W31180   9.432  18.686   4.827 -0.3480  0.3677  0.2053
14707W        W31181   5.215   1.303   3.537 -0.1739 -0.2811  0.0156
14708W        W31182   4.925   2.496  14.134 -0.1865 -0.0394 -0.1001
14709W        W31183   2.207   6.503  12.777 -0.3073 -0.0987  0.0856
14710W        W31184  15.950  12.286  13.107  0.1548 -0.2703 -0.1732
14711W        W31185   5.899  10.433   2.788  0.0094  0.3122  0.0496
14712W        W31186   1.260  17.140  12.736 -0.1076  0.1669 -0.0498
14713W        W31187   4.216   0.236  12.773  0.0850  0.0909  0.3824
14714W        W31188   3.048  18.556   2.252 -0.3029  0.0345 -0.0666
14715W        W31189  11.918  12.075  13.459  0.1565  0.1801  0.5556
14716W        W31190   4.662  11.649   0.010 -0.0213 -0.2359 -0.0621
14717W        W31191   2.916   4.212  12.907 -0.1618 -0.2480  0.0549
14718W        W31192   9.495  12.074  12.850 -0.0490 -0.1588 -0.0701
14719W        W31193   1.648   5.014   3.830  0.3236 -0.0199  0.0711
14720W        W31194   7.987  18.769   3.681  0.1940  0.0619 -0.3580
14721W        W31195  15.438   7.094   4.904  0.0291 -0.0574 -0.0810
14722W        W31196   8.145  16.721  13.613 -0.3358 -0.0059  0.1061
14723W        W31197   8.553   2.923  13.177 -0.0220  0.3009 -0.0741
14724W        W31198   6.717   5.466   1.841  0.0405 -0.1163 -0.0408
14725W        W31199  18.553  11.644  13.304  0.1966  0.2077  0.1524
14726W        W31200  18.216  15.905  11.557 -0.0362  0.1864 -0.1226
14727W        W31201  16.962   4.183  11.682  0.1457 -0.0524  0.0437
14728W        W31202  17.075   9.099   3.739  0.1295 -0.2041 -0.1989
14729W        W31203  12.921   0.023  11.097 -0.1586  0.1423 -0.0373
14730W        W31204   2.509  14.569   5.047 -0.1904 -0.1157 -0.5540
14731W        W31205   1.325  18.240   1.436 -0.0406 -0.0985 -0.0476
14732W        W31206  10.306   9.689   4.510  0.2698  0.0656 -0.1643
14733W        W31207  16.340  11.179   3.079 -0.0951  0.1977  0.3124
14734W        W31208  11.976   0.570  12.066 -0.1459 -0.2988  0.2502
14735W        W31209   1.639  17.435   3.783  0.1072  0.0659 -0.1796
14736W        W31210   8.868  17.325   0.027 -0.1256 -0.4947 -0.0254
14737W        W31211  14.091   5.435   1.665 -0.2053  0.2528  0.3759
14738W        W31212  10.628  12.488  15.077 -0.1214  0.0905 -0.1731
14739W        W31213   0.274   9.557  12.206  0.0454 -0.1670 -0.1827
14740W        W31214  17.617   5.696  14.328 -0.0549 -0.0914  0.2175
14741W        W31215  14.826   4.998  12.873  0.1789  0.0876 -0.1736
14742W        W31216  10.503  14.957  12.347 -0.2475  0.0832  0.1440
14743W        W31217   0.036   4.145  12.403 -0.2809  0.1242 -0.2954
14744W        W31218  11.572   5.123  14.185 -0.2684  0.0268 -0.1460
14745W        W31219  16.024  14.469   0.210 -0.1938  0.0772 -0.0993
14746W        W31220  13.404   6.514   3.157  0.0343  0.1754 -0.0498
14747W        W31221  14.572   8.219   1.201 -0.2917  0.5134 -0.2802
14748W        W31222   8.150   5.169   5.898 -0.3394  0.1089 -0.3322
14749W        W31223   5.257  11.192   0.391 -0.0038  0.2659  0.3060
14750W        W31224  11.515   7.375   2.950  0.0675 -0.3111 -0.1683
14751W        W31225  14.785  12.672  13.082  0.2442  0.0582  0.2486
14752W        W31226  12.854  16.244  12.616 -0.0929 -0.0335  0.3512
14753W        W31227  11.956   4.047   1.510 -0.1200  0.0911  0.1655
14754W        W31228  12.458   3.569   2.498  0.1433  0.3566 -0.0150
14755W        W31229   9.362  16.854   2.157  0.1447 -0.1310  0.2217
14756W        W31230   3.541   8.861  11.420 -0.0025 -0.0128  0.1152
14757W        W31231   2.796  17.719   4.369 -0.0556 -0.0468  0.2806
14758W        W31232   7.947  16.685  15.528 -0.1637 -0.0214 -0.2016
14759W        W31233  12.144  10.325   3.415  0.1021 -0.2243  0.3502
14760W        W31234  13.093   8.554   4.719  0.1568 -0.0971 -0.1810
14761W        W31235  11.001   5.502   1.638  0.0729 -0.0490  0.0796
14762W        W31236  12.459   1.423   3.692  0.3246  0.1660 -0.1670
14763W        W31237  11.632   9.884   5.123  0.1962 -0.1794 -0.1275
14764W        W31238   5.888   2.291  13.943  0.0365  0.1313  0.0818
14765W        W31239   8.288   4.399  13.160 -0.0063 -0.0929 -0.0600
14766W        W31240   3.867  11.635   0.266  0.0122 -0.2243  0.2699
14767W        W31241   5.612  13.877   1.101  0.0133 -0.1497  0.1840
14768W        W31242   6.574   9.048  12.566 -0.1916  0.2273 -0.1244
14769W        W31243   3.254   2.622  15.673  0.2024  0.0968 -0.1832
14770W        W31244  12.806  18.847  13.109  0.1762  0.4561 -0.0869
14771W        W31245   2.198  10.336  14.353  0.3023  0.1341 -0.1683
14772W        W31246   7.818   9.423   0.924  0.1917 -0.2545 -0.2830
14773W        W31247  16.598  11.875  10.884  0.0673 -0.0940  0.0371
14774W        W31248   9.557  17.167   3.508 -0.0933  0.1303  0.2772
14775W        W31249  11.858  18.695  13.070  0.4100  0.0440  0.0050
14776W        W31250   3.936   0.949  13.102 -0.2120 -0.4331  0.0531
14777W        W31251   9.781  14.003   0.459  0.1763  0.1861  0.1847
14778W        W31252   7.186  17.318  12.750 -0.3058  0.1728 -0.1030
14779W        W31253  13.534  16.819   3.805 -0.0473 -0.2138 -0.0366
14780W        W31254  15.589  15.092   0.209 -0.2614 -0.4701  0.2009
14781W        W31255   1.119  18.459   2.884 -0.2096 -0.2254 -0.1892
14782W        W31256   3.024  10.711  11.541 -0.1348  0.3119 -0.1766
14783W        W31257   8.982   4.492  13.028 -0.2427  0.2362 -0.0378
14784W        W31258   2.545   4.537  12.735 -0.2535  0.0669 -0.0834
14785W        W31259  16.738  10.832   3.346 -0.1376 -0.0928  0.0743
14786W        W31260   0.376   3.265  14.489  0.2189  0.0015  0.2802
14787W        W31261  11.748  11.611   1.054 -0.1252  0.0368 -0.4896
14788W        W31262  11.110   4.351  13.158  0.1375 -0.0773 -0.0296
14789W        W31263   7.548  16.132  14.879  0.1944  0.0410  0.0041
14790W        W31264   2.934  12.807  13.890 -0.1200  0.0510  0.1094
14791W        W31265  15.781  12.676  12.349  0.0960  0.0387 -0.3096
14792W        W31266  14.721   6.890   0.776 -0.0168 -0.1297 -0.3221
14793W        W31267  13.880   4.868   4.246 -0.3573 -0.0574 -0.0610
14794W        W31268   3.439  18.048  11.930  0.1398  0.0216  0.0204
14795W        W31269  13.908  12.723   2.447 -0.1655 -0.1138  0.3167
14796W        W31270   1.665  13.571  15.404 -0.2465  0.1869 -0.4711
14797W        W31271   4.111   8.686   4.576 -0.2457  0.3053 -0.1029
14798W        W31272   4.068   3.088   5.086 -0.1052  0.2822  0.1519
14799W        W31273   0.229   2.590   3.371 -0.0324 -0.0743 -0.0858
14800W        W31274  16.544  10.116   0.354 -0.3484  0.1585 -0.0892
14801W        W31275   0.604  10.009   4.838 -0.0810  0.0395  0.2354
14802W        W31276  16.271  12.974   2.698  0.2552  0.2505 -0.1123
14803W        W31277   0.524  13.004   5.994  0.0011  0.1023  0.1940
14804W        W31278   3.725  14.445  13.197  0.1420  0.0692 -0.2359
14805W        W31279   7.681   8.032  12.224 -0.0399 -0.2955 -0.6446
14806W        W31280   0.626   3.993   3.628 -0.3149  0.0623 -0.0011
14807W        W31281   2.668   9.961   2.650  0.0812  0.0720  0.0612
14808W        W31282   1.453   7.293  13.684  0.1236  0.2171  0.1070
14809W        W31283   0.314   2.643   4.217 -0.0822  0.1040  0.1473
14810W        W31284  10.913  13.812   6.117  0.0556  0.0538 -0.2797
14811W        W31285   9.017   1.368   0.670  0.0492  0.0608  0.1607
14812W        W31286  15.675   4.015   4.385 -0.3524 -0.4114 -0.1070
14813W        W31287   8.960  12.213   2.691  0.1731  0.2572 -0.0370
14814W        W31288   4.097   6.129   5.462 -0.1619 -0.1074 -0.0183
14815W        W31289   0.475   1.409  14.617 -0.0942 -0.2718 -0.0742
14816W        W31290   7.001  12.007  12.102  0.0080 -0.0029 -0.0174
14817W        W31291   8.600   8.939   1.211 -0.2085 -0.0747  0.1577
14818W        W31292  13.530   4.398  14.599 -0.0312  0.0876 -0.3619
14819W        W31293   3.001   7.842   1.210 -0.1682  0.1117  0.1970
14820W        W31294   0.404   5.720  15.119  0.2524  0.3720  0.1706
14821W        W31295   6.830   5.485   5.738  0.1367 -0.5273 -0.1652
14822W        W31296   6.032  18.117  11.604  0.0395 -0.0568 -0.1138
14823W        W31297   9.253  17.334  14.155 -0.0690 -0.1576  0.0295
14824W        W31298   0.631   8.483  12.929 -0.1853  0.1970  0.0194
14825W        W31299  10.341  15.324   1.282  0.1369 -0.2350  0.1959
14826W        W31300   1.010   3.366   0.110 -0.0264 -0.0447 -0.0735
14827W        W31301  12.618   2.656  11.491 -0.5402 -0.2123  0.3055
14828W        W31302  10.510   2.979  13.102 -0.1088 -0.4309 -0.1203
14829W        W31303   5.438  11.083   2.598 -0.1368  0.0340 -0.3765
14830W        W31304  16.507  18.152   2.163 -0.1950 -0.0188 -0.0026
14831W        W31305  13.431  12.105   1.816  0.1950 -0.5491  0.0419
14832W        W31306  12.750  11.543   1.195 -0.1926  0.0776 -0.0480
14833W        W31307  17.696   0.474  14.609  0.0780  0.0855 -0.3125
14834W        W31308   1.816   9.090  14.281  0.0299 -0.1546  0.2864
14835W        W31309  16.761   8.995  14.562 -0.1942  0.1082 -0.0880
14836W        W31310   1.173   1.547  14.083  0.0509  0.0067  0.0708
14837W        W31311   9.188  14.085   1.894 -0.0960 -0.0962 -0.2615
14838W        W31312   4.204   1.033  11.516 -0.0551 -0.1260  0.0384
14839W        W31313   8.723   9.438   1.320 -0.2184  0.3311  0.1087
14840W        W31314  12.025  16.518   4.227 -0.1671  0.1365  0.0122
14841W        W31315  17.003  15.824   1.841  0.0922 -0.1219 -0.3516
14842W        W31316   3.320  13.592  13.654 -0.1354  0.0683 -0.1228
14843W        W31317   8.475  14.361  13.456  0.1129  0.1764  0.4750
14844W        W31318  11.288   2.460   0.893  0.0175 -0.1275 -0.2084
14845W        W31319  16.982  12.961  10.382 -0.1905 -0.0765  0.0355
14846W        W31320   2.760   5.287  13.787 -0.0335 -0.0936 -0.3958
14847W        W31321  10.497  14.775   4.000  0.0054 -0.2762 -0.1429
14848W        W31322  13.194  15.920   3.946 -0.3309 -0.0943  0.0652
14849W        W31323   7.108   4.724  14.140 -0.1584  0.0654 -0.0871
14850W        W31324   8.126  11.029   4.551 -0.0319 -0.0201 -0.1638
14851W        W31325  13.320   7.657   4.902 -0.1131  0.2808  0.0135
14852W        W31326  17.559  16.530  10.485 -0.0435  0.0791  0.0574
14853W        W31327  12.135  13.382  15.313 -0.0109 -0.1283  0.1798
14854W        W31328  12.353  16.030   4.618  0.1835  0.0117  0.0348
14855W        W31329  16.365  15.602   0.501 -0.1402 -0.0961 -0.0353
14856W        W31330   5.642   3.196   2.460 -0.1176  0.2923  0.0115
14857W        W31331   3.344  12.443   1.230 -0.0858  0.1021  0.0391
14858W        W31332  15.271  14.739   0.047  0.3134  0.2771  0.3384
14859W        W31333  18.586  17.620   1.990  0.1999  0.2083  0.1001
14860W        W31334  15.326  18.813   1.600 -0.1046  0.0683  0.1935
14861W        W31335   8.977   0.754   5.200  0.0554  0.0932 -0.1782
14862W        W31336  15.229   0.523   3.896 -0.0109  0.3855  0.1196
14863W        W31337   3.229   5.307  13.632  0.0034  0.0939 -0.0312
14864W        W31338  13.948  18.679   0.881 -0.1335 -0.0312 -0.0654
14865W        W31339   5.621   1.337   2.730  0.2555 -0.1055 -0.0714
14866W        W31340  12.576  15.588   5.009  0.0085  0.0841  0.2531
14867W        W31341  13.911   4.727  15.557 -0.0994 -0.0988  0.1104
14868W        W31342  16.231   9.635  13.749 -0.0868  0.0190 -0.3162
14869W        W31343   4.575   7.241  11.849 -0.1911  0.0663 -0.1221
14870W        W31344   2.490  18.386   0.581  0.1966  0.5224 -0.0355
14871W        W31345  18.321  10.847   2.834 -0.0589  0.1352 -0.0603
14872W        W31346  11.584   9.347   4.829 -0.0498 -0.0906 -0.0238
14873W        W31347   1.913  17.738  11.973  0.1604  0.0754 -0.1016
14874W        W31348   4.146  11.129  14.553  0.0686  0.0456  0.3957
14875W        W31349  18.165  16.480   0.605  0.2343 -0.0971  0.1347
14876W        W31350   4.253   5.466  11.864  0.1137 -0.3111  0.1336
14877W        W31351   8.903  16.478  14.441 -0.1354 -0.0010  0.2329
14878W        W31352   4.840   2.553  15.227 -0.0388 -0.0851 -0.2411
14879W        W31353  10.352  10.767  15.392  0.2094  0.0933 -0.3538
14880W        W31354   8.785   4.311  14.967 -0.1304 -0.0352  0.0020
14881W        W31355   2.714   2.143  14.678 -0.1213  0.2990  0.0546
14882W        W31356   8.700  10.680  14.566 -0.4683  0.0633 -0.3924
14883W        W31357   9.494  15.064   0.417  0.0664  0.0742 -0.2446
14884W        W31358   5.691  15.521  11.441  0.1780 -0.2386 -0.4542
14885W        W31359   7.997  11.150   5.077  0.2054 -0.2879  0.1190
14886W        W31360  14.039   2.216  11.809 -0.0916 -0.0586 -0.2803
14887W        W31361  16.681  17.086  15.267 -0.0037 -0.0627  0.0708
14888W        W31362  17.027   0.817   2.899 -0.0961  0.0952  0.2152
14889W        W31363   0.739  16.197  11.226  0.0943  0.0258 -0.1007
14890W        W31364  14.689   0.529   0.583  0.2762  0.0553 -0.2441
14891W        W31365  16.125  12.545  13.539 -0.2025 -0.1858  0.0460
14892W        W31366   2.455  17.665   1.452 -0.0441  0.1893  0.2967
14893W        W31367   2.950   0.464  15.452 -0.3978  0.2023  0.2811
14894W        W31368   0.660   0.957  14.724 -0.4583 -0.1457  0.4280
14895W        W31369  10.660  11.241  13.765  0.0828  0.1958 -0.2445
14896W        W31370   7.078  10.877  12.310  0.1284  0.1042  0.3144
14897W        W31371  11.844  15.300   1.580  0.1462  0.0540 -0.1236
14898W        W31372   5.315   0.182  11.422 -0.0781  0.2260 -0.0517
14899W        W31373  17.222  10.479  13.158  0.2290 -0.1437  0.1903
14900W        W31374  17.253  14.283   0.658 -0.4118 -0.0643 -0.6337
14901W        W31375   8.606   4.749  11.143  0.0013  0.0209  0.2914
14902W        W31376   0.347   1.384   0.267 -0.0688  0.2376  0.0014
14903W        W31377  15.789   7.853   4.681 -0.0077  0.0584 -0.0117
14904W        W31378   8.479  10.743   5.951  0.1249 -0.1882  0.1151
14905W        W31379  16.193   1.132   0.341 -0.2085  0.0004  0.3790
14906W        W31380   9.758   8.474   3.439  0.0172 -0.0303  0.3958
14907W        W31381   1.646  10.232  14.543 -0.0809  0.0056 -0.2997
14908W        W31382  18.642  17.518  10.423  0.2004 -0.0595  0.0909
14909W        W31383   8.295  17.054  13.237 -0.0616 -0.0534 -0.0128
14910W        W31384  15.307  12.855  12.471 -0.0451 -0.1267 -0.3098
14911W        W31385  17.478   4.904  13.304 -0.0392 -0.1338 -0.3277
14912W        W31386   5.142  13.581   6.463  0.2255  0.0361 -0.2649
14913W        W31387  15.882   8.279   1.195 -0.1311 -0.2487 -0.1818
14914W        W31388   2.473  18.112   4.116  0.2361 -0.0321 -0.2396
14915W        W31389   8.191   7.951   3.871 -0.1012 -0.0926  0.0578
14916W        W31390   8.387  18.337  12.817 -0.2621  0.1717 -0.0528
14917W        W31391   7.167   0.100  14.533  0.1167  0.2931 -0.2016
14918W        W31392  14.527  17.860  15.575  0.2062 -0.2225 -0.0768
14919W        W31393   1.461   0.976  11.730  0.1363  0.2080 -0.0372
14920W        W31394  13.546   5.396   2.164 -0.0509  0.3746 -0.0859
14921W        W31395   7.774  11.622  14.886  0.0577 -0.0886  0.1496
14922W        W31396   0.546   5.707   3.231 -0.0278  0.0455  0.1475
14923W        W31397   5.175   7.583  11.111  0.3564  0.2084  0.2111
14924W        W31398   4.787   8.002   2.418  0.0294 -0.1404 -0.2380
14925W        W31399  14.615   6.298   4.062  0.0424  0.1978 -0.3227
14926W        W31400   1.470  13.555   3.483  0.1602  0.1763  0.0345
14927W        W31401   3.006   5.563  14.598 -0.2076  0.0047 -0.0952
14928W        W31402  17.801   0.130  15.333 -0.0825  0.1292 -0.1826
14929W        W31403  13.709   3.184   5.745 -0.1152  0.0572 -0.3095
14930W        W31404   9.855   2.145  13.158  0.0030  0.2982  0.2552
14931W        W31405  10.272  13.185  12.351 -0.0742 -0.2997 -0.2897
14932W        W31406  10.310  10.424  13.720  0.1287  0.0373 -0.2478
14933W        W31407  11.936  16.722   0.786  0.1433 -0.0481 -0.2977
14934W        W31408   3.156   2.904   1.028  0.0719 -0.0190  0.2303
14935W        W31409  16.206  14.724   5.382 -0.2914 -0.0617 -0.1270
14936W        W31410  13.106  16.954  14.412  0.3227  0.1172  0.1215
14937W        W31411  15.785  11.624  15.546  0.1593 -0.1138  0.1067
14938W        W31412   1.015  14.807   3.538 -0.0408  0.0018 -0.1017
14939W        W31413   2.435   5.814  11.719 -0.1839  0.1038  0.1703
14940W        W31414   7.688   8.002   3.692 -0.1886  0.1671  0.0302
14941W        W31415  17.170  13.681  14.671  0.1285  0.1990  0.0155
14942W        W31416   8.931  18.759   1.237 -0.0038  0.1422 -0.0097
14943W        W31417  16.605   4.415  11.370 -0.2181  0.1822  0.1331
14944W        W31418   9.795   7.701   3.248 -0.1201 -0.1565  0.0090
14945W        W31419  12.800  17.887   3.914 -0.0569  0.0527 -0.1345
14946W        W31420   6.060   0.537  13.652  0.1009  0.0018 -0.0583
14947W        W31421  11.573   1.594   0.547  0.0759 -0.1933 -0.3648
14948W        W31422   3.924   3.405  13.733 -0.3343 -0.2641 -0.3029
14949W        W31423  10.896  16.361   2.552 -0.1228  0.0942  0.2371
14950W        W31424  10.400  18.262  15.411  0.2174 -0.0316  0.2343
14951W        W31425   7.410   8.904  11.608  0.2084  0.3680 -0.0369
14952W        W31426  10.146  11.705  12.251  0.3776  0.1511  0.1703
14953W        W31427  18.632   9.366  14.280 -0.3967 -0.2134 -0.2311
14954W        W31428   1.613  14.806   3.422 -0.0619  0.0690 -0.1220
14955W        W31429   1.217  12.613   2.566  0.0462 -0.3212 -0.0673
14956W        W31430   3.732  12.162  13.408 -0.1346 -0.1233 -0.1273
14957W        W31431   0.188   3.656   1.563  0.1798 -0.5256 -0.0188
14958W        W31432  17.738  17.101  12.773 -0.1357 -0.0089 -0.1494
14959W        W31433  12.641  10.751   5.488 -0.1614 -0.3507 -0.2877
14960W        W31434   8.364  17.215  13.900  0.3633 -0.0358  0.2313
14961W        W31435  16.112  16.240  12.675  0.1877  0.1796 -0.0735
14962W        W31436  13.522   9.405  11.789 -0.3035 -0.0575  0.1862
14963W        W31437   0.903   9.739   4.479  0.0259 -0.0323  0.0064
14964W        W31438   5.968   3.560   4.685 -0.0861 -0.1467  0.0094
14965W        W31439  18.303  13.946  13.992  0.1106  0.1972 -0.0377
14966W        W31440   4.981   4.848   3.520  0.2868 -0.2455  0.0866
14967W        W31441   1.472   2.526   1.811  0.2357  0.2132  0.0626
14968W        W31442   6.504   5.881   5.649 -0.1226 -0.0115 -0.0439
14969W        W31443  13.346  15.450  13.588 -0.0709  0.2202 -0.1946
14970W        W31444  11.360  15.556  14.620  0.2385  0.1222  0.1032
14971W        W31445   5.726   0.874   3.816 -0.0443 -0.0165 -0.0477
14972W        W31446  10.033   7.128  15.134 -0.1415  0.1044 -0.0462
14973W        W31447   4.123  17.623   5.301  0.1666 -0.0324  0.0938
14974W        W31448  10.684   5.022   1.057  0.0974 -0.3471 -0.0822
14975W        W31449  15.878   0.477  10.104  0.0992 -0.1630  0.1215
14976W        W31450  10.710   9.760   4.864  0.0371 -0.0910  0.2021
14977W        W31451   0.403  10.828   0.518 -0.3014 -0.2622 -0.0553
14978W        W31452   0.946   9.319  13.161 -0.1348  0.2588  0.0081
14979W        W31453  17.041   8.723   1.533  0.2711  0.0784  0.0035
14980W        W31454   8.651  11.810   3.229 -0.1327 -0.2051  0.2779
14981W        W31455   7.562  11.633  12.137 -0.1628 -0.1168  0.0678
14982W        W31456   5.385  12.096   4.235 -0.2990 -0.4253 -0.0794
14983W        W31457  17.988   8.555   2.773 -0.0248  0.2924 -0.1493
14984W        W31458   4.842   3.191  12.766  0.2090 -0.1990 -0.0509
14985W        W31459  15.077  13.211  12.761  0.2275  0.3481 -0.0267
14986W        W31460  15.387  13.707   4.728 -0.0366 -0.0665 -0.2398
14987W        W31461   5.168   1.073   4.101 -0.0629 -0.1862  0.0426
14988W        W31462  10.397   5.866  11.517 -0.0677  0.0453 -0.0336
14989W        W31463  15.264  16.485  10.191 -0.1798  0.2096 -0.0721
14990W        W31464  15.059  10.526  13.144  0.2564 -0.0402 -0.1233
14991W        W31465   9.140   8.604   6.093 -0.2024 -0.0036  0.4653
14992W        W31466   2.494   5.062  12.474  0.2028 -0.2915 -0.0178
14993W        W31467  15.819   5.470  14.573  0.4684 -0.2537  0.0904
14994W        W31468  16.100  12.332   4.111 -0.3499 -0.1156 -0.1907
14995W        W31469   3.804  15.669  13.878 -0.2465  0.0001  0.1602
14996W        W31470   9.059   8.748   1.061 -0.0448 -0.0841  0.0154
14997W        W31471  13.644   8.004   1.146  0.0001 -0.2460  0.0075
14998W        W31472   1.033  17.702  12.747 -0.0213  0.1017 -0.1004
14999W        W31473   9.727   1.840   5.908 -0.0348 -0.1483 -0.2899
15000W        W31474  16.124  17.353  10.750 -0.0732 -0.0279 -0.0485
15001W        W31475   0.184   6.056   4.828 -0.1196 -0.0662 -0.2332
15002W        W31476  10.689  13.177   1.945  0.0900 -0.1464  0.2381
15003W        W31477  13.808   3.143   0.165  0.0498 -0.0414 -0.0604
15004W        W31478   7.426   7.532   0.987 -0.2337 -0.2052  0.2592
15005W        W31479   0.540  14.546   5.360 -0.3494 -0.0576  0.3915
15006W        W31480  17.189   9.876  14.019  0.1859  0.1165  0.0751
15007W        W31481  14.413  17.904  14.394  0.2217  0.1300 -0.0376
15008W        W31482  11.016   6.749   3.803 -0.0247  0.2355 -0.1199
15009W        W31483  16.221   9.453  10.920  0.1474  0.0154  0.3035
15010W        W31484  11.988   8.588   4.537 -0.3764  0.0382  0.1705
15011W        W31485  18.094  11.196  15.235 -0.5428  0.2092 -0.0081
15012W        W31486   0.819  16.272   2.631 -0.0588 -0.0003 -0.0339
15013W        W31487   7.382  12.903   3.942 -0.2079 -0.0697  0.0984
15014W        W31488  15.164   9.284   5.640  0.0356 -0.0708 -0.0497
15015W        W31489   7.975   6.805   5.870  0.1747  0.1727 -0.2524
15016W        W31490   0.444  16.524  14.979  0.2100  0.1901 -0.0323
15017W        W31491   6.225  17.041  12.798  0.1265  0.1373 -0.0653
15018W        W31492  18.472   7.754  13.068 -0.1006 -0.5224 -0.2219
15019W        W31493  10.605   5.211   5.219  0.1874  0.1360  0.3055
15020W        W31494   3.705   1.606   9.929  0.1394  0.0721  0.0191
15021W        W31495  12.127   5.128   0.422  0.3815 -0.1746  0.2684
15022W        W31496  18.081   0.419  14.953  0.4098 -0.2571  0.1378
15023W        W31497   1.836   7.197  12.355 -0.4523  0.0091  0.2987
15024W        W31498   2.201  13.348   4.312 -0.0668 -0.0824 -0.0215
15025W        W31499  18.692   6.776  12.113  0.4255  0.1461 -0.3349
15026W        W31500  16.575   0.426  14.171  0.1003 -0.0661 -0.1510
15027W        W31501   7.112   7.622   4.674  0.0441  0.0741  0.0214
15028W        W31502  11.079  13.206   0.843 -0.2595  0.2421 -0.2116
15029W        W31503   0.149  17.124   4.989 -0.2246 -0.2044 -0.1990
15030W        W31504  12.310  18.010   2.275 -0.2197  0.1497  0.2555
15031W        W31505  12.108  11.444  13.765 -0.4226 -0.0900 -0.1539
15032W        W31506   4.881   4.612   2.677  0.0381 -0.0303 -0.3011
15033W        W31507   9.527   3.832   3.103  0.1558 -0.0469 -0.1419
15034W        W31508  17.652  16.845  15.330  0.1666  0.1187  0.0542
15035W        W31509   1.659   9.357   4.358  0.0593 -0.1800 -0.0454
15036W        W31510   3.161   1.483  14.537 -0.0910 -0.2083  0.1488
15037W        W31511  14.461  16.535   3.562  0.0109 -0.0586  0.2008
15038W        W31512   8.927   6.218   0.568 -0.1590 -0.2451 -0.1496
15039W        W31513   1.458   2.609   4.877  0.0126 -0.0134 -0.1050
15040W        W31514  11.035  11.758   4.964 -0.0074  0.1203  0.0528
15041W        W31515  13.167   2.119   0.399 -0.0933 -0.0687  0.1280
15042W        W31516   3.364   9.007   1.791  0.0338 -0.0697 -0.2703
15043W        W31517   4.243  14.580  11.557  0.0306 -0.0729  0.1827
15044W        W31518  17.294   6.350   1.341  0.1945 -0.2161 -0.3437
15045W        W31519  10.611   3.740   1.675 -0.2194 -0.2356  0.0331
15046W        W31520  17.394  14.625  12.200  0.2833 -0.2515 -0.0671
15047W        W31521  17.155  14.485  14.429 -0.1547  0.0076  0.2081
15048W        W31522   9.641   0.628  13.062 -0.2329 -0.2676  0.1069
15049W        W31523  11.557  11.239  12.150 -0.1954 -0.1896  0.2305
15050W        W31524   9.167  15.543  13.080  0.1492  0.1425  0.3507
15051W        W31525  15.723  10.106   4.586 -0.0150 -0.0795  0.3063
15052W        W31526  18.494  11.196  15.595 -0.0593 -0.2845  0.0670
15053W        W31527   6.620   2.382   0.496 -0.0486 -0.1897  0.2087
15054W        W31528  14.681   2.728   3.987  0.2124  0.0294  0.0055
15055W        W31529   3.396   1.892  11.540  0.3588 -0.4210  0.3921
15056W        W31530   6.549   4.476  11.942  0.0874  0.0009  0.3170
15057W        W31531   4.470   2.208   2.994 -0.0155 -0.2036 -0.0009
15058W        W31532   8.254   6.323  14.936  0.1206  0.1430  0.1046
15059W        W31533   0.447   9.635   1.026 -0.0921  0.1105  0.0171
15060W        W31534  11.188  11.540  11.990 -0.1927  0.1412  0.0354
15061W        W31535  16.625   3.963   2.547  0.1910 -0.2506  0.2375
15062W        W31536  13.864  12.653  14.551 -0.0307  0.3341  0.1238
15063W        W31537   3.380   1.063  14.848  0.1999 -0.1131  0.0378
15064W        W31538  12.203   7.978  12.767  0.2427  0.1426  0.0251
15065W        W31539   8.983   9.810   0.962  0.0098 -0.0703  0.0325
15066W        W31540  10.529   7.949   3.548 -0.1967  0.0633  0.1714
15067W        W31541  18.831  13.742  14.001  0.0048  0.1295 -0.1137
15068W        W31542  11.325   7.758   1.757 -0.2046 -0.1865 -0.1533
15069W        W31543   9.105   4.483   5.887  0.0165 -0.2017 -0.1524
15070W        W31544   0.403  14.162   5.072  0.0851  0.3150  0.2141
15071W        W31545  13.140   1.470  11.035  0.1491  0.2219 -0.0739
15072W        W31546   3.096  13.404  13.192 -0.0503  0.0987 -0.0171
15073W        W31547   3.655   5.561   2.144  0.2068 -0.0955  0.3082
15074W        W31548   4.778  16.325   3.076 -0.3017  0.0020 -0.0425
15075W        W31549  16.281   4.892   1.293  0.0598 -0.1003  0.0941
15076W        W31550   3.536  16.801  14.609  0.1467 -0.1655  0.0536
15077W        W31551  14.577   2.664   2.526  0.3479 -0.1075  0.1871
15078W        W31552  18.320   5.709   3.878 -0.1358  0.0534 -0.3650
15079W        W31553  14.010  11.990   1.062  0.2124 -0.0427 -0.0411
15080W        W31554  18.262   1.681  14.706 -0.2488 -0.3248 -0.3084
15081W        W31555  12.951  15.272  13.799  0.0739  0.2719  0.3196
15082W        W31556   3.830   0.227  10.084 -0.0317 -0.0438  0.0993
15083W        W31557   7.923  11.340  13.202  0.0067  0.1300  0.2404
15084W        W31558  16.936  11.129  10.807  0.1202  0.3735  0.3150
15085W        W31559   6.552  12.414   0.415 -0.0980  0.1137 -0.2085
15086W        W31560  14.574   0.051  12.011  0.1009  0.1312 -0.1804
15087W        W31561  14.030  11.246   2.760  0.1113 -0.3025  0.1213
15088W        W31562  18.370  11.212  11.898  0.0182 -0.3388 -0.0535
15089W        W31563  11.290   1.012   2.129 -0.1467  0.4232  0.1999
15090W        W31564  17.550  11.865   3.404 -0.1224 -0.0139 -0.2461
15091W        W31565   4.468   7.181  15.456 -0.0543 -0.4026  0.3799
15092W        W31566   2.107   3.320   2.783 -0.2603 -0.2658 -0.0964
15093W        W31567   4.413  16.709   5.307 -0.2181  0.2668  0.1638
15094W        W31568  12.029  18.368   3.567  0.1723 -0.0974 -0.0918
15095W        W31569  13.654   0.198  13.837 -0.3439  0.1015  0.2912
15096W        W31570   5.635   6.418   3.263  0.0981 -0.3226  0.1128
15097W        W31571   1.858  10.095  15.219 -0.0658 -0.0230  0.0535
15098W        W31572  17.348  14.084  11.892 -0.0568  0.0802  0.0426
15099W        W31573   1.411  17.895   0.009  0.0869  0.2201  0.1729
15100W        W31574   6.983   2.539  14.202 -0.1030 -0.1480  0.1018
15101W        W31575  15.414   6.742   3.957 -0.0184 -0.2325  0.2297
15102W        W31576   5.599   9.283  13.423  0.1553 -0.0190  0.2776
15103W        W31577   6.360   4.922  12.093  0.0653 -0.2324  0.1044
15104W        W31578  10.354  12.486   4.450  0.0301 -0.1336  0.0825
15105W        W31579   5.254  11.347  14.200  0.1111 -0.1295 -0.0015
15106W        W31580   4.265  10.441   2.125  0.1159 -0.1382 -0.2558
15107W        W31581  18.466   0.222   4.576 -0.1144 -0.2303 -0.1514
15108W        W31582   4.401   8.157  13.372 -0.2312  0.4803  0.4222
15109W        W31583  17.905   8.419   3.283  0.0157  0.2176  0.0800
15110W        W31584  15.343  16.949  15.057  0.3993 -0.1060  0.3236
15111W        W31585  15.696   5.478  11.079  0.0454  0.1037 -0.2558
15112W        W31586  10.680   9.932   1.821  0.0433 -0.4001 -0.2859
15113W        W31587  18.165  15.872   0.455 -0.0635  0.1582  0.0885
15114W        W31588  10.369   2.816   2.514  0.2798  0.0956 -0.1191
15115W        W31589   8.336  12.653  13.037  0.2279  0.4465 -0.4516
15116W        W31590   2.259   2.389   5.001  0.1273 -0.0005  0.1876
15117W        W31591  12.239   6.088   2.804  0.2686  0.0620  0.2339
15118W        W31592  14.087   3.537   2.220  0.2632  0.1435 -0.0857
15119W        W31593  14.590  13.147   2.265  0.2416 -0.0946  0.1613
15120W        W31594  15.499   9.132   0.429 -0.2158 -0.2267 -0.1007
15121W        W31595   1.431  13.978   3.222  0.0153  0.4186 -0.1097
15122W        W31596  17.362  11.896  15.309  0.2583 -0.1390 -0.1691
15123W        W31597  14.337   0.842   2.714 -0.0474  0.2336 -0.0187
15124W        W31598  13.377   3.483  14.916  0.4330 -0.1044 -0.0864
15125W        W31599   0.503   4.222   2.799  0.5529  0.3225 -0.0208
15126W        W31600   2.137   1.448  14.472  0.0762 -0.0506 -0.1899
15127W        W31601   4.086   0.778   2.130 -0.1312  0.3118 -0.2304
15128W        W31602  17.536   1.687   3.152 -0.1469 -0.1531 -0.1047
15129W        W31603  14.024  13.272   3.680 -0.1530  0.0750  0.0301
15130W        W31604   7.100   1.878   0.671 -0.0570  0.0415 -0.1048
15131W        W31605   7.116   7.213  11.443 -0.2011 -0.1162  0.0531
15132W        W31606  18.232   2.241   1.617  0.1085 -0.1890 -0.2400
15133W        W31607  13.208  14.494  15.353 -0.1863 -0.3499 -0.2349
15134W        W31608  13.808   2.202   0.286  0.0073 -0.0644  0.1326
15135W        W31609  16.368  11.691   4.505  0.0465  0.2259  0.1693
15136W        W31610   9.084   7.718   3.596  0.3398 -0.1288  0.0123
15137W        W31611   8.649  11.716  15.628  0.0098 -0.0404  0.0830
15138W        W31612  15.218  13.916   1.259 -0.1285 -0.0729  0.4031
15139W        W31613   1.239   7.619  14.106  0.0379  0.2039 -0.0433
15140W        W31614  14.620  17.566   2.735 -0.5888 -0.2383 -0.0606
15141W        W31615   6.013  14.135   1.981  0.2578  0.0628  0.0814
15142W        W31616  17.062   9.455  11.554  0.0271 -0.1143  0.1059
15143W        W31617  11.885   8.713  13.202 -0.2472 -0.0024  0.3727
15144W        W31618   9.300  12.699  14.510  0.0154 -0.0293 -0.0220
15145W        W31619  16.189  12.159  11.717  0.1039 -0.2952  0.1822
15146W        W31620   7.360  11.112  12.692 -0.0831 -0.1257  0.0897
15147W        W31621  18.587  17.035   3.700 -0.0760 -0.0554  0.3327
15148W        W31622  11.439   5.495   6.013  0.4435 -0.0168 -0.0878
15149W        W31623   4.318  11.533   2.004  0.1203  0.0536 -0.2589
15150W        W31624   5.345  16.250  15.306 -0.0457  0.0279  0.4254
15151W        W31625  12.680  10.284  13.613  0.1735 -0.3524 -0.0290
15152W        W31626   0.370  10.776   1.031  0.3133  0.2184  0.0511
15153W        W31627   3.774  17.269  14.365 -0.1596  0.0220 -0.1416
15154W        W31628   6.552  13.294   1.982  0.2145  0.1302  0.0007
15155W        W31629  17.231  12.696   4.311 -0.3067  0.0046  0.1709
15156W        W31630   0.573   7.042  10.943 -0.0563  0.0642 -0.2484
15157W        W31631  12.014  18.398   3.025 -0.1672  0.1021 -0.1319
15158W        W31632   4.588   9.157   0.051  0.1503  0.2696  0.2830
15159W        W31633  11.401  18.793   3.127  0.0082  0.0040 -0.1268
15160W        W31634   2.582   5.014  15.195 -0.1662  0.2559 -0.0756
15161W        W31635   2.088   0.789  13.711 -0.1513 -0.2729 -0.2077
15162W        W31636   6.046   0.481  15.674 -0.1778 -0.1693 -0.1900
15163W        W31637   6.852  17.698   4.665 -0.3753 -0.3340  0.1708
15164W        W31638   2.968   1.571  11.673  0.3566 -0.0503 -0.1262
15165W        W31639  13.300   4.616  14.174 -0.1619  0.1460  0.0051
15166W        W31640  11.618  13.281  12.892 -0.3786  0.1244  0.1525
15167W        W31641  13.388   2.186  12.091 -0.0797 -0.0414  0.0102
15168W        W31642   0.178   0.676   0.826  0.1898 -0.4237 -0.0485
15169W        W31643   0.718  17.750  11.331 -0.3070 -0.0167 -0.2012
15170W        W31644   5.155   1.975   4.498  0.2839 -0.1002  0.0651
15171W        W31645  16.417   6.194   4.861 -0.0803 -0.0389  0.0034
15172W        W31646   6.118  13.836  13.501  0.2932  0.2967 -0.3455
15173W        W31647  11.707   2.269  11.434  0.1331 -0.3091 -0.0605
15174W        W31648   4.463   2.800   4.320  0.0362 -0.0821  0.0829
15175W        W31649   8.528   6.780  11.702 -0.0555 -0.1685  0.0587
15176W        W31650   6.460   6.229   3.783 -0.2712  0.1597 -0.0822
15177W        W31651   1.879  17.457  14.937 -0.3321  0.0347 -0.0310
15178W        W31652   7.429   9.509  12.264 -0.2814  0.3296  0.0431
15179W        W31653  18.275   9.953  14.178  0.1444 -0.4226 -0.2212
15180W        W31654   6.565   5.647  15.378 -0.0737  0.1968 -0.1284
15181W        W31655  17.290  17.654   3.376  0.0501 -0.2869 -0.2764
15182W        W31656  11.066  15.339  12.750 -0.0103 -0.1330 -0.3374
15183W        W31657   8.933   8.171   3.756  0.0001 -0.0528 -0.1316
15184W        W31658  16.070  18.446  14.603 -0.1965 -0.0813  0.1664
15185W        W31659   1.288   7.529  13.163  0.1507 -0.1430 -0.1395
15186W        W31660   9.545   2.381  15.693  0.0841  0.1278  0.1432
15187W        W31661   2.929  14.083  11.890  0.2620  0.2102  0.1884
15188W        W31662   1.077   9.621   3.856 -0.0636  0.0162  0.2283
15189W        W31663   6.407   8.417   0.983  0.0333 -0.2714 -0.3103
15190W        W31664   3.743   2.155  14.497  0.2148 -0.1215  0.1739
15191W        W31665  17.995   5.168   1.214  0.0930 -0.0171 -0.0008
15192W        W31666  10.616   3.343   2.604 -0.0946  0.0186 -0.1546
15193W        W31667   5.533   1.525   4.516  0.2008 -0.0948 -0.0175
15194W        W31668  15.748  12.062  11.245 -0.0666 -0.2298 -0.1985
15195W        W31669   0.630  17.709  13.070 -0.0757 -0.0155 -0.0022
15196W        W31670   1.814   8.491   0.197  0.1285 -0.3070 -0.0275
15197W        W31671  13.676  16.256  11.889  0.2157  0.0830  0.1349
15198W        W31672   0.806   3.430   4.311 -0.0625 -0.3134  0.0504
15199W        W31673   8.667  13.316   0.154  0.2900  0.0766  0.0599
15200W        W31674  18.784  14.880   3.190 -0.1825  0.2138  0.1250
15201W        W31675   6.953   7.831   4.047  0.1952 -0.0496  0.0523
15202W        W31676   4.186  15.608   1.204  0.3264  0.1836  0.2752
15203W        W31677  12.595  12.463   2.083 -0.4769 -0.0802 -0.1806
15204W        W31678  17.837   8.184   3.713  0.3820  0.2618 -0.2514
15205W        W31679   6.404   7.092   1.138  0.1328  0.0693  0.1272
15206W        W31680   9.603   7.721   3.683 -0.1302 -0.0082 -0.3461
15207W        W31681  10.596   0.294  12.888  0.2691 -0.0478  0.1076
15208W        W31682  14.559   5.984   3.061 -0.2069  0.0458  0.0555
15209W        W31683  14.557  16.150  14.930  0.4025 -0.2804  0.0231
15210W        W31684  18.253  11.834   2.826  0.2300 -0.0832 -0.0362
15211W        W31685   3.290  11.937   4.931 -0.1336 -0.0428  0.0328
15212W        W31686   8.209   5.539  12.531  0.1306 -0.2347 -0.1396
15213W        W31687   0.530   4.417   3.289  0.0227 -0.1046 -0.3723
15214W        W31688  15.248  16.208   5.071 -0.1441 -0.1021  0.0587
15215W        W31689  14.662   9.769   3.373  0.2999  0.0822  0.0686
15216W        W31690   1.007  17.925   2.812 -0.6644 -0.1759  0.2725
15217W        W31691   9.506   3.538   0.235  0.0367 -0.0693 -0.0414
15218W        W31692   6.529   4.849   3.307 -0.3378 -0.3812  0.0508
15219W        W31693  12.145   0.297  15.279  0.2653  0.1915 -0.3848
15220W        W31694  15.879   1.298   4.582 -0.0679  0.2652  0.2417
15221W        W31695   0.997   2.586  15.245  0.0409  0.3218 -0.0532
15222W        W31696   5.717   4.302  10.174 -0.2455 -0.2222 -0.1127
15223W        W31697  18.577   7.996   1.023  0.0503  0.0490  0.2024
15224W        W31698   5.283  12.761  13.521 -0.1394 -0.0427 -0.1606
15225W        W31699   9.922  12.097   2.060  0.1754 -0.0783 -0.2221
15226W        W31700  16.622   8.782   1.842  0.0166 -0.0840  0.0409
15227W        W31701   7.592   6.408   1.574 -0.1885  0.0392 -0.0912
15228W        W31702  12.856  13.003   5.709  0.0205  0.2953  0.0823
15229W        W31703   9.235   1.325  15.516 -0.1136 -0.0259 -0.1700
15230W        W31704  12.273   2.117   0.023 -0.0110 -0.2422  0.3146
15231W        W31705  17.981  13.231   3.247  0.1287 -0.0907  0.1300
15232W        W31706   8.867   2.959  15.355 -0.1222 -0.0550  0.4044
15233W        W31707  17.694   4.322   1.211  0.1663  0.2622  0.3532
15234W        W31708   9.187  13.287  15.560  0.0844 -0.0122  0.1924
15235W        W31709  16.242   9.593   3.349 -0.2907 -0.4040  0.0285
15236W        W31710  10.461   4.614   1.341 -0.2768  0.1169 -0.0340
15237W        W31711  14.476   9.599  15.405 -0.3235  0.1628 -0.1573
15238W        W31712  13.176   0.603   0.011 -0.1794 -0.1465  0.2757
15239W        W31713  16.688  16.770  14.913 -0.1516 -0.3688  0.2679
15240W        W31714  12.132   6.201   2.276  0.2726 -0.2949  0.0899
15241W        W31715   9.378  11.130   4.747 -0.1516 -0.2421  0.0366
15242W        W31716   7.518  10.202   2.186 -0.0087 -0.3810  0.0639
15243W        W31717  10.973  17.425   1.513  0.0100 -0.1547  0.0032
15244W        W31718   3.264  12.158  12.635 -0.1317 -0.3347 -0.2471
15245W        W31719  18.655  15.003  11.250  0.3255  0.3711  0.0303
15246W        W31720   7.002  13.459   3.234  0.1674 -0.0633  0.0869
15247W        W31721  16.137  11.615   2.112 -0.1004 -0.1530  0.0508
15248W        W31722   4.790   5.484   2.491 -0.0625 -0.1140  0.0607
15249W        W31723   3.903   7.127   3.527 -0.0727 -0.0954 -0.2363
15250W        W31724  17.248  10.428  11.559 -0.1519 -0.0137  0.0170
15251W        W31725  13.941   7.452  12.781 -0.1820  0.0546  0.2631
15252W        W31726   9.153  12.391   4.224  0.2614 -0.3088  0.3643
15253W        W31727  12.681  17.113  13.124 -0.0590 -0.0071 -0.0072
15254W        W31728   4.974   4.101   0.215 -0.0942  0.0941 -0.2613
15255W        W31729   3.950  13.075  12.448  0.1229 -0.1950  0.0332
15256W        W31730  11.229   3.113   3.225  0.0201  0.1842  0.1494
15257W        W31731  11.575   0.354   3.921 -0.1622  0.1692 -0.2104
15258W        W31732  11.429  18.400   3.831 -0.0099  0.0751 -0.1391
15259W        W31733   9.766  13.240   4.295 -0.0611 -0.1227  0.0026
15260W        W31734   3.208  12.962   1.290 -0.2010  0.1123 -0.1731
15261W        W31735  16.440   5.934  13.978  0.0029  0.2886 -0.0383
15262W        W31736  10.561   7.394  12.771  0.1776 -0.0783 -0.2351
15263W        W31737  15.068  12.353  14.440  0.2749 -0.2377 -0.0598
15264W        W31738   3.744   8.485  11.019 -0.4583 -0.4072 -0.0714
15265W        W31739  18.163   9.197   1.717 -0.1201 -0.0305 -0.0452
15266W        W31740   9.241  13.141   4.554 -0.1965 -0.2551 -0.1792
15267W        W31741  12.267   8.832   1.985  0.0978 -0.0733 -0.1422
15268W        W31742   7.882   5.975   5.024 -0.0623  0.2203 -0.2145
15269W        W31743   3.538   2.092  14.990 -0.0563 -0.4118  0.3125
15270W        W31744   9.054   2.434   2.052 -0.1365  0.3464  0.2608
15271W        W31745  16.371   5.267   5.172  0.3094 -0.0077 -0.0891
15272W        W31746  12.489  15.106   1.995  0.0406 -0.0284  0.0981
15273W        W31747  10.096  18.107  14.215 -0.0098 -0.1215 -0.1413
15274W        W31748   1.911   5.247  12.679  0.0389  0.1930  0.0176
15275W        W31749   6.731   0.249   2.112  0.5347 -0.3095  0.1327
15276W        W31750  17.645   6.747   4.817 -0.1811  0.0210  0.0862
15277W        W31751   8.563  16.589  11.511  0.3169 -0.1806  0.0278
15278W        W31752   7.640   8.061   5.376 -0.1997  0.1845  0.1164
15279W        W31753   7.460   6.424  14.123  0.1967 -0.1357  0.2886
15280W        W31754   1.224   8.553  11.920 -0.2328  0.2427  0.1963
15281W        W31755  15.567   6.483  13.094  0.2181 -0.1500 -0.1426
15282W        W31756  14.506   5.010  13.312 -0.0017  0.1948 -0.2823
15283W        W31757   4.834  16.807  13.778  0.0445 -0.0985  0.1485
15284W        W31758   2.016  15.659   2.646 -0.0909 -0.0533  0.0745
15285W        W31759   6.121   1.323  12.295 -0.1689 -0.0678 -0.2592
15286W        W31760   3.784   6.858  12.037  0.2618 -0.1284  0.3910
15287W        W31761   0.168  14.820  12.377  0.1576  0.0856  0.0619
15288W        W31762  15.210  15.197  14.079 -0.2133  0.0404 -0.2031
15289W        W31763   1.930   7.886   9.951 -0.0920 -0.4052  0.1634
15290W        W31764   2.948   7.036   2.702 -0.0807  0.0565 -0.0977
15291W        W31765  16.783  18.776   0.297  0.1785  0.2482 -0.2876
15292W        W31766   6.579  18.552   4.625 -0.0181  0.2249  0.1591
15293W        W31767   0.369   4.432  12.588  0.0389  0.2041 -0.0410
15294W        W31768  15.344  15.179  10.370  0.0153 -0.0056  0.1980
15295W        W31769   2.976  12.766  14.851 -0.1826 -0.3349  0.4621
15296W        W31770   3.671  16.219  15.081 -0.0820  0.2704 -0.1552
15297W        W31771  17.168   0.714   1.026  0.0210  0.2711  0.2060
15298W        W31772  15.163  14.790   1.602  0.1019 -0.1673 -0.1106
15299W        W31773  12.311   9.407   1.923 -0.1199  0.0539 -0.1298
15300W        W31774  10.093   1.966  14.810 -0.0006  0.2153  0.1563
15301W        W31775   8.060   8.374   5.332 -0.2935  0.0286  0.1804
15302W        W31776  17.162   1.635  15.245 -0.1255 -0.1194  0.2185
15303W        W31777   3.456   3.475  14.791  0.0087  0.0006  0.1583
15304W        W31778   7.585  17.619  15.660  0.0667  0.1192 -0.1633
15305W        W31779  13.174   7.082  12.073  0.0200 -0.1256  0.3183
15306W        W31780   2.417   1.321   3.294  0.0233 -0.0025 -0.0150
15307W        W31781   0.272   2.806   1.478  0.2683 -0.0804  0.1703
15308W        W31782   0.818   8.990  12.765  0.1364 -0.0716  0.1920
15309W        W31783   8.161  12.794   1.804 -0.0703 -0.0453 -0.2695
15310W        W31784  14.559   8.038  11.970  0.2276 -0.2102  0.2984
15311W        W31785  10.374   7.743   4.926  0.2201  0.0687 -0.3443
15312W        W31786   0.858   1.737  14.832  0.0756  0.0546 -0.2213
15313W        W31787  11.299  17.175  15.295 -0.2493  0.0287  0.0555
15314W        W31788  17.288  18.359  13.685  0.0009  0.3098  0.2001
15315W        W31789   1.664   5.331   1.003  0.2661 -0.3167 -0.0895
15316W        W31790   2.905  15.293   3.905  0.0160 -0.1680  0.0485
15317W        W31791  16.129   1.440   0.728 -0.0909 -0.1436 -0.1030
15318W        W31792  15.973   7.756   3.256 -0.0303 -0.0928 -0.1461
15319W        W31793  10.117  13.613   1.983  0.2264 -0.2113 -0.3736
15320W        W31794  13.455  13.056  13.136 -0.1935 -0.0829 -0.1429
15321W        W31795  13.776  12.923  12.616 -0.3387 -0.3061 -0.1456
15322W        W31796  15.805   6.230  10.457 -0.1178  0.4066 -0.2944
15323W        W31797  10.280  17.515  12.755 -0.4009 -0.0320  0.1453
15324W        W31798   2.366   3.835  12.759  0.0042 -0.0743 -0.0889
15325W        W31799   9.424   9.684  10.549  0.1715  0.0540  0.0819
15326W        W31800   5.412  16.673   2.188  0.0165 -0.1158  0.1602
15327W        W31801   2.641  13.855   1.743  0.0040 -0.4345 -0.2723
15328W        W31802  16.193  12.165  13.927 -0.1151  0.1021  0.4381
15329W        W31803  12.373   1.159  12.646  0.0403  0.2475 -0.0527
15330W        W31804  10.147   0.336   0.352  0.0483  0.0521  0.1137
15331W        W31805   4.053   3.982   0.097 -0.3759  0.0304 -0.1504
15332W        W31806   5.250  14.655  13.834 -0.1580 -0.1884 -0.3194
15333W        W31807   5.050   1.781  11.435  0.1819 -0.0087  0.1294
15334W        W31808  12.364   1.579   4.641 -0.1762  0.0318  0.0618
15335W        W31809   0.368  10.070   2.661  0.0571  0.1261  0.0921
15336W        W31810  10.177   3.945  12.817  0.0945  0.1254 -0.0126
15337W        W31811  18.321  10.212  13.210  0.1460  0.0217  0.1193
15338W        W31812  17.776   2.232  15.034 -0.1927 -0.5096  0.0844
15339W        W31813   4.611  11.295   5.421 -0.0987  0.0923 -0.0147
15340W        W31814  18.233   5.756  12.422  0.0590 -0.0387  0.0249
15341W        W31815  14.778   3.943   2.626  0.3265 -0.1289 -0.0136
15342W        W31816  18.172   4.557  11.579 -0.3064 -0.1965  0.0810
15343W        W31817  16.848  13.354  13.643 -0.1612  0.1387 -0.0834
15344W        W31818   3.374   2.719   3.617 -0.0790 -0.1920 -0.1275
15345W        W31819  11.484  12.271  11.527  0.0964  0.2230 -0.3673
15346W        W31820   8.778   9.267   2.019  0.1071 -0.2053  0.2759
15347W        W31821  16.964  12.319  13.798 -0.1893 -0.0691 -0.0745
15348W        W31822   8.107  14.462   3.252 -0.4332 -0.0423  0.0177
15349W        W31823   3.784  15.502   3.875  0.0138 -0.0361 -0.1384
15350W        W31824  15.803  11.646   3.675  0.0004 -0.2665 -0.0175
15351W        W31825   0.986   5.862   0.138 -0.0296 -0.0758  0.1551
15352W        W31826  18.440  14.080  15.663 -0.0343  0.0389 -0.2998
15353W        W31827  15.753   7.412   2.704 -0.0096  0.1572  0.1010
15354W        W31828  14.330   2.254   2.469 -0.2842  0.2723 -0.0513
15355W        W31829   8.564   6.573   4.634  0.3667 -0.0978  0.0609
15356W        W31830  17.410   7.944   3.962  0.1293  0.1660 -0.0636
15357W        W31831   8.337  16.158   2.842  0.2369 -0.1246 -0.0063
15358W        W31832  18.809   2.166  10.692  0.2611  0.2213 -0.0894
15359W        W31833   4.726   3.126   3.980  0.0646 -0.2917  0.2208
15360W        W31834  14.830   6.586   3.719  0.2047  0.3893 -0.1802
15361W        W31835   8.916  16.120  11.193  0.2158 -0.1928  0.3320
15362W        W31836   3.940   0.237  13.941 -0.0002 -0.0954 -0.2368
15363W        W31837  16.224  15.666   3.204 -0.0451 -0.0620 -0.4316
15364W        W31838   9.949   0.339  12.096  0.0675  0.1746 -0.0190
15365W        W31839  10.209   0.684   2.040  0.1240 -0.0856  0.0876
15366W        W31840   4.642   6.903   3.782  0.0920 -0.0786 -0.1431
15367W        W31841   9.781  15.577  13.316  0.0797 -0.1957  0.2359
15368W        W31842   4.129  17.362   4.103  0.4384  0.0746 -0.3323
15369W        W31843   3.300   1.257   3.187  0.2195  0.1252 -0.1016
15370W        W31844  11.337  12.137  12.599  0.1605 -0.2328 -0.0255
15371W        W31845   3.393   9.481   5.062 -0.0306 -0.1469  0.2277
15372W        W31846   9.472  11.757  13.252 -0.0913 -0.0279  0.1866
15373W        W31847   5.202   0.207  14.021  0.1327 -0.0972 -0.0907
15374W        W31848   4.846   2.269   2.584 -0.1063 -0.0424 -0.1652
15375W        W31849   7.030  18.290   6.357 -0.1242  0.2154  0.1284
15376W        W31850  13.575  14.216  14.448 -0.0826 -0.0721 -0.2278
15377W        W31851  14.822   3.909   0.772 -0.1376 -0.1427 -0.0014
15378W        W31852   5.366  14.188  13.114 -0.2986  0.3069 -0.2584
15379W        W31853  18.217   8.650   2.302  0.1383  0.1730 -0.0565
15380W        W31854  16.831   4.229   3.010 -0.5559 -0.2070  0.1017
15381W        W31855  16.820  13.492   0.733  0.2457 -0.1245  0.2238
15382W        W31856  17.908  18.034   1.518 -0.1108 -0.3667  0.3097
15383W        W31857  10.122   2.948  13.954 -0.3599 -0.3470  0.0593
15384W        W31858   7.990   1.383   0.993 -0.0514 -0.1518 -0.1377
15385W        W31859  12.593  12.124  10.893  0.0961  0.1591 -0.1118
15386W        W31860  11.585  11.863   1.559  0.2001  0.0455  0.0630
15387W        W31861   5.420  10.153   0.692 -0.0335  0.0201  0.0372
15388W        W31862   1.926   3.147  10.782  0.0951  0.1724  0.4600
15389W        W31863  16.105   6.552   5.008 -0.3492 -0.1610  0.2380
15390W        W31864   5.201   7.415  14.886 -0.0399 -0.0919  0.1265
15391W        W31865  10.838   6.253  14.751  0.0580  0.4152  0.0107
15392W        W31866  18.735  14.687  13.659 -0.2277 -0.2271 -0.1836
15393W        W31867  13.777   5.992   0.702 -0.0122  0.4298  0.0487
15394W        W31868   8.276  14.180   2.862  0.0077  0.1724 -0.1930
15395W        W31869   8.050  17.645   4.887 -0.1256  0.3281  0.2067
15396W        W31870   2.981   5.176   4.388  0.3907  0.1178 -0.0688
15397W        W31871   1.287   4.703   2.481  0.1268 -0.0891 -0.2680
15398W        W31872   5.064  11.373   2.370 -0.1296  0.1548  0.1681
15399W        W31873  16.653  13.989  14.721 -0.0913 -0.4125  0.1177
15400W        W31874   8.879  14.816   2.706  0.2669  0.0890  0.3350
15401W        W31875  13.288   5.665   2.602  0.0829  0.1243  0.0732
15402W        W31876   4.178  18.612   4.464  0.0996  0.1925 -0.1000
15403W        W31877  13.183  13.378  14.800 -0.2112 -0.1533  0.3043
15404W        W31878   1.405   9.727   4.682 -0.0163 -0.2240  0.0834
15405W        W31879   6.915   3.143  12.474 -0.2839 -0.1292 -0.0844
15406W        W31880  17.079  15.188  11.716  0.1699  0.1495  0.0177
15407W        W31881   9.899   8.805   1.675  0.2641  0.1973 -0.3500
15408W        W31882   3.308  13.692  12.654  0.1734 -0.0698  0.0073
15409W        W31883  10.865  10.636  11.401  0.1024 -0.0461  0.0029
15410W        W31884  14.133  16.979   4.801  0.0645 -0.2038  0.0136
15411W        W31885   8.490   0.598   5.049  0.1333  0.1214  0.0523
15412W        W31886  12.407  13.969   4.819 -0.2836  0.0232 -0.1454
15413W        W31887   0.810   7.698   1.248  0.0437 -0.1093 -0.0126
15414W        W31888   9.934   9.620  14.962 -0.0884 -0.2812 -0.1436
15415W        W31889  10.754   9.728   3.748  0.2162 -0.0705 -0.1630
15416W        W31890   8.933   2.126   0.299 -0.3466 -0.1634 -0.0394
15417W        W31891   9.740   5.835   0.047 -0.0775 -0.4966 -0.0727
15418W        W31892   1.612   7.749  13.677  0.3028  0.0702 -0.0310
15419W        W31893  10.829   8.816  11.649  0.3430 -0.0623 -0.2701
15420W        W31894   1.252  16.583  12.677  0.3794 -0.3476 -0.0799
15421W        W31895  17.127  18.120   1.984  0.0037  0.0812  0.2330
15422W        W31896  18.706   0.758   2.199 -0.2507  0.2704 -0.0853
15423W        W31897   2.794   9.281   3.494 -0.1635  0.0360 -0.2444
15424W        W31898   9.173   6.063   5.267  0.2653  0.0297 -0.1529
15425W        W31899   5.622  17.400   1.052 -0.1512  0.1395  0.0351
15426W        W31900   2.205   0.167  12.921 -0.2676  0.1289  0.0662
15427W        W31901  10.387  18.055  10.843 -0.2465 -0.1334 -0.4240
15428W        W31902  17.975  13.808   2.056  0.3598  0.3611 -0.2692
15429W        W31903   8.037   6.499  10.409 -0.1000 -0.3272 -0.6031
15430W        W31904  10.158  14.903   1.574 -0.1577 -0.3158 -0.1432
15431W        W31905  11.389  10.722  13.549 -0.1664  0.0049  0.1325
15432W        W31906  14.524  12.647  15.504 -0.0137 -0.1422  0.0984
15433W        W31907   3.140  12.711   0.332 -0.1404 -0.2862 -0.0626
15434W        W31908  12.294   8.853   2.503 -0.1769  0.0649 -0.1014
15435W        W31909   1.561   0.930   1.608 -0.3477  0.2287  0.1267
15436W        W31910   7.440  15.905  11.944 -0.0542 -0.2502 -0.1851
15437W        W31911  14.113   2.478   2.053 -0.0416  0.0284  0.0254
15438W        W31912   7.113   9.174  10.883  0.2683  0.0305 -0.0010
15439W        W31913   4.847  14.001   2.732 -0.3172  0.1527  0.1088
15440W        W31914  14.286  11.661  14.372 -0.0360  0.1928 -0.0733
15441W        W31915  17.565  13.752  13.384  0.1147 -0.0605  0.1065
15442W        W31916  12.882  13.267  13.843 -0.1146  0.1487  0.1960
15443W        W31917  10.272  15.419  14.775  0.0077  0.1115 -0.2900
15444W        W31918   0.549   2.101  14.663  0.1845  0.0242 -0.0605
15445W        W31919   8.210   7.560   0.418 -0.2495  0.3954 -0.1219
15446W        W31920   5.314   3.092  12.948  0.0014 -0.0832  0.0457
15447W        W31921   2.649   9.767   4.366 -0.3004  0.0219 -0.0573
15448W        W31922  16.175  16.968  15.513  0.1475  0.0000 -0.0465
15449W        W31923  14.024   8.288   3.927  0.0701  0.4922 -0.2170
15450W        W31924   0.794   1.601   4.068 -0.0050 -0.1645 -0.1207
15451W        W31925   0.428   9.974  11.886 -0.1591 -0.0675  0.1213
15452W        W31926   3.306  18.640   0.184  0.3833  0.1109  0.0438
15453W        W31927   1.210  14.230   5.501 -0.3026  0.0954 -0.0210
15454W        W31928   3.525   6.164  13.940  0.1377 -0.0098  0.1099
15455W        W31929  15.669   4.847  15.325 -0.0286  0.1444  0.1891
15456W        W31930  12.166  10.327   2.923 -0.0516  0.3186  0.1634
15457W        W31931   3.676   9.903  15.038  0.5460  0.0755  0.1666
15458W        W31932   3.707  12.886   1.378  0.0243  0.0924  0.0220
15459W        W31933   2.396  18.413  12.100 -0.3064 -0.3375  0.2261
15460W        W31934  18.754   5.320   1.722  0.1305 -0.1129 -0.1208
15461W        W31935  10.974  17.616  14.272  0.2212  0.3144 -0.2679
15462W        W31936  15.550  17.830  13.533  0.1033 -0.1752  0.0524
15463W        W31937  18.466  17.896   3.597  0.1274 -0.2374  0.0070
15464W        W31938  16.662   2.419   0.542  0.1832  0.4066  0.0092
15465W        W31939   8.250   0.514   0.365  0.0734 -0.4519  0.1097
15466W        W31940  18.416  11.369   4.375  0.1615 -0.1670  0.0731
15467W        W31941  14.373  18.384  14.415 -0.1146 -0.1314 -0.0342
15468W        W31942   9.297  15.387   3.272  0.0892 -0.0778 -0.1662
15469W        W31943  11.846   6.898   2.877 -0.1062 -0.0942  0.0495
15470W        W31944   5.394  10.219  12.080 -0.1716 -0.1178  0.1394
15471W        W31945  17.412  17.760  15.456  0.4097  0.2276  0.3528
15472W        W31946  14.354  12.113  14.831  0.2302 -0.0819  0.0909
15473W        W31947   3.596   3.182  11.078  0.1503  0.2329 -0.0860
15474W        W31948  14.754   8.055  15.002 -0.0627 -0.1452  0.1304
15475W        W31949  16.179   9.055   1.055 -0.0090 -0.2615  0.1877
15476W        W31950   6.867  10.537   2.695  0.1712  0.2407  0.0408
15477W        W31951   0.373  12.542  14.658 -0.4153 -0.5494 -0.0215
15478W        W31952   4.571  12.888   5.515 -0.1451  0.0840  0.1071
15479W        W31953   9.213   0.800   4.600 -0.0965  0.0508 -0.0772
15480W        W31954  14.197  10.368  12.446  0.1050 -0.2925 -0.1584
15481W        W31955   4.041   8.728  14.064  0.1286  0.2250 -0.0740
15482W        W31956   0.070   1.987  15.530  0.0426  0.1724  0.2297
15483W        W31957  10.268  11.868   3.142 -0.0156 -0.1888 -0.2107
15484W        W31958   2.057   6.510   5.164  0.1254 -0.0295  0.3436
15485W        W31959  11.732   9.618   0.871 -0.1026 -0.1124  0.3492
15486W        W31960  18.757   4.808  13.868  0.0328  0.1574 -0.0550
15487W        W31961  13.310  11.740   4.990  0.0605 -0.2895  0.0174
15488W        W31962  18.547   5.505   4.696 -0.0390  0.0203 -0.1334
15489W        W31963   9.159   9.051   3.429 -0.1758  0.1137 -0.1276
15490W        W31964   9.391  11.331   4.255 -0.0275  0.1963 -0.1674
15491W        W31965  16.625   2.680  11.413  0.2501  0.1179 -0.0873
15492W        W31966   7.860  12.361  15.359  0.2705  0.0983 -0.0354
15493W        W31967   3.764   1.955   5.454 -0.1415 -0.0403 -0.1330
15494W        W31968  18.760  12.924   2.744 -0.1411 -0.1161  0.0367
15495W        W31969   0.229  14.710  11.273 -0.1278  0.1681  0.0644
15496W        W31970  18.228  14.086   3.407 -0.0286  0.1435 -0.1076
15497W        W31971  11.437   6.547   3.519  0.0768 -0.5553  0.3030
15498W        W31972  16.118  15.839   1.876  0.0290 -0.1589 -0.1230
15499W        W31973  16.853   0.570   3.723 -0.0052  0.0102 -0.0377
15500W        W31974  15.831   3.701  13.450  0.1041  0.2030 -0.3688
15501W        W31975   1.381   2.871   0.479 -0.3570  0.1140 -0.0563
15502W        W31976  17.774  14.124  11.548  0.2066 -0.1023  0.1400
15503W        W31977  10.214   6.481  14.322 -0.2836  0.0090 -0.1018
15504W        W31978   7.979  15.752  12.641 -0.1001 -0.0582  0.1426
15505W        W31979   6.268   1.325  14.083 -0.5072 -0.1603 -0.2997
15506W        W31980   4.983   8.814   4.158 -0.2545  0.0405  0.0462
15507W        W31981   1.699   0.513   4.574  0.0113 -0.4037 -0.2711
15508W        W31982  10.673  11.424   3.131  0.0302 -0.2215 -0.4591
15509W        W31983   4.399   7.517   3.574  0.0196 -0.1560 -0.0850
15510W        W31984  18.186  12.741  13.751 -0.0437 -0.3262 -0.0031
15511W        W31985  18.060   5.676   1.153  0.2244 -0.3328 -0.3401
15512W        W31986   4.266   9.252   1.536 -0.2035 -0.3849  0.0630
15513W        W31987   4.245   7.163   0.869 -0.3739  0.0880  0.2979
15514W        W31988   0.363   6.841   3.192 -0.0980  0.2210 -0.0109
15515W        W31989  11.871   9.621   2.716 -0.0218 -0.0460  0.2721
15516W        W31990  11.253  15.209   5.099 -0.2486  0.0818  0.0924
15517W        W31991   2.835   0.721   0.917 -0.1269 -0.1975  0.1165
15518W        W31992  17.540  13.844   0.634 -0.2601 -0.1196 -0.1183
15519W        W31993   6.919   1.740   4.124 -0.2012  0.0150  0.1793
15520W        W31994   9.982   5.843  13.417 -0.1246 -0.2276  0.1832
15521W        W31995   0.164  15.436   9.456  0.4179  0.2012 -0.0858
15522W        W31996  12.160   2.622  12.566  0.1938  0.1185  0.1206
15523W        W31997   6.909   6.908  12.540 -0.1092 -0.2713  0.1187
15524W        W31998  14.005   4.935  13.914 -0.1438  0.0221  0.1483
15525W        W31999  14.079   0.288   1.411 -0.0842 -0.0680  0.4208
15526W        W32000  11.295  18.104   1.170 -0.0474  0.3171  0.0102
15527W        W32001  11.897   6.315   5.088  0.0504  0.1961  0.2618
15528W        W32002  10.992   3.913   1.996 -0.2543 -0.2471  0.3361
15529W        W32003   0.724  16.036   0.787 -0.0648  0.1820  0.2978
15530W        W32004  14.073  13.362  12.801  0.2039 -0.0651 -0.0509
15531W        W32005  10.575   6.319   5.044  0.1286  0.2920 -0.2604
15532W        W32006  15.527  10.178   3.509 -0.2595 -0.0311  0.2184
15533W        W32007  12.641  15.903  12.356 -0.1122 -0.3925 -0.1778
15534W        W32008  14.667   9.422  11.748  0.1255 -0.1423 -0.2842
15535W        W32009  12.514  14.807   0.035 -0.2296 -0.1370  0.1432
15536W        W32010  16.121  11.933   0.145 -0.0416  0.0466  0.2366
15537W        W32011   3.141  13.983   5.055  0.3597 -0.3429  0.1704
15538W        W32012   5.564   9.598  15.554  0.0551 -0.1332  0.0682
15539W        W32013   2.919  13.477   4.697  0.0299  0.2714  0.1174
15540W        W32014   2.137   2.311   4.290 -0.3569 -0.1741  0.3382
15541W        W32015  16.408  18.821   2.923  0.1295  0.0940 -0.0370
15542W        W32016  16.550   3.326  14.995  0.1840  0.0288 -0.1089
15543W        W32017  12.344  16.839   0.272 -0.2388 -0.2192 -0.0087
15544W        W32018   8.776   2.907  14.821  0.0779 -0.0331 -0.5477
15545W        W32019   2.587   8.230   4.522 -0.1564 -0.3777  0.3378
15546W        W32020   1.574   4.488   5.088  0.0799 -0.1032 -0.1748
15547W        W32021   4.410  13.796  13.263  0.1027  0.0227  0.0966
15548W        W32022   9.589   6.622   1.098  0.1161  0.0926  0.0522
15549W        W32023   5.407  13.325  13.217  0.0880  0.1260 -0.3927
15550W        W32024   1.629  17.699  13.617 -0.1569 -0.1197  0.1643
15551W        W32025  11.946  13.379   5.066  0.0471  0.1037 -0.0665
15552W        W32026  18.226   7.786  11.308 -0.2134 -0.1626 -0.1069
15553W        W32027   0.537   0.370  10.943  0.1051 -0.1241 -0.0264
15554W        W32028  14.410  17.254   4.058 -0.0584  0.0602  0.0526
15555W        W32029  17.343  10.172   1.568  0.4337 -0.0157 -0.3233
15556W        W32030  13.258  16.537  15.295 -0.1133  0.1258  0.2276
15557W        W32031   2.924  15.647   4.729  0.3841 -0.1954 -0.3379
15558W        W32032   7.476   7.976   0.630  0.0977  0.1742 -0.1922
15559W        W32033   9.216   7.662  12.816  0.2445 -0.1246  0.1524
15560W        W32034  14.440   4.851  11.589 -0.2435  0.0004 -0.0391
15561W        W32035  12.372   1.304  14.969  0.3724 -0.1081  0.0469
15562W        W32036  17.397   9.036  13.636 -0.2647  0.1086  0.2736
15563W        W32037   0.584  11.629  10.378 -0.0196  0.1915  0.4074
15564W        W32038  11.764  12.877   2.281 -0.0595  0.2001  0.2791
15565W        W32039  10.094   4.050  13.793  0.0042 -0.2470  0.2506
15566W        W32040  12.704   3.728   3.218  0.1901  0.2055 -0.1221
15567W        W32041  10.083  10.812   2.562 -0.1634 -0.2448  0.1025
15568W        W32042  10.593  13.980  11.605  0.1019  0.3334  0.2398
15569W        W32043  11.089  14.497   4.955  0.1592  0.0061  0.2558
15570W        W32044  10.570   5.812  14.863 -0.1326 -0.1079 -0.1788
15571W        W32045   2.958   8.789   1.835  0.2538  0.1424 -0.4278
15572W        W32046   9.489   2.218   4.571  0.0702 -0.1602 -0.0589
15573W        W32047  12.983   1.938  11.147  0.1489 -0.1243  0.0012
15574W        W32048  15.156  10.121  12.854 -0.1504 -0.2551 -0.0528
15575W        W32049  17.076  18.819  11.811  0.0651 -0.3044  0.2942
15576W        W32050   6.015   1.545   1.449 -0.1457 -0.0625  0.1920
15577W        W32051  10.601   0.573   3.524  0.1538  0.3278  0.2567
15578W        W32052  16.267  15.845  13.105  0.1658  0.1129  0.0698
15579W        W32053   2.326  17.642   4.566  0.0507 -0.1675  0.0008
15580W        W32054   1.763  17.187   1.359 -0.0970  0.1737 -0.2117
15581W        W32055  14.880   9.452  10.684 -0.1560  0.0739  0.2596
15582W        W32056   7.922   2.386  15.605 -0.0340  0.0521  0.1256
15583W        W32057  10.447  11.851  12.863 -0.0139 -0.0639  0.1511
15584W        W32058  17.368   7.769   2.568 -0.2243  0.1973 -0.0020
15585W        W32059   0.417   1.892  10.497 -0.0802  0.3901 -0.1943
15586W        W32060  11.288   0.828  10.320 -0.0475 -0.0323  0.0100
15587W        W32061  12.738  15.565  14.232 -0.0971  0.2614 -0.1257
15588W        W32062   4.123   4.194  10.782  0.0993  0.2287 -0.0328
15589W        W32063   0.266   4.294  15.098  0.1355 -0.2706  0.0163
15590W        W32064   3.880   6.889   0.660 -0.2095  0.0974 -0.0019
15591W        W32065   8.826   8.607  15.350 -0.0068  0.2864 -0.2617
15592W        W32066  14.867  16.802  10.962  0.0143  0.2136  0.0103
15593W        W32067   6.754  16.070   0.999  0.2208  0.1008 -0.0052
15594W        W32068   5.677   7.535  13.486  0.2263 -0.1111 -0.0277
15595W        W32069  14.896   9.178  13.136 -0.1066  0.0071 -0.1539
15596W        W32070   1.425   1.563   4.700  0.0772  0.0558 -0.0897
15597W        W32071  14.621   8.811  14.759 -0.3806 -0.2470  0.2646
15598W        W32072  10.190  11.326  14.342  0.0480  0.1197 -0.3590
15599W        W32073  15.508   7.051  12.141  0.1443  0.1088  0.0990
15600W        W32074   5.091  11.428  12.529  0.2086  0.2698 -0.0242
15601W        W32075   4.282  16.525  11.962  0.1325  0.0726  0.1033
15602W        W32076   2.502  13.769  11.110  0.0041 -0.1167  0.1766
15603W        W32077  14.221   1.657  13.947 -0.1569  0.2379 -0.0221
15604W        W32078  11.993  11.019  14.097  0.0009  0.4315  0.0669
15605W        W32079   0.964  10.257   4.431  0.2671  0.1706  0.1514
15606W        W32080   3.569  18.119   3.844 -0.0547  0.2288  0.4708
15607W        W32081   5.415   9.324  10.970  0.2082  0.4163 -0.0914
15608W        W32082   8.271  10.001  14.806  0.2609  0.2288 -0.2870
15609W        W32083  10.242   7.111   0.551  0.1936  0.3631  0.0289
15610W        W32084  11.978   2.932  15.037 -0.2887  0.1655 -0.1143
15611W        W32085  12.913  12.388  11.109  0.3181  0.1319  0.2700
15612W        W32086  17.386   9.151  11.838 -0.2377  0.0113  0.1186
15613W        W32087   0.678  17.155  10.401  0.4112  0.0744 -0.0818
15614W        W32088   2.495   1.749   3.734  0.0720 -0.2075 -0.1165
15615W        W32089   2.553  13.740   1.248  0.2063  0.2103 -0.0114
15616W        W32090   4.440   8.230   3.070  0.3495 -0.0236 -0.1541
15617W        W32091   8.369   6.545  14.525 -0.2776 -0.1722 -0.1696
15618W        W32092  15.475  11.032  14.716 -0.0820 -0.1224  0.3073
15619W        W32093   0.970  14.596  12.888 -0.2998 -0.0652 -0.0254
15620W        W32094   4.694   2.669  13.699  0.0336  0.0121  0.1323
15621W        W32095   6.272   3.341  11.788  0.1784 -0.1332  0.1787
15622W        W32096   7.609   0.521  13.206  0.0367  0.0105 -0.3090
15623W        W32097   7.195   4.734  15.610  0.2054  0.0932 -0.0019
15624W        W32098  18.628  18.136   0.649 -0.1770 -0.0656  0.0754
15625W        W32099  16.320  15.461  14.722  0.0182 -0.2390 -0.1585
15626W        W32100  12.739   6.999   3.250  0.5096 -0.0690 -0.1678
15627W        W32101   3.313   9.565   3.529 -0.1025 -0.3018 -0.0962
15628W        W32102  14.353  15.712  11.387 -0.2028 -0.1533  0.1301
15629W        W32103  11.027   7.075   2.733  0.0971  0.1877  0.0605
15630W        W32104   3.441   8.755  15.123  0.3638  0.3942 -0.0892
15631W        W32105   2.407   7.887  10.085  0.1745 -0.0610 -0.1901
15632W        W32106   0.402  12.584   2.206 -0.2859 -0.0150 -0.1535
15633W        W32107  18.721   0.835   9.527  0.0035  0.6147 -0.2815
15634W        W32108   0.358   7.750  12.396 -0.1012  0.1448 -0.2356
15635W        W32109   2.822  10.133   4.070 -0.0882  0.0554 -0.1275
15636W        W32110   7.526   9.662  12.752 -0.1382  0.1389 -0.1877
15637W        W32111   6.133   8.709   5.324 -0.1422  0.2052  0.1559
15638W        W32112   9.075   0.939  14.486 -0.0479  0.0169  0.1236
15639W        W32113   8.770  12.494  15.363 -0.1583 -0.2513 -0.1383
15640W        W32114  13.505  12.298   4.907 -0.3650  0.1867 -0.4009
15641W        W32115  15.153   3.676   3.964 -0.0684  0.0362 -0.0108
15642W        W32116  16.817   6.783   2.046 -0.1697 -0.3332 -0.0579
15643W        W32117  13.384   0.795   0.975  0.1965  0.1876  0.1121
15644W        W32118  13.555   5.327   4.088 -0.0600  0.2199  0.1193
15645W        W32119   3.096  10.645   2.107 -0.1451  0.2639  0.3210
15646W        W32120   9.471  12.626   3.059 -0.2401  0.0745  0.0737
15647W        W32121   4.092   0.368   0.362  0.1833 -0.3730 -0.0445
15648W        W32122   0.241   0.301  11.947  0.0253  0.1819  0.1934
15649W        W32123  11.549   5.056   0.086 -0.0924  0.0431 -0.0516
15650W        W32124  15.897   2.728   0.686 -0.4759  0.2667 -0.0361
15651W        W32125  14.330   3.759  12.086  0.1263  0.0901  0.1065
15652W        W32126  14.323  11.626  11.384 -0.0777 -0.0488 -0.1376
15653W        W32127   7.092   2.448   4.608  0.0283  0.1830  0.0251
15654W        W32128   8.559   8.399   3.132 -0.0188  0.2149  0.0973
15655W        W32129   3.043  17.161  13.790 -0.1061 -0.0212 -0.0715
15656W        W32130  10.777  12.812   0.849 -0.1508  0.1556 -0.0062
15657W        W32131  14.683  11.167   1.275 -0.1995 -0.1693  0.0784
15658W        W32132   7.107  10.179   1.805  0.0729 -0.0860  0.2745
15659W        W32133   9.542   6.260   2.690  0.0799 -0.1230 -0.1872
15660W        W32134  11.014   4.532  15.407  0.1401  0.2081  0.1600
15661W        W32135   2.143   8.737   0.957 -0.2507 -0.1509  0.0597
15662W        W32136   3.657  14.848  11.852  0.1889  0.0712  0.0363
15663W        W32137   2.395   8.202  10.645  0.1717 -0.2015 -0.1369
15664W        W32138  14.967   9.881   5.232 -0.1037  0.3272  0.3262
15665W        W32139   6.345   1.266  11.308  0.0316  0.1261  0.3518
15666W        W32140   5.009   1.001  12.347  0.1398 -0.3869 -0.2104
15667W        W32141   7.392   6.706  13.347  0.1533 -0.0457 -0.1107
15668W        W32142   0.644   4.530  13.950  0.1271  0.0272  0.2268
15669W        W32143   9.029  14.737   5.324  0.1402  0.0887 -0.1413
15670W        W32144  12.527   9.583   3.272 -0.1186 -0.0152  0.3437
15671W        W32145  11.905   6.307  15.451 -0.1639 -0.0840 -0.0742
15672W        W32146  11.770   8.614  14.179  0.0572 -0.2198 -0.3601
15673W        W32147  13.963   4.108   3.085 -0.0241 -0.0809  0.0374
15674W        W32148   8.027   9.650   3.304 -0.0451  0.0520  0.3380
15675W        W32149  12.107  13.991  13.953  0.3786  0.0983 -0.1064
15676W        W32150   9.462   3.626   1.333  0.0400  0.1907  0.0091
15677W        W32151   5.704   3.036   4.084  0.1224 -0.2424  0.0628
15678W        W32152  14.820  13.673  12.864 -0.1573 -0.1969  0.1245
15679W        W32153   4.434   5.177  15.675 -0.3876 -0.0845 -0.1409
15680W        W32154   6.676  17.068   4.664  0.0836  0.2415 -0.3132
15681W        W32155   8.676  15.541  14.831 -0.1307 -0.4142 -0.3448
15682W        W32156   0.277  16.369   1.185 -0.0942  0.4380  0.0565
15683W        W32157   1.690   0.089  11.245 -0.1177 -0.1132  0.0931
15684W        W32158   8.994   5.038  12.909  0.1457  0.3288 -0.2706
15685W        W32159  16.907  12.439   2.764 -0.0629 -0.0424  0.1113
15686W        W32160  14.362   9.664   1.111  0.2141  0.1054 -0.2584
15687W        W32161  15.328   5.290  15.168  0.1011 -0.0187 -0.0224
15688W        W32162  13.651   6.018   5.386 -0.2679 -0.0958 -0.2038
15689W        W32163   0.849   6.958   3.261  0.0226  0.0181  0.1859
15690W        W32164  12.477   7.523  11.839 -0.0040 -0.0357  0.0123
15691W        W32165   9.315   8.540   2.295  0.2375  0.1449  0.2184
15692W        W32166   7.043  14.098   0.693 -0.2750 -0.3370 -0.1955
15693W        W32167   5.168   3.521   3.064  0.1896 -0.0286  0.1288
15694W        W32168  17.064  18.151  11.767 -0.1241 -0.3500 -0.0674
15695W        W32169  14.815   8.214   0.399  0.0065  0.0224 -0.1192
15696W        W32170  16.041  18.432   3.150 -0.1717 -0.1131  0.3566
15697W        W32171   8.458   8.861   2.958  0.1284  0.0424  0.2521
15698W        W32172  10.997   6.668   5.318 -0.4997  0.0162  0.0377
15699W        W32173  18.038   7.466   0.836  0.2468 -0.0023  0.0635
15700W        W32174  18.130   4.301  13.693 -0.3060 -0.3895  0.0543
15701W        W32175  17.517   2.889   1.707  0.0877 -0.2183  0.3075
15702W        W32176  18.238   0.792  15.339  0.0221 -0.1231  0.1365
15703W        W32177  13.346   4.808   1.161 -0.3205 -0.1791 -0.1854
15704W        W32178  10.097  15.385  12.574  0.0214 -0.0171 -0.0169
15705W        W32179   9.953  10.535   4.023  0.4176 -0.2956 -0.4280
15706W        W32180   9.206  13.850   2.771 -0.0209 -0.1007 -0.0443
15707W        W32181  18.560  18.230  14.202 -0.1530  0.0467 -0.2439
15708W        W32182   6.319   5.646  13.297  0.0542  0.0054  0.0159
15709W        W32183  16.732  11.555  15.239 -0.2301  0.1665  0.0610
15710W        W32184   2.336  14.702   0.869 -0.0809  0.0447  0.1439
15711W        W32185   4.023  11.326   2.515  0.0321 -0.0919  0.1178
15712W        W32186   4.827  11.099   1.079  0.0722 -0.2695 -0.1143
15713W        W32187   3.398  16.471   3.170 -0.5156 -0.0524  0.2529
15714W        W32188  15.077  15.639  10.668  0.2660  0.0764  0.0746
15715W        W32189  16.156   0.182  15.418  0.2273  0.1197 -0.3324
15716W        W32190  15.455   4.847  13.499 -0.1710 -0.0373  0.0476
15717W        W32191  14.174   2.009  10.735 -0.3155  0.1449  0.0017
15718W        W32192  10.221  11.800  13.832 -0.1821 -0.2566  0.2243
15719W        W32193   0.678   8.398   3.237  0.1109 -0.1010 -0.4012
15720W        W32194  11.610   0.180   5.733 -0.0513  0.0446  0.2333
15721W        W32195  14.271  14.833  11.122  0.4249 -0.0276 -0.0693
15722W        W32196   6.711  11.253  14.590  0.2577 -0.1640 -0.1997
15723W        W32197   9.011   2.514  15.577 -0.1045  0.1905 -0.0204
15724W        W32198  17.185   8.470   3.861  0.2621 -0.2089 -0.1061
15725W        W32199  15.663   1.333   1.612  0.1000  0.2494  0.2470
15726W        W32200  17.252   8.170   2.271  0.1181 -0.0204  0.1790
15727W        W32201  13.497   6.233   3.826  0.0149 -0.0450  0.3099
15728W        W32202  11.947   4.857   5.056 -0.1260 -0.1174 -0.2699
15729W        W32203  12.737   2.128   3.280 -0.1328 -0.1734 -0.2034
15730W        W32204  12.357   9.804  12.212  0.2588 -0.1073  0.3581
15731W        W32205  12.581  15.538  12.003  0.4322 -0.1249  0.1881
15732W        W32206   5.232   2.587   2.745 -0.1147 -0.0613 -0.1620
15733W        W32207  13.897   8.043   4.359  0.1638  0.2120 -0.1366
15734W        W32208   6.936   8.101   4.539 -0.2267 -0.1413  0.2363
15735W        W32209  12.102   8.080   4.469  0.2464  0.1332  0.0335
15736W        W32210  12.387  13.163   5.379  0.0779  0.1428 -0.1264
15737W        W32211   7.946  18.599  14.219  0.2472  0.1748 -0.2843
15738W        W32212   0.420  16.328   2.064 -0.0794 -0.2614 -0.2534
15739W        W32213  10.977   4.904   4.698 -0.2556  0.2895 -0.2168
15740W        W32214   5.578   9.572   4.192  0.1971 -0.2920  0.0342
15741W        W32215  13.112   5.679  11.873  0.0858 -0.1047  0.3692
15742W        W32216   8.161  11.962  11.462 -0.0402 -0.1422 -0.0560
15743W        W32217  14.548   5.549   2.789 -0.2908 -0.1245  0.3333
15744W        W32218   4.120   6.636  13.397  0.0625 -0.0348  0.0524
15745W        W32219   8.344  16.521  15.124 -0.1982 -0.2334  0.2270
15746W        W32220   8.944   4.713   2.431  0.0040 -0.1604 -0.0648
15747W        W32221   6.827  12.112   3.849 -0.3587  0.0760  0.1160
15748W        W32222   4.256   2.319  13.385 -0.0563  0.1968 -0.0440
15749W        W32223   0.440   6.161   2.439 -0.0528  0.1765  0.2136
15750W        W32224  12.654   8.783   4.881 -0.3666 -0.1754 -0.3732
15751W        W32225   8.222   8.437   1.973  0.0369  0.1952 -0.3291
15752W        W32226  11.295  11.930   1.123  0.0061 -0.2420 -0.0573
15753W        W32227   0.492  14.742  12.747  0.2442  0.2691 -0.1340
15754W        W32228   9.406   3.729  11.569  0.0039 -0.2819  0.1058
15755W        W32229  13.971  10.801  12.766 -0.1723  0.0147 -0.1156
15756W        W32230  13.769  14.595  11.868 -0.0763 -0.5018 -0.1947
15757W        W32231   8.323  14.726   6.139 -0.0408 -0.2150  0.2381
15758W        W32232  12.777  16.806   4.722 -0.0032  0.1812  0.0161
15759W        W32233  13.557  18.627   0.474  0.1453  0.1928 -0.0488
15760W        W32234   8.125   5.836   3.478 -0.2156  0.1471 -0.0212
15761W        W32235   7.332   5.535   0.978  0.1184 -0.0156  0.1249
15762W        W32236   2.277   3.423  15.648  0.3208  0.0261  0.0117
15763W        W32237  15.276   5.439  14.609 -0.2681  0.1707 -0.2080
15764W        W32238   5.621   8.826  12.936 -0.0351 -0.2556  0.0692
15765W        W32239  16.619  17.440   1.628 -0.0552 -0.0393 -0.1769
15766W        W32240  11.565   3.296   5.092 -0.0933  0.1179 -0.2714
15767W        W32241   3.389   8.179   1.202 -0.1749  0.3124  0.3571
15768W        W32242   0.700  15.822  11.648 -0.1718  0.1038 -0.2024
15769W        W32243   2.136  15.025   1.349 -0.1197 -0.2736 -0.0843
15770W        W32244  13.047   2.065   4.189 -0.0102  0.0013 -0.1929
15771W        W32245   6.823  11.106  12.767 -0.3640 -0.1386 -0.0961
15772W        W32246   4.179   9.958  12.600 -0.1924  0.0733 -0.0025
15773W        W32247  15.688   1.025   0.136 -0.1639  0.0211  0.0954
15774W        W32248   2.204  18.654  10.342  0.1977 -0.2231  0.0358
15775W        W32249  18.055  11.298   5.137 -0.1233 -0.1807 -0.1535
15776W        W32250   8.515  14.406   0.029  0.1904  0.1243 -0.1534
15777W        W32251  14.000   0.544   2.976  0.0529  0.2052 -0.0931
15778W        W32252   7.322  16.444   2.084  0.0477 -0.0183  0.1050
15779W        W32253   4.613   1.163  15.591  0.2903  0.1990  0.1281
15780W        W32254   2.319  14.624  15.341 -0.1329  0.0530  0.3186
15781W        W32255   2.891   7.163  14.570 -0.1285 -0.1439 -0.1665
15782W        W32256   1.466   2.041  14.890 -0.2737 -0.1533 -0.0810
15783W        W32257   9.775   3.156   4.215 -0.5088 -0.0329 -0.2057
15784W        W32258  11.913  16.633  14.997  0.1474 -0.0132 -0.0503
15785W        W32259  16.335  10.091   2.372  0.2013  0.2091  0.0111
15786W        W32260   4.803  11.157   2.852 -0.0298  0.0570 -0.0258
15787W        W32261   1.858  16.572  15.388 -0.0983  0.5143  0.1345
15788W        W32262  11.254  14.059   1.164 -0.0416  0.1740 -0.0271
15789W        W32263  17.231   3.405  10.499 -0.0219  0.1371 -0.3663
15790W        W32264  11.602  13.022  14.987  0.1196 -0.2754  0.2570
15791W        W32265  16.693   1.877  11.821 -0.1053  0.2012 -0.0353
15792W        W32266   2.263  14.609   2.324  0.0825  0.0305 -0.0412
15793W        W32267  17.768  18.449   4.668  0.0960 -0.1398 -0.0974
15794W        W32268   6.962  11.742   4.689 -0.0323 -0.1221  0.2295
15795W        W32269   1.435   8.873  12.694 -0.0595  0.0757  0.0622
15796W        W32270   5.896   2.211  11.410 -0.0338 -0.3579  0.0130
15797W        W32271  18.171  10.160   5.200  0.0726  0.0735  0.4605
15798W        W32272   4.651   1.792   2.477  0.1378  0.3460 -0.1801
15799W        W32273  18.642  15.545   3.867 -0.1798 -0.0735  0.1251
15800W        W32274  16.731   7.113   3.745  0.2314  0.0685  0.1224
15801W        W32275   2.588  17.260   4.225 -0.3793 -0.0493  0.0261
15802W        W32276   7.767  16.925  13.251  0.2670 -0.1235 -0.1274
15803W        W32277  13.062   4.805  11.257  0.1186  0.1705 -0.3331
15804W        W32278   0.987  14.611  13.489  0.1727 -0.2213 -0.1056
15805W        W32279   5.941   8.614   0.148 -0.1013  0.0259  0.1473
15806W        W32280  13.820  16.370  15.115  0.2353  0.0582  0.0907
15807W        W32281   6.904  14.392   5.508  0.0613  0.2414  0.0277
15808W        W32282   5.645  14.495   5.280  0.2393 -0.4341 -0.1549
15809W        W32283  11.155  10.454  13.936 -0.0879 -0.1458 -0.0816
15810W        W32284   8.015  13.694   5.378 -0.3745  0.1248  0.1793
15811W        W32285   7.193   4.017  15.142 -0.0525  0.1852 -0.1121
15812W        W32286   6.994   7.264  12.062 -0.1240 -0.0325 -0.3458
15813W        W32287   8.223  16.888  11.328 -0.2364  0.1866 -0.2158
15814W        W32288   6.569  11.686  15.429 -0.0535 -0.2145  0.1094
15815W        W32289  17.028   8.368   0.528 -0.0945 -0.1206  0.2057
15816W        W32290   9.190  11.172  10.928  0.0552  0.0589  0.0168
15817W        W32291   3.261   9.199  13.822  0.1316 -0.2880 -0.1074
15818W        W32292   7.650   4.892  13.789  0.2338  0.0159 -0.2970
15819W        W32293  14.598   4.061  14.931 -0.2210 -0.1530  0.1337
15820W        W32294  15.105  15.813   1.738 -0.0522  0.2856 -0.3858
15821W        W32295   7.915   9.585  14.122  0.3032 -0.1118 -0.0922
15822W        W32296   9.213  10.786   0.223  0.0567 -0.2168  0.1794
15823W        W32297   8.186   9.375   5.300 -0.1673  0.0953  0.0863
15824W        W32298  16.415   6.569   2.261  0.0702  0.1330 -0.1090
15825W        W32299  18.757   1.855   0.318 -0.0355  0.0676  0.0323
15826W        W32300  14.358   1.801   0.427 -0.1107 -0.1638 -0.0980
15827W        W32301  17.428   4.838  14.949  0.3743 -0.0832 -0.2879
15828W        W32302  15.777   5.993  11.944  0.4664  0.1457  0.0501
15829W        W32303   7.577   4.564  11.463  0.3127  0.0875  0.1840
15830W        W32304  18.798   9.483   9.686 -0.0424 -0.2233  0.2989
15831W        W32305   8.072  17.039  12.170 -0.1712 -0.0608  0.2322
15832W        W32306   8.639  10.818  12.693 -0.2814 -0.0269  0.3612
15833W        W32307   0.699  11.904   2.497 -0.1500  0.0728  0.1368
15834W        W32308   2.916  10.862  14.407  0.3728  0.1975  0.2275
15835W        W32309  14.249   1.418  11.213  0.1396  0.1224 -0.0141
15836W        W32310   6.803   5.713   2.280 -0.0875 -0.3226 -0.1319
15837W        W32311  14.009   1.012  11.048  0.2251 -0.4175 -0.1354
15838W        W32312   9.468  12.057   4.771  0.0571  0.0006 -0.2241
15839W        W32313  14.885  18.137  12.291 -0.1436 -0.1700  0.2432
15840W        W32314   1.690   9.228  13.042 -0.3635 -0.1042  0.0895
15841W        W32315   8.051   1.992  11.792  0.0681 -0.2180  0.0868
15842W        W32316   8.314  10.759   2.316 -0.1486  0.0014 -0.0523
15843W        W32317   4.189   4.565  14.445  0.1932 -0.2313 -0.0048
15844W        W32318   2.810   6.433  10.843 -0.3718  0.0067 -0.1827
15845W        W32319  10.914   7.619   0.395  0.1104 -0.0897 -0.0077
15846W        W32320  12.868  13.048  11.863  0.2339  0.1443 -0.3623
15847W        W32321  13.900  14.559   5.999 -0.0695  0.0360  0.1410
15848W        W32322   3.237  18.305   3.545 -0.2500  0.0717 -0.0529
15849W        W32323   1.934   9.437  10.947 -0.0079  0.2814 -0.0259
15850W        W32324   4.454   7.398  11.349 -0.0562  0.1082  0.1559
15851W        W32325  17.764  18.754   2.351  0.0988  0.0510  0.0127
15852W        W32326  17.682  12.001  14.968  0.2234 -0.4290  0.0592
15853W        W32327   1.441  17.902   3.632  0.0074 -0.1427 -0.2987
15854W        W32328  11.873   1.771   5.946  0.0023  0.2445 -0.3556
15855W        W32329   4.909   6.913  14.784  0.0464  0.1630 -0.0101
15856W        W32330  10.833   4.210   1.627  0.2501 -0.1073 -0.3197
15857W        W32331  10.917  17.859   2.661  0.3162 -0.0748  0.1147
15858W        W32332  11.650   1.186  11.441 -0.1010  0.1180 -0.0836
15859W        W32333   2.127  10.018   0.876  0.1713 -0.0825 -0.0799
15860W        W32334  15.321   1.704   1.579  0.0442 -0.0345  0.2319
15861W        W32335  14.520  15.010   1.876 -0.2094 -0.3371 -0.0769
15862W        W32336  17.531  13.031  14.839 -0.0409 -0.1103 -0.1062
15863W        W32337  14.186  12.424   4.323  0.2686 -0.0722 -0.0492
15864W        W32338  13.852  12.240   3.970  0.0487  0.0223  0.0431
15865W        W32339  12.265  11.902   5.247 -0.0474  0.0258 -0.2251
15866W        W32340   1.902   8.323  13.339  0.0253 -0.1728 -0.3139
15867W        W32341   9.660  10.696   1.183  0.0320 -0.0394  0.3112
15868W        W32342   4.329  12.388   2.149 -0.0732  0.0437  0.0934
15869W        W32343   3.189  14.831   6.056 -0.3855  0.0939  0.1425
15870W        W32344  11.106   5.500   4.047  0.0007  0.3339  0.2156
15871W        W32345   2.618  12.178  11.761 -0.1056  0.0908  0.4270
15872W        W32346  18.534   4.385  12.093 -0.0399  0.0359  0.1620
15873W        W32347  10.492   3.203   4.462 -0.0404 -0.3578 -0.1158
15874W        W32348   6.868   9.481   2.173  0.0718  0.2190 -0.3504
15875W        W32349  18.114   6.132   2.797  0.3189 -0.0455  0.3308
15876W        W32350  17.016  15.243   0.864  0.0772 -0.0418  0.1194
15877W        W32351   3.195   4.243  12.342 -0.0906 -0.2745 -0.0861
15878W        W32352   1.596  11.392  12.870  0.1788 -0.1313 -0.2770
15879W        W32353   2.671  10.569   0.508  0.2248  0.0733 -0.5226
15880W        W32354   7.256   3.377   5.085  0.3227 -0.1096  0.1826
15881W        W32355   6.246   1.805  11.299 -0.0762  0.0056  0.2879
15882W        W32356   9.275   9.594   6.117  0.0203 -0.0499 -0.0848
15883W        W32357   2.543  10.211   5.358 -0.1321  0.1221  0.0453
15884W        W32358  11.547   3.747  11.147 -0.2718  0.0623  0.2206
15885W        W32359  18.703   7.086  10.743  0.0534 -0.0666  0.3145
15886W        W32360  16.679  18.466  11.813 -0.0185  0.3704  0.1552
15887W        W32361   9.176  14.120  13.979 -0.0750  0.1758  0.0955
15888W        W32362   5.628  14.525   0.112 -0.0235  0.1740 -0.0565
15889W        W32363   5.513  15.377   3.549 -0.2510 -0.1028  0.0054
15890W        W32364  11.618   3.103   2.534 -0.0508  0.0173  0.0353
15891W        W32365   2.260   3.636  13.413 -0.2574  0.2935  0.0168
15892W        W32366   0.115   7.361   3.707  0.0787 -0.0859 -0.1029
15893W        W32367   9.184  16.157   4.030  0.0204 -0.2144  0.1045
15894W        W32368  13.275  16.819   3.377 -0.2530  0.0247 -0.3570
15895W        W32369   1.127  17.336  13.198 -0.0438  0.0706  0.0291
15896W        W32370  15.243   4.745   4.636 -0.0952  0.2653  0.2660
15897W        W32371  17.185   5.614   1.386  0.3279 -0.0521 -0.0236
15898W        W32372   9.019  17.505  14.742  0.1931  0.0237 -0.0366
15899W        W32373  14.402  17.483   0.418 -0.0931 -0.3290  0.0776
15900W        W32374   1.344  14.903   0.787 -0.2963 -0.3328 -0.0893
15901W        W32375  11.318   9.342   1.044 -0.1521 -0.1251  0.2558
15902W        W32376  17.457   4.147   2.952  0.0461 -0.0529 -0.1080
15903W        W32377  11.795  14.478  13.910 -0.0178 -0.0659  0.2934
15904W        W32378   1.824   2.549   5.700  0.0499  0.1926  0.0162
15905W        W32379   1.681  13.599  10.751  0.0020 -0.2371  0.1731
15906W        W32380   4.036  10.302  12.159  0.1866  0.0998 -0.0013
15907W        W32381   7.128   3.440   2.313  0.1894 -0.0858  0.0004
15908W        W32382   4.758  12.067   0.332 -0.0258  0.0702  0.1857
15909W        W32383  17.827   1.203  11.232  0.0184  0.2970 -0.2715
15910W        W32384   8.689  13.750  11.600  0.2075  0.2266  0.0851
15911W        W32385  16.079  18.074   9.951  0.1585  0.0121 -0.2376
15912W        W32386  11.280   3.613  14.228  0.0898  0.0186  0.4254
15913W        W32387  14.521  10.399  11.562  0.1728 -0.1386 -0.0222
15914W        W32388   3.669  10.202  12.695  0.1228 -0.1889  0.2289
15915W        W32389   4.643   1.656   3.656  0.0466  0.3838  0.1743
15916W        W32390  10.612   3.386   1.029 -0.0021 -0.2194 -0.0602
15917W        W32391   2.589  10.521   2.360  0.0589 -0.0413 -0.0363
15918W        W32392   8.847   7.236  14.140  0.0655 -0.2979 -0.0563
15919W        W32393  15.302   8.931   4.674 -0.0024 -0.2967  0.2214
15920W        W32394  13.059   7.134   3.650 -0.1263  0.0692  0.2019
15921W        W32395   9.717   8.246  14.186 -0.0480 -0.1425 -0.3191
15922W        W32396   5.316  10.488   2.103  0.3857  0.0430  0.2108
15923W        W32397   7.187   1.339   4.421  0.0969 -0.0831  0.1755
15924W        W32398  17.744   3.987  13.872  0.2227 -0.2961  0.4015
15925W        W32399  10.183   1.995   3.979  0.0074 -0.0633  0.0664
15926W        W32400  16.899   5.330   2.219 -0.1232 -0.0144  0.0125
15927W        W32401   5.816  18.573  15.098  0.3511  0.0305  0.2763
15928W        W32402   3.702   2.372  13.319  0.0409 -0.1646 -0.1080
15929W        W32403   4.068   6.419  14.827  0.0658  0.1030 -0.1283
15930W        W32404   8.788  15.288   3.030  0.0127 -0.2493  0.1744
15931W        W32405   5.316  18.580  11.748  0.1004  0.1937  0.0306
15932W        W32406  17.815  14.005  12.052 -0.1867 -0.1616  0.0251
15933W        W32407  13.059  16.955  11.813  0.3578 -0.0037 -0.0948
15934W        W32408   2.176  18.751   4.749 -0.1430  0.2175 -0.1059
15935W        W32409   1.898  10.753   2.893  0.0026  0.3633  0.1156
15936W        W32410  12.181  14.147   0.684 -0.0103  0.0613 -0.0654
15937W        W32411   7.292  15.602   2.328  0.0328 -0.1097  0.5421
15938W        W32412  10.741  15.045  13.393  0.2163 -0.0494  0.0020
15939W        W32413   8.296  13.986  13.984  0.0779 -0.0493 -0.0296
15940W        W32414  15.097   2.970  10.978  0.1233 -0.1087 -0.1652
15941W        W32415   2.246  14.136   5.197 -0.2195 -0.1156 -0.1244
15942W        W32416   2.171  16.967  12.730 -0.0052  0.0347 -0.0427
15943W        W32417   3.480  15.299   1.677  0.2199  0.2918  0.0901
15944W        W32418   6.527   5.089  12.536  0.1010  0.1782  0.1017
15945W        W32419  12.579  11.526  13.080 -0.2692 -0.1891  0.2824
15946W        W32420  11.597  11.843  13.055 -0.4574  0.1409 -0.0202
15947W        W32421   1.531  16.755   1.048  0.2697 -0.4080 -0.3625
15948W        W32422  11.075  17.299  14.701  0.0873  0.0923 -0.0339
15949W        W32423  18.598  15.185  14.406  0.0176  0.1560  0.3353
15950W        W32424   0.120  17.155   1.742 -0.2178  0.0585 -0.1255
15951W        W32425   3.990  13.213  15.017 -0.0854  0.0693  0.0614
15952W        W32426  10.826  15.827   0.535  0.1159 -0.0440 -0.0813
15953W        W32427   0.167  11.009   3.282 -0.2008 -0.0767 -0.1662
15954W        W32428  16.005  11.313  11.852  0.0888  0.2860 -0.0999
15955W        W32429   2.766  18.700  13.497  0.0022  0.3025 -0.0597
15956W        W32430   0.449  11.674  11.646  0.3380 -0.2239  0.1920
15957W        W32431  16.695   8.376   1.373 -0.0111  0.2560 -0.0987
15958W        W32432  14.380  16.592   5.087 -0.1261  0.4319 -0.1700
15959W        W32433  10.905   8.952   3.252  0.0127 -0.0111 -0.2339
15960W        W32434  15.115  13.730   0.136 -0.1789 -0.1633  0.0069
15961W        W32435  13.752   7.613   5.833  0.1099  0.3111  0.5137
15962W        W32436   1.999  10.887   2.473 -0.0289 -0.0389 -0.3870
15963W        W32437  14.192  17.529  11.289 -0.0505  0.0637 -0.0839
15964W        W32438  18.108   5.303   2.256  0.0177 -0.2366  0.3811
15965W        W32439   8.143   1.949   5.051 -0.0663  0.3358  0.3333
15966W        W32440  18.087  11.885  10.006  0.4349 -0.1000  0.0579
15967W        W32441   3.882  18.637  11.114 -0.0189  0.4079 -0.2770
15968W        W32442  16.040   5.499  10.616  0.2044  0.0909 -0.3261
15969W        W32443   8.200  12.120  13.083 -0.1279 -0.2023  0.0324
15970W        W32444  15.863   0.295  13.799  0.2398  0.0379  0.0566
15971W        W32445  14.772   4.534  14.764  0.0912 -0.0167 -0.1792
15972W        W32446  11.017  16.959  12.772  0.1223 -0.0666  0.0369
15973W        W32447  14.421  14.034  12.792  0.1152 -0.2398 -0.1029
15974W        W32448   4.622   4.819  12.655  0.1029 -0.0891  0.3505
15975W        W32449  12.595   4.643  11.641 -0.0323 -0.1108 -0.4241
15976W        W32450   5.789  14.126   5.529 -0.1131  0.2572 -0.3838
15977W        W32451  18.527   8.959  13.963 -0.0819 -0.2497  0.2279
15978W        W32452   4.513  10.707   0.880  0.3761  0.0295 -0.2062
15979W        W32453  16.434   6.527   3.656  0.1020  0.1707  0.0941
15980W        W32454  12.139  12.155   4.860 -0.0155 -0.0824 -0.1298
15981W        W32455   2.837  16.436  15.303  0.0211  0.0620  0.0007
15982W        W32456   1.099   4.410   0.360  0.0519 -0.1835 -0.2063
15983W        W32457  14.356  12.802   3.866  0.1991  0.2281 -0.3207
15984W        W32458  16.236  14.782  13.371  0.0151 -0.0781 -0.0565
15985W        W32459   5.954  11.831  14.348  0.1256 -0.0187  0.0368
15986W        W32460  14.033   3.772  13.695 -0.1108  0.1545  0.4097
15987W        W32461   8.983  14.478   0.245 -0.1315 -0.2438 -0.0857
15988W        W32462   7.655  12.144   5.043 -0.0144 -0.1547 -0.0926
15989W        W32463  16.730   6.513   2.664 -0.3579 -0.2931 -0.3253
15990W        W32464  18.324  11.598   3.832 -0.1730 -0.0111 -0.2039
15991W        W32465   0.257   8.880  13.761  0.1635 -0.1791 -0.2685
15992W        W32466   2.834  11.484   2.297 -0.0738  0.1734 -0.1808
15993W        W32467  16.283  16.488  15.273 -0.1140 -0.0255  0.1701
15994W        W32468   0.236   6.532   0.651 -0.0295  0.3325 -0.2090
15995W        W32469   1.258   4.999   4.876 -0.1446 -0.0770  0.2302
15996W        W32470   5.216  16.305  14.556  0.0557  0.0044  0.0855
15997W        W32471  16.818   8.443   2.455 -0.3581  0.1451 -0.0769
15998W        W32472  16.837   0.875   2.439 -0.0758 -0.0861  0.0547
15999W        W32473  18.287   5.685   5.347  0.1618 -0.1958  0.1320
16000W        W32474  17.866   9.422   2.274 -0.2246  0.1686 -0.2101
16001W        W32475  14.418  10.292   3.920 -0.3996  0.2412  0.0900
16002W        W32476   2.822   5.898   0.195  0.1720 -0.2316 -0.5657
16003W        W32477   6.414  12.981  11.985 -0.0113 -0.0290  0.1412
16004W        W32478   8.447  15.152   1.969 -0.0226  0.0977  0.2767
16005W        W32479   0.163   8.708  12.730 -0.4105 -0.2425  0.0217
16006W        W32480   0.916  10.682  14.953 -0.0251 -0.1487  0.0363
16007W        W32481   1.044   0.981   3.047  0.1236 -0.2966 -0.0882
16008W        W32482  18.675   0.034   0.385  0.5795 -0.3476  0.2150
16009W        W32483   0.974   8.500  11.502  0.5823 -0.0497  0.0513
16010W        W32484  14.726  14.856   4.970  0.2637  0.1826 -0.0863
16011W        W32485  16.622  17.515   4.573 -0.0171  0.1252 -0.0680
16012W        W32486  12.636   6.344  14.829  0.0621 -0.0478  0.2190
16013W        W32487   3.710  11.216   4.454 -0.0950  0.2022 -0.1430
16014W        W32488  10.934   1.156  13.012 -0.1836 -0.0174 -0.0782
16015W        W32489   0.642  15.896  15.023  0.3999 -0.1839 -0.0460
16016W        W32490  16.690   9.437  11.916 -0.2627  0.2416  0.2855
16017W        W32491  14.605  15.310   2.342 -0.0907  0.2547  0.0918
16018W        W32492  14.975  13.084   1.401 -0.0907 -0.0518 -0.2730
16019W        W32493   5.017   1.640  13.567 -0.2788 -0.1721 -0.1765
16020W        W32494  11.581  14.653  12.930  0.1822 -0.1764  0.0303
16021W        W32495  15.330   4.459   4.228  0.4384  0.1306 -0.0361
16022W        W32496   3.049   1.116   4.045  0.5124 -0.1117 -0.0702
16023W        W32497   2.189   4.344   1.109  0.1301  0.1473 -0.1872
16024W        W32498  14.315  16.362  15.320 -0.0519 -0.4618  0.2169
16025W        W32499   7.365   9.883   3.937 -0.1727 -0.0701 -0.2438
16026W        W32500   0.165   6.290   3.885  0.0327 -0.2122  0.4196
16027W        W32501  14.906  13.190  13.200  0.1254  0.0546 -0.2529
16028W        W32502   7.168   0.717   4.432  0.2604 -0.1762 -0.0617
16029W        W32503   3.901   1.773  15.095 -0.0240 -0.1013  0.0224
16030W        W32504   1.031   4.251  13.535  0.1262 -0.3383 -0.2909
16031W        W32505  16.707  12.788   2.456  0.2274 -0.1431 -0.0876
16032W        W32506   9.023   2.780  12.982 -0.0189  0.1188 -0.1818
16033W        W32507   5.800   4.132  15.024 -0.2267  0.1288  0.0596
16034W        W32508  17.279  11.455   4.401  0.1655  0.2985 -0.2603
16035W        W32509  18.286   0.654   1.955  0.0141 -0.2619  0.0284
16036W        W32510   9.260  13.739  15.199  0.2622 -0.0887 -0.2254
16037W        W32511   4.505  10.261  14.878  0.0438 -0.1918  0.0733
16038W        W32512   0.480  18.795  15.408 -0.1958 -0.1792 -0.3318
16039W        W32513  16.559  16.576  10.389 -0.0606 -0.0691  0.2058
16040W        W32514   6.013  16.125   4.081 -0.1687  0.1898 -0.3887
16041W        W32515   8.682   7.955   0.828  0.1472 -0.2078 -0.1740
16042W        W32516  15.502   0.217   4.203 -0.2909 -0.1259  0.2340
16043W        W32517   0.681  16.270   3.100  0.0079  0.0005  0.2087
16044W        W32518   2.774  13.482   4.220  0.0501 -0.0189  0.1364
16045W        W32519  12.380   9.986  13.102 -0.0570 -0.2678 -0.4572
16046W        W32520  16.496   9.487   1.336  0.2370 -0.0313  0.0035
16047W        W32521   7.303  13.399  15.559  0.1270  0.1115 -0.0165
16048W        W32522  16.171  13.108  12.854 -0.0594 -0.0607 -0.3338
16049W        W32523  14.371  17.837  10.533  0.2355 -0.2012 -0.0661
16050W        W32524   2.914   9.558   1.257  0.2852  0.0206  0.2413
16051W        W32525   6.843  14.992   2.230  0.0164 -0.1212 -0.0502
16052W        W32526   2.704   1.386   0.720  0.2323  0.0449 -0.3200
16053W        W32527   2.654  16.108   0.357 -0.0781 -0.2146  0.2890
16054W        W32528   0.413   7.773   2.254  0.1554  0.1339 -0.3176
16055W        W32529  14.575   3.490  14.661  0.3849  0.1568 -0.1901
16056W        W32530   1.918  12.031   0.115 -0.1393  0.0116 -0.2575
16057W        W32531   3.705   0.610  14.719  0.3226 -0.4366  0.0731
16058W        W32532   8.491   6.496   0.530  0.2200 -0.1187 -0.1464
16059W        W32533   0.616   2.488  15.517  0.2064  0.1506 -0.4641
16060W        W32534   7.189   6.321  15.359  0.2863 -0.1427  0.0133
16061W        W32535  15.682   2.394   0.434 -0.0383 -0.0711 -0.1161
16062W        W32536  11.742   7.093  10.607  0.0650  0.3015  0.0155
16063W        W32537   5.201   7.500  13.467  0.0339 -0.0660  0.0591
16064W        W32538  15.855  13.295   3.924  0.3059  0.3164 -0.1513
16065W        W32539  15.694   4.831   3.224  0.2142  0.0624  0.2522
16066W        W32540   7.056  13.545  14.890  0.0396  0.0733 -0.2518
16067W        W32541  13.269  12.136   1.121 -0.2036 -0.2149 -0.0371
16068W        W32542   9.728  10.004   0.100  0.3586 -0.2504  0.0370
16069W        W32543   1.412  18.488   1.002  0.1427 -0.1060 -0.0758
16070W        W32544  12.814  15.393  12.428 -0.0722  0.0065 -0.0362
16071W        W32545   9.873   4.391   1.578 -0.0591  0.3628 -0.1690
16072W        W32546  17.319   5.387  14.110 -0.4300 -0.0390  0.0123
16073W        W32547  10.725  16.286   2.078  0.0993 -0.1516  0.3356
16074W        W32548  14.382  15.722   2.507  0.0524 -0.1275 -0.0021
16075W        W32549   5.940  14.949  13.902  0.0037  0.0712 -0.2021
16076W        W32550   9.730  11.054   3.961  0.0279  0.1308  0.0006
16077W        W32551  15.659   5.195  10.644  0.2501 -0.0742  0.0952
16078W        W32552  10.969  12.406  12.300  0.2399  0.0512 -0.1195
16079W        W32553   2.060   8.470  14.262  0.0906 -0.1128  0.0759
16080W        W32554   8.122   5.946   4.039 -0.2376 -0.3976  0.2819
16081W        W32555   2.603  14.229  11.102  0.1671 -0.1039 -0.1171
16082W        W32556  11.790   9.889  12.159 -0.1702  0.0772  0.2072
16083W        W32557  11.743  11.024  14.627  0.0700  0.1705 -0.2198
16084W        W32558  18.150   7.161   4.191  0.0251 -0.4467  0.1524
16085W        W32559   2.593   1.423  14.194  0.2999 -0.1620  0.2564
16086W        W32560   7.715   0.553   0.852 -0.3203 -0.2355 -0.1125
16087W        W32561   2.268   3.935   4.174 -0.0047 -0.0955  0.3351
16088W        W32562   9.799  18.701  13.494  0.4446 -0.0278 -0.2150
16089W        W32563   4.044   4.148  12.658  0.0699  0.0491 -0.1204
16090W        W32564   5.851  10.728   3.626  0.0098  0.0097 -0.1826
16091W        W32565  11.256  15.044   1.425 -0.1751  0.1662 -0.2951
16092W        W32566   6.022  16.606   0.680  0.2074  0.0733  0.1014
16093W        W32567  12.134  14.086  12.937 -0.0229 -0.0743 -0.1614
16094W        W32568  14.982  10.541  14.110 -0.1530 -0.1091 -0.1025
16095W        W32569   3.935   6.837  12.969 -0.0228  0.1205 -0.0203
16096W        W32570   4.257  12.549   5.305  0.3083  0.0400 -0.1298
16097W        W32571  15.524   8.487  15.428 -0.2418 -0.1637  0.0077
16098W        W32572   9.959   2.883   1.318  0.1632 -0.1665  0.0290
16099W        W32573  11.425   0.388  15.580  0.2026 -0.0320 -0.0955
16100W        W32574   6.308  18.413   4.115 -0.1152 -0.0823  0.0835
16101W        W32575   8.016   9.629   1.623 -0.3671 -0.2839  0.1082
16102W        W32576  10.861   4.472   2.060  0.1653  0.0689  0.1803
16103W        W32577   0.016  14.503   3.571 -0.1538 -0.1011 -0.4214
16104W        W32578  18.455   8.953   2.654 -0.1361 -0.0608  0.1174
16105W        W32579   5.638   7.518  11.067 -0.0441  0.0274 -0.1287
16106W        W32580   3.593   6.642   1.067 -0.0682  0.0916  0.2566
16107W        W32581  13.300   9.012  11.987  0.1593  0.0578  0.1667
16108W        W32582  16.780   0.826  10.223  0.3057 -0.2780 -0.0659
16109W        W32583   3.677   5.326  13.414 -0.0442  0.1335  0.1445
16110W        W32584   0.113   2.326  11.690  0.0262 -0.1085  0.1475
16111W        W32585   3.106   2.787   4.999 -0.1681  0.0303 -0.3604
16112W        W32586  14.749   3.148  13.294  0.0811 -0.3580 -0.1502
16113W        W32587   0.230  13.642   3.098 -0.0213  0.1541  0.0044
16114W        W32588  12.400  17.336   1.104 -0.0424 -0.2522  0.1555
16115W        W32589   8.682   2.543  15.104  0.0524  0.6140 -0.3903
16116W        W32590   0.766  17.490   2.978  0.0990 -0.1789  0.2060
16117W        W32591  14.024   6.446   1.973 -0.0530 -0.0910 -0.5341
16118W        W32592  13.674  12.413   1.182 -0.1800 -0.0909  0.3943
16119W        W32593   0.344  15.839  10.620  0.0869 -0.2200  0.2768
16120W        W32594   4.503  18.322  13.944 -0.1846 -0.2036 -0.1592
16121W        W32595   0.351   8.153  12.726  0.1716 -0.1293  0.1511
16122W        W32596   6.867  17.896  12.705  0.0977 -0.3218 -0.0548
16123W        W32597   7.489  11.419  15.460  0.3044  0.2306 -0.0236
16124W        W32598   3.029   2.125   0.087 -0.0202  0.3079 -0.4604
16125W        W32599  15.506  18.177   1.761 -0.3215  0.2066  0.0318
16126W        W32600   6.558   6.477   0.539 -0.1151  0.0471  0.1487
16127W        W32601   9.840  10.086  13.848 -0.1507  0.2973  0.0707
16128W        W32602   6.496   5.881   3.376  0.1070 -0.2605  0.2025
16129W        W32603   6.805  18.719  10.676 -0.1246 -0.1322 -0.1389
16130W        W32604   3.009  18.011   2.047  0.2396 -0.3944  0.0345
16131W        W32605  16.554  13.242   1.053  0.0603  0.0613 -0.0998
16132W        W32606   2.002  18.787   5.266  0.0979 -0.0995  0.1687
16133W        W32607  14.046  12.663  10.988  0.0327 -0.0641  0.0241
16134W        W32608  18.409  11.328   2.643  0.1234 -0.2198  0.0252
16135W        W32609   7.825  15.649   2.365 -0.0312  0.0519  0.0795
16136W        W32610  13.993   5.451   9.744 -0.1829 -0.0442 -0.1993
16137W        W32611   9.511   2.813  12.886 -0.2507 -0.2961  0.1594
16138W        W32612  16.478  16.368  11.325  0.2610  0.1186  0.1491
16139W        W32613  16.896  10.338  15.654  0.0881  0.0017  0.2003
16140W        W32614  18.309  17.432   3.859  0.3102  0.4573 -0.1366
16141W        W32615   2.077   6.931  11.863  0.1410 -0.0104  0.0424
16142W        W32616   5.518  14.653  11.863 -0.1107  0.0399 -0.2118
16143W        W32617   6.034   0.775   3.036 -0.1130 -0.1275  0.0034
16144W        W32618  17.954  16.072   2.876 -0.4313 -0.0698  0.1183
16145W        W32619   4.266   4.754  12.064  0.0883  0.2345 -0.1549
16146W        W32620   2.229  15.984  13.265 -0.1015  0.0292  0.2121
16147W        W32621   0.983   7.874  15.449  0.2178 -0.2190  0.1376
16148W        W32622   1.013  18.177  11.493 -0.3357 -0.0315  0.0261
16149W        W32623   7.154  11.016  13.532 -0.2137 -0.2034 -0.0118
16150W        W32624  15.809  12.943   3.000 -0.0414 -0.1121 -0.0411
16151W        W32625  10.196  16.692   0.292  0.1644  0.2156 -0.3601
16152W        W32626  17.058  15.164  12.697 -0.1722 -0.4154  0.4661
16153W        W32627   0.568   9.286   5.465 -0.0022 -0.0437 -0.0041
16154W        W32628   5.140   4.894  12.510 -0.1514  0.2402 -0.0974
16155W        W32629   6.640  11.825   2.767 -0.1290 -0.0997 -0.1886
16156W        W32630  15.355   4.347  13.210 -0.0501 -0.0779 -0.0287
16157W        W32631   1.887  14.543   3.707 -0.1288 -0.2538 -0.2975
16158W        W32632  17.117  12.044  14.390 -0.0434  0.0709  0.0719
16159W        W32633  16.818  16.416  13.161 -0.0075  0.4652 -0.0056
16160W        W32634  13.343   0.445   4.485  0.0086 -0.2606  0.0404
16161W        W32635  11.926  17.547  14.246 -0.1317 -0.1771 -0.1193
16162W        W32636  16.294  17.017   1.706  0.4154 -0.5783 -0.0553
16163W        W32637  14.242   5.558  10.681 -0.2693 -0.0473  0.0645
16164W        W32638   4.433   2.029  13.797 -0.0058 -0.1438 -0.2848
16165W        W32639   6.067   8.988  12.866 -0.0212 -0.0223  0.2311
16166W        W32640   3.813  11.470  12.275 -0.1867 -0.1054  0.0132
16167W        W32641   4.228   8.776  14.585 -0.1827 -0.1462  0.3130
16168W        W32642  17.540  16.048  10.658 -0.4107 -0.0466 -0.3307
16169W        W32643   1.784   5.643   0.613 -0.0743 -0.0874  0.3345
16170W        W32644   7.238   6.137  10.261  0.0591 -0.1676 -0.0605
16171W        W32645   1.333   2.897  14.940 -0.0926 -0.4701  0.0214
16172W        W32646   3.269  10.278   0.465  0.1598  0.1237 -0.0727
16173W        W32647  10.982   8.541  14.601 -0.0221 -0.2294 -0.0316
16174W        W32648  15.801   3.849  11.443 -0.0901 -0.0564 -0.2608
16175W        W32649  11.818  17.938   2.216 -0.0237 -0.2094  0.0198
16176W        W32650  13.946   9.809   1.918 -0.0205 -0.0555  0.0012
16177W        W32651  12.797   1.515   2.483 -0.2870  0.1103 -0.0251
16178W        W32652   1.786   9.216   1.283  0.0961 -0.1594  0.0136
16179W        W32653  15.919   9.122   0.130 -0.0983  0.2737 -0.1317
16180W        W32654   8.521   6.629  15.230 -0.0062  0.1400  0.1256
16181W        W32655  12.134   8.445   4.061 -0.3502 -0.0462  0.3377
16182W        W32656   2.676   8.001   2.316 -0.1640 -0.0072 -0.0441
16183W        W32657   7.074   7.077  14.317 -0.0897 -0.1006  0.2291
16184W        W32658   4.806   1.592   0.804 -0.1482  0.4481 -0.0017
16185W        W32659  14.351  13.877  11.128  0.3629 -0.2189 -0.1641
16186W        W32660   8.984  13.651   1.859  0.0167  0.2595 -0.1974
16187W        W32661  11.116  11.956   2.070  0.4164 -0.0361  0.1803
16188W        W32662  13.858   0.073   2.287 -0.1717 -0.0058  0.0314
16189W        W32663  15.979   0.547  14.271  0.0386 -0.0234  0.0388
16190W        W32664   7.022  10.041   5.253 -0.0347 -0.0383 -0.0661
16191W        W32665   9.145   4.328   4.592  0.1073 -0.1874 -0.1258
16192W        W32666   4.084   5.371  13.749  0.4901  0.1199  0.0342
16193W        W32667   8.449  17.951  15.257 -0.1238  0.3199  0.5468
16194W        W32668  13.731  13.962   3.204  0.1310 -0.2653 -0.3101
16195W        W32669   1.290  18.079  13.812 -0.0878  0.0444  0.1441
16196W        W32670   2.503   9.243   1.282 -0.4563 -0.3295  0.2027
16197W        W32671   3.657   9.073  10.918 -0.1194 -0.1250  0.0144
16198W        W32672   1.974  13.453   3.460 -0.2101  0.0206  0.1350
16199W        W32673  13.054  10.534   2.027 -0.1513 -0.0251 -0.4024
16200W        W32674   1.433  13.409   0.633 -0.1268 -0.0229  0.1149
16201W        W32675  16.627   9.190  15.049  0.0889  0.0855 -0.1029
16202W        W32676   7.802   4.096   3.597 -0.1926  0.1666 -0.1149
16203W        W32677   2.268   3.979   2.494 -0.0484 -0.0481  0.0183
16204W        W32678  14.078   0.257  14.573 -0.2116 -0.0260  0.0525
16205W        W32679  10.005   8.254   1.744  0.0108 -0.1603  0.2004
16206W        W32680  12.506   0.468  13.346 -0.0997 -0.0123 -0.0211
16207W        W32681   9.525   4.985   5.705 -0.2877 -0.2222  0.2925
16208W        W32682   0.714  14.046  15.430 -0.1620  0.1302 -0.0004
16209W        W32683   7.833   8.907  12.413  0.1611 -0.0046 -0.0248
16210W        W32684  14.366   5.961  14.120 -0.2931  0.1469  0.3342
16211W        W32685  11.292   5.009  15.242 -0.1575 -0.1592  0.1582
16212W        W32686   3.110   4.994  11.616 -0.1266 -0.2559  0.0745
16213W        W32687  10.829  10.187  12.838  0.1425 -0.3339 -0.2644
16214W        W32688  12.334   0.153  11.973 -0.1647 -0.3412 -0.1259
16215W        W32689  17.105  12.696   1.827 -0.2590 -0.0643 -0.0028
16216W        W32690   7.270  12.192   4.682 -0.2160 -0.4999  0.2096
16217W        W32691   3.406   6.994  14.554 -0.4681  0.2345 -0.2167
16218W        W32692   4.438  11.261  15.183 -0.4240 -0.0190 -0.5285
16219W        W32693   6.859   3.282  13.427  0.0504 -0.2843 -0.1920
16220W        W32694  11.236  12.105   3.696 -0.2557 -0.2173  0.0784
16221W        W32695  15.322  13.541   5.232  0.2142  0.0666  0.0870
16222W        W32696   2.066   3.210  13.370 -0.3112 -0.0168 -0.1614
16223W        W32697   5.793   1.225  14.282 -0.0515  0.3367 -0.0423
16224W        W32698  13.582   8.759   1.642  0.0951  0.2068  0.0097
16225W        W32699   4.871   0.476   4.899  0.2338  0.4984  0.1245
16226W        W32700  12.057   6.592  14.951 -0.1324 -0.0528  0.2655
16227W        W32701  10.774  13.297   5.367 -0.4512  0.1169 -0.2167
16228W        W32702  18.147   6.792   0.369  0.2179 -0.1686 -0.0856
16229W        W32703  18.505   1.619   2.692 -0.0541  0.0971  0.3132
16230W        W32704   0.017  15.339   1.258  0.1190  0.1585 -0.2373
16231W        W32705   7.353   8.404   5.890 -0.2761 -0.1959 -0.0664
16232W        W32706  11.197  14.622   2.818  0.1939 -0.1285 -0.0258
16233W        W32707   7.193  15.723  12.342  0.1908  0.3861 -0.1313
16234W        W32708   0.130  16.127   4.088 -0.0830 -0.0060 -0.0785
16235W        W32709   1.179   9.322  12.699  0.3452  0.1521 -0.2206
16236W        W32710  15.304  15.482   3.958  0.3161 -0.1992 -0.0520
16237W        W32711  17.310  15.742   2.212 -0.1060  0.2252 -0.0029
16238W        W32712  10.944  11.046  13.402 -0.2534  0.1604 -0.3204
16239W        W32713  12.802  11.461   0.682 -0.2286  0.0616  0.0738
16240W        W32714  14.558  15.242  11.049  0.0601 -0.2271  0.1663
16241W        W32715  10.866  13.012   4.988 -0.0807  0.0819  0.1114
16242W        W32716   8.978   8.143  13.630 -0.4445 -0.3231 -0.3060
16243W        W32717   1.696   5.875  13.447  0.2020  0.2559  0.0751
16244W        W32718  15.061  11.095   2.495  0.1999  0.1303  0.1230
16245W        W32719  18.741  14.371  14.467  0.0757  0.2233 -0.1667
16246W        W32720   2.041  12.060  15.215  0.0915 -0.3944 -0.0487
16247W        W32721  15.052   7.249   5.219  0.0079  0.0584 -0.0016
16248W        W32722   7.821   2.866   1.539 -0.1548  0.3484  0.1373
16249W        W32723   6.318   6.073  13.117 -0.0011 -0.2527  0.0285
16250W        W32724  16.313  16.138  10.264  0.2540 -0.1599  0.0287
16251W        W32725   8.824   0.294  14.842 -0.3010  0.3530  0.2068
16252W        W32726  12.025   7.601  11.613 -0.0135 -0.3759 -0.4460
16253W        W32727  10.695  18.138   3.867 -0.1232 -0.0908 -0.0360
16254W        W32728  16.959  16.828   3.998  0.1145 -0.3110  0.1427
16255W        W32729  18.668   6.400   0.892 -0.0234  0.0655  0.4221
16256W        W32730  12.441   0.591   1.417 -0.2410 -0.2942 -0.1841
16257W        W32731   3.101   8.183   4.787  0.0757  0.2084  0.2551
16258W        W32732   9.580   9.119   6.007  0.0338  0.0755  0.0452
16259W        W32733  14.665  16.066  11.398  0.4716 -0.4441  0.2047
16260W        W32734   3.806   1.340   3.906  0.1950  0.2879  0.0332
16261W        W32735  12.580  15.201  11.660 -0.0373 -0.0962  0.0341
16262W        W32736  14.388   9.446   5.367  0.1686 -0.0085 -0.0265
16263W        W32737  16.791   5.326  11.382 -0.1007  0.0421 -0.0111
16264W        W32738  10.443   9.512   4.076 -0.3823 -0.0936  0.3455
16265W        W32739  11.032  11.655   5.498  0.1459  0.0530  0.3988
16266W        W32740   3.052   3.863   0.965 -0.1934 -0.2285 -0.1782
16267W        W32741   5.743  10.462  14.375 -0.1111  0.1135 -0.0165
16268W        W32742   5.451   0.096  13.522  0.0177 -0.1509 -0.3188
16269W        W32743   0.977   1.176  11.605  0.2897 -0.2866 -0.0289
16270W        W32744   7.778   2.244   2.992  0.2270 -0.1632  0.3286
16271W        W32745  10.111  16.272   3.243  0.0556 -0.1210  0.1735
16272W        W32746   7.436  11.119   4.141  0.2000  0.0895 -0.2163
16273W        W32747   1.400   4.355   3.101  0.2589 -0.3482 -0.3503
16274W        W32748   1.808  15.509  12.670  0.1748  0.1980  0.2539
16275W        W32749  17.765   3.468   4.372 -0.0745  0.2446 -0.2298
16276W        W32750   7.910   1.155  15.564 -0.0872  0.1206  0.0763
16277W        W32751  14.827   6.802  15.459 -0.0583 -0.2547  0.1904
16278W        W32752  17.515  11.363   0.609  0.0038  0.1184 -0.2568
16279W        W32753   3.557   8.333   3.845  0.1650 -0.1199  0.2125
16280W        W32754   0.366   2.068   2.613 -0.0915  0.1922 -0.1609
16281W        W32755   3.532  13.766   3.041  0.0223  0.0191  0.0293
16282W        W32756  17.628  17.177   0.069  0.0114 -0.0869  0.0599
16283W        W32757  11.293  12.615   5.033 -0.0367  0.0222 -0.0468
16284W        W32758   3.841   0.717  11.375 -0.1036 -0.0100 -0.0590
16285W        W32759   5.868   2.824  12.913 -0.0044  0.2140  0.1702
16286W        W32760  16.352  11.304  10.818 -0.0855  0.0009 -0.1539
16287W        W32761  16.818  14.825  11.483  0.2758  0.1106 -0.1667
16288W        W32762   7.128   3.489  15.233  0.1247  0.0321  0.1438
16289W        W32763   1.243  15.615   0.745 -0.1991  0.3062  0.0880
16290W        W32764  18.786  14.425   1.843  0.2161 -0.0330  0.5191
16291W        W32765  12.090  16.043  13.014 -0.1174  0.0832  0.0142
16292W        W32766   4.297  14.878  12.482 -0.2585 -0.1884  0.1590
16293W        W32767   1.268   2.531  11.893  0.3204 -0.0552  0.0671
16294W        W32768   5.333  15.913  14.902 -0.1084 -0.2470 -0.1812
16295W        W32769   4.831  17.482  14.925  0.1087  0.1849 -0.0321
16296W        W32770   6.559   0.794  11.427 -0.3503  0.1717  0.0030
16297W        W32771   0.545   5.225  13.495  0.0090  0.0872 -0.0325
16298W        W32772   9.533   4.411   3.980  0.2865  0.1093 -0.0824
16299W        W32773  11.343   8.031  14.181  0.0088  0.0411  0.1580
16300W        W32774  15.148   2.701   2.655 -0.0014  0.1393 -0.2614
16301W        W32775   7.015   0.941   2.013 -0.0219  0.2248 -0.0542
16302W        W32776  12.031  17.205  15.166 -0.3399 -0.1637 -0.0701
16303W        W32777  10.225   8.344  14.105 -0.2414  0.2690  0.1270
16304W        W32778   1.041  13.053   2.775  0.2353  0.2764  0.2658
16305W        W32779   7.917   4.660   1.940  0.0657 -0.0428 -0.1638
16306W        W32780   7.773   4.902  10.984 -0.1923  0.1553 -0.0842
16307W        W32781   0.917   3.836   5.132  0.3895 -0.1979  0.1265
16308W        W32782   4.164  16.302   0.730 -0.1516  0.2071  0.1827
16309W        W32783  18.758   5.876  13.631 -0.2522 -0.1022 -0.2091
16310W        W32784  10.103   9.779   1.879  0.2302  0.2829  0.1648
16311W        W32785   6.845  16.710   5.018 -0.2831 -0.0717 -0.0574
16312W        W32786  18.607  17.651  11.303 -0.0501  0.3904 -0.1576
16313W        W32787  17.888   6.254  15.632  0.0844 -0.4721 -0.0245
16314W        W32788  18.044  16.270  11.892 -0.1586  0.2646  0.1652
16315W        W32789  10.575   6.185   6.027  0.0093 -0.1804 -0.3301
16316W        W32790   4.954   6.704   1.123  0.2294  0.1111  0.0825
16317W        W32791  17.215   5.078  11.618  0.0801  0.1490 -0.0777
16318W        W32792   5.360  12.209   1.078 -0.1809 -0.0949  0.1868
16319W        W32793  18.611  14.405  11.426 -0.1107  0.2791  0.5637
16320W        W32794  10.831  14.341   3.262 -0.4922 -0.0505  0.0976
16321W        W32795   6.299  10.087   0.918  0.3749 -0.0358 -0.2502
16322W        W32796   6.318   6.662   3.982  0.4542  0.5054  0.3348
16323W        W32797  11.915   0.977  12.436 -0.0785 -0.0185 -0.0508
16324W        W32798  12.418   1.935   3.677 -0.1941  0.1092 -0.0831
16325W        W32799  17.534   5.463   3.249  0.1240  0.2015 -0.0619
16326W        W32800   4.537   7.837   0.003  0.3935 -0.1086 -0.2049
16327W        W32801  17.563   6.306  13.562 -0.0283 -0.0809  0.1907
16328W        W32802   8.452  13.504   1.721 -0.2174  0.3999 -0.1035
16329W        W32803  12.866   3.150  13.040  0.1709  0.1737 -0.2312
16330W        W32804   1.108  13.408  13.658 -0.1840 -0.0395 -0.1828
16331W        W32805   1.191   6.136   1.599  0.1220 -0.4390 -0.0432
16332W        W32806   2.165   7.414  13.938  0.2237  0.2523  0.2569
16333W        W32807  14.749   9.939  15.117  0.5233 -0.1909 -0.2048
16334W        W32808  15.945   3.203  13.569 -0.0359  0.0140 -0.0860
16335W        W32809  15.562   9.863  13.088  0.1728 -0.2500 -0.2201
16336W        W32810   8.229  18.836   3.245  0.1249 -0.1436  0.0795
16337W        W32811  12.568   1.832   1.948  0.0196  0.3635  0.1573
16338W        W32812  10.242   0.154   2.873  0.3718  0.0192  0.2636
16339W        W32813   8.782  17.613  11.991 -0.0960 -0.0335  0.0669
16340W        W32814  12.841  11.810  11.231  0.2766 -0.1327  0.1139
16341W        W32815   6.603   8.916   3.384 -0.3713  0.0515 -0.0639
16342W        W32816  16.583  16.202   5.163 -0.1346 -0.1235 -0.0881
16343W        W32817   4.246   3.497   1.736  0.2015 -0.1172 -0.2896
16344W        W32818   0.767   7.611  11.030 -0.1260 -0.2026  0.1551
16345W        W32819  16.265   6.916   1.891 -0.0902 -0.0851  0.0746
16346W        W32820   6.648  15.214   4.961  0.2159 -0.2867  0.3775
16347W        W32821   9.976   2.167   2.943 -0.2203 -0.3522 -0.0616
16348W        W32822   9.636  11.509   4.977  0.1956 -0.0900 -0.1903
16349W        W32823   2.409  10.799  10.151 -0.0246  0.1033  0.1062
16350W        W32824   3.981   6.625   4.358  0.1862 -0.1328 -0.5224
16351W        W32825  13.784   5.359  15.590 -0.0863  0.0261 -0.0455
16352W        W32826  10.145  16.961  15.573 -0.0541  0.1300  0.0035
16353W        W32827   5.568  13.542  12.746  0.0890  0.2114  0.0233
16354W        W32828  11.124   3.670   3.403  0.0536  0.0214  0.6304
16355W        W32829  17.604   5.219   3.816  0.1861  0.1645  0.2509
16356W        W32830  16.029  12.800   4.010  0.0405 -0.0498  0.1944
16357W        W32831   5.257  15.657  12.149 -0.1871 -0.1737  0.2640
16358W        W32832   2.594   9.001  14.801 -0.2089 -0.0460  0.2187
16359W        W32833   7.297  13.945  12.637 -0.5117  0.0284  0.2878
16360W        W32834   2.610   5.021  10.173 -0.0537  0.1429 -0.1342
16361W        W32835  10.146  17.875   0.506 -0.1775 -0.3286  0.0060
16362W        W32836  11.954  13.597   3.722 -0.0185  0.0467  0.1783
16363W        W32837   0.658  15.256   3.692  0.0911 -0.0893 -0.0647
16364W        W32838   3.469   3.443   2.571  0.1569  0.1157 -0.1773
16365W        W32839  10.065  16.987  15.066  0.0422  0.1839 -0.1235
16366W        W32840  10.558   7.374  15.174  0.3879  0.0292  0.1439
16367W        W32841   2.137  17.325   1.028 -0.0118  0.0838  0.0684
16368W        W32842  12.638  16.505   2.106 -0.2009 -0.0668 -0.4310
16369W        W32843  14.050  16.483  11.022 -0.1260  0.0818 -0.2938
16370W        W32844  14.446  13.203  13.411 -0.1475  0.1761 -0.2562
16371W        W32845   2.286   9.158  15.361 -0.1700  0.0200  0.0826
16372W        W32846  15.744  13.991  13.611  0.0379 -0.1950  0.4132
16373W        W32847  18.183  16.833  15.349 -0.3267 -0.0331  0.1637
16374W        W32848  10.008   3.081   2.837  0.0266 -0.5638  0.1793
16375W        W32849   2.740  15.881  13.452  0.4463  0.0675 -0.0785
16376W        W32850  18.159  13.695   3.097 -0.1639  0.1651 -0.0709
16377W        W32851  17.868  17.584  11.741 -0.0578  0.3466  0.2094
16378W        W32852   9.022  10.530   5.307  0.1824 -0.1195 -0.3293
16379W        W32853   6.993   2.941   1.964 -0.1016 -0.1559  0.5960
16380W        W32854  14.587   6.736  12.338 -0.3375  0.0637  0.1609
16381W        W32855   8.353  11.468   1.847  0.3909 -0.2634  0.2132
16382W        W32856   3.853  17.688   3.086  0.0701  0.3659  0.0537
16383W        W32857   2.984  14.140  15.278 -0.1593 -0.1903 -0.0661
16384W        W32858   0.722   5.716   2.726  0.1212  0.0951 -0.3495
16385W        W32859  14.883  10.437  15.254 -0.0719  0.2649  0.0726
16386W        W32860   9.259   6.330  12.823  0.0798  0.1825 -0.2212
16387W        W32861   4.300   4.977  12.990 -0.0371  0.0132  0.2023
16388W        W32862   5.934   9.053  14.863  0.0521 -0.0064 -0.1786
16389W        W32863  15.262   5.324   2.237  0.0018  0.1263  0.1385
16390W        W32864  13.985   1.182  14.613  0.0179  0.3028  0.3800
16391W        W32865  15.585   9.671   2.201  0.0089  0.2189  0.2800
16392W        W32866   7.528  16.107   3.964 -0.1520 -0.2049 -0.0418
16393W        W32867  12.642   4.643  15.211 -0.0871  0.2266 -0.1820
16394W        W32868  16.380  16.420   3.813  0.0108  0.0086 -0.2047
16395W        W32869  15.682  14.819  15.479 -0.4262 -0.0517  0.3501
16396W        W32870   2.233   8.228  15.462 -0.3006  0.0885 -0.3190
16397W        W32871  15.410  12.100   0.472 -0.4407 -0.1827 -0.0793
16398W        W32872  17.549  18.479  14.596 -0.0106  0.0666  0.2916
16399W        W32873   2.573  14.381  11.856 -0.0020 -0.0751  0.1184
16400W        W32874   6.764  15.031  11.009  0.3268 -0.0210 -0.1565
16401W        W32875   2.288  18.318   3.224  0.2524 -0.2593  0.0097
16402W        W32876  12.220   8.542   4.967  0.2273  0.2417 -0.2443
16403W        W32877  18.569   9.414   4.995  0.0950  0.0053  0.0047
16404W        W32878  13.861  14.040   0.007 -0.2378  0.0748 -0.0321
16405W        W32879   2.191   7.907  14.122  0.1141  0.0503 -0.0339
16406W        W32880  14.325   9.582  11.985  0.0631 -0.1318 -0.1497
16407W        W32881   7.779   9.596  13.656  0.1412  0.0371  0.0058
16408W        W32882  16.738  18.802   1.445 -0.2351 -0.0720  0.1667
16409W        W32883  11.032   0.787   4.500 -0.0880 -0.0689 -0.0797
16410W        W32884   8.045   2.863   0.197 -0.1369  0.0589  0.0226
16411W        W32885   9.309  14.208  12.997  0.1583  0.0560  0.0496
16412W        W32886  10.495   9.146  13.224 -0.0067 -0.1647 -0.1843
16413W        W32887  10.565  17.119  12.916  0.1650 -0.2959  0.0811
16414W        W32888   5.589  18.562   4.840  0.0527 -0.1967  0.1757
16415W        W32889  15.037   9.032  11.960  0.0277 -0.0954 -0.1878
16416W        W32890   9.543   5.802  12.737  0.0547 -0.0853  0.0902
16417W        W32891   6.939   4.064   4.188 -0.0723  0.2855  0.1578
16418W        W32892  10.304   5.546  13.664  0.3200 -0.4302 -0.1426
16419W        W32893   8.972  13.233  11.095 -0.0706 -0.4525 -0.4273
16420W        W32894  17.159  13.020  13.469 -0.6168  0.0887 -0.0679
16421W        W32895   0.025  14.245   4.666  0.0085 -0.2703  0.2641
16422W        W32896   1.771   5.732  15.551 -0.1767 -0.0199 -0.0826
16423W        W32897   5.210   4.242   5.266 -0.0518 -0.0406  0.4192
16424W        W32898   1.513  18.049  10.813 -0.1146  0.1084 -0.0789
16425W        W32899   7.618   8.928  14.035  0.0732  0.1438  0.0690
16426W        W32900  11.804  14.645  13.397 -0.0848  0.0563  0.2257
16427W        W32901  15.331   5.003   1.247  0.0166  0.2140  0.0885
16428W        W32902  16.041   9.704  11.352  0.3474 -0.1327 -0.0723
16429W        W32903   4.802  17.308   3.153 -0.2535  0.2001 -0.2438
16430W        W32904   3.563  13.981   1.053 -0.2772 -0.0565  0.1113
16431W        W32905  14.593   7.689   4.160 -0.0267 -0.0606 -0.3168
16432W        W32906  17.958   3.734   0.479 -0.0915  0.3599 -0.3889
16433W        W32907   5.204  11.042   4.647  0.0838  0.0945  0.0408
16434W        W32908  12.046   5.445   0.021  0.1702  0.3847  0.1225
16435W        W32909  13.702   0.244   2.763  0.1777 -0.1303  0.0340
16436W        W32910   6.261  13.613  11.513 -0.0777 -0.2453  0.1270
16437W        W32911   0.664   0.185   0.146 -0.0121  0.5137 -0.0949
16438W        W32912  11.533  14.719   0.747  0.1306 -0.1691  0.0241
16439W        W32913  10.090  16.528   1.402 -0.1647  0.3901 -0.2159
16440W        W32914  16.179  13.824  14.831  0.0805  0.0818  0.2694
16441W        W32915  12.210  14.531  14.217 -0.2906 -0.1224  0.0275
16442W        W32916  17.344  16.858   3.047  0.1046 -0.0931  0.0896
16443W        W32917   3.164  11.385  14.545 -0.3893  0.1423 -0.0777
16444W        W32918   6.885   6.756   5.869  0.0914  0.2785  0.0331
16445W        W32919  13.581  11.560  12.599 -0.0769  0.0835 -0.0897
16446W        W32920  18.237  17.233  14.440  0.0614  0.0878 -0.0174
16447W        W32921  14.895  12.864   4.877  0.3865  0.0062 -0.1491
16448W        W32922  15.009   2.286   4.232 -0.0214  0.4626  0.0405
16449W        W32923  14.744   7.732   0.417  0.1906  0.3841 -0.0984
16450W        W32924  13.235   9.091   2.499 -0.2353  0.3242  0.1585
16451W        W32925  16.591  12.698  10.544  0.0459 -0.0855  0.0063
16452W        W32926  16.033  18.576   2.619 -0.0062  0.1316  0.0190
16453W        W32927  12.917  18.729   2.093 -0.0944  0.0483  0.2375
16454W        W32928   0.127   2.662  11.252 -0.1184 -0.2298 -0.2611
16455W        W32929   6.636  18.417  14.698  0.2207 -0.2133  0.2093
16456W        W32930   5.934   6.302   4.142 -0.1106  0.0443 -0.3401
16457W        W32931   7.663   7.638   3.360  0.1570  0.0672 -0.0573
16458W        W32932   6.302   5.883  10.849  0.5976 -0.2530 -0.0329
16459W        W32933   5.661   9.348  12.912  0.3149  0.0088  0.1228
16460W        W32934   4.438  16.442  13.443  0.1925  0.2759  0.2225
16461W        W32935   4.231  18.475   2.592  0.1973  0.2401 -0.0503
16462W        W32936  14.570   4.048  14.372 -0.1152 -0.0811 -0.0068
16463W        W32937   7.928  10.606  12.899 -0.2104 -0.2188  0.0960
16464W        W32938   7.427   7.920   2.576 -0.0265  0.0942 -0.4663
16465W        W32939  10.924  16.735  15.585 -0.5260 -0.1894 -0.1810
16466W        W32940   5.102   8.930   0.796  0.3619 -0.3221  0.0535
16467W        W32941   3.423   0.932   4.542  0.1071 -0.2638 -0.2650
16468W        W32942  17.663   9.276   1.274 -0.1716  0.0945  0.3193
16469W        W32943  17.267   5.895   2.260 -0.0019 -0.0283  0.5606
16470W        W32944  16.721  18.465  10.624  0.0707  0.3276 -0.0235
16471W        W32945   1.691   0.777   0.304 -0.1305 -0.0417 -0.0230
16472W        W32946   6.547   5.844   6.215 -0.0274  0.3073  0.0650
16473W        W32947  11.228   7.657   3.673 -0.1084  0.3507  0.1064
16474W        W32948   7.389   7.081  15.587  0.2044 -0.0413 -0.0709
16475W        W32949   0.645   9.623   3.431 -0.0625 -0.2539 -0.1385
16476W        W32950   8.972  18.485   4.876  0.0216  0.0445 -0.1393
16477W        W32951   0.404   1.751  15.049  0.4906 -0.0612  0.1723
16478W        W32952   6.794   1.250  11.461  0.0038 -0.0211 -0.0150
16479W        W32953   1.011  13.845  13.857 -0.1020 -0.1552 -0.4070
16480W        W32954   4.618  16.902   0.681  0.1603 -0.2977 -0.0903
16481W        W32955  18.186   4.250   1.194  0.0316 -0.4849  0.2732
16482W        W32956  12.773  10.039  14.861 -0.0847 -0.1822 -0.0260
16483W        W32957   1.365  15.737  12.826  0.0228  0.0181 -0.3004
16484W        W32958  11.538   2.785  11.307  0.1568  0.2354  0.0775
16485W        W32959   7.400  13.854  15.685 -0.0509 -0.3478 -0.0287
16486W        W32960   8.819   5.292   1.147  0.0437  0.0458  0.0406
16487W        W32961   7.666  15.222  14.804  0.2573  0.0920  0.2338
16488W        W32962   0.282   9.714   3.792 -0.2559 -0.1642  0.0050
16489W        W32963  15.273   4.035   3.407 -0.1083 -0.0747  0.1299
16490W        W32964   5.644  12.930   1.558 -0.0462 -0.1521 -0.2453
16491W        W32965   7.641   9.378   2.341  0.0108  0.0741  0.1729
16492W        W32966   8.923  14.104  14.433 -0.0973 -0.0185 -0.0969
16493W        W32967   6.907   8.228   1.965 -0.0398  0.1913  0.1801
16494W        W32968   8.451   3.627   1.327 -0.2178 -0.0767 -0.0724
16495W        W32969   3.323  11.571   0.659  0.2361 -0.0280  0.0360
16496W        W32970  17.698  15.888   0.571 -0.1297 -0.0286  0.0660
16497W        W32971  14.321   1.286   4.074  0.0471  0.1843  0.0941
16498W        W32972   6.867   6.904   5.000 -0.0140  0.1320  0.0372
16499W        W32973   1.885   0.265   4.944  0.0673 -0.1400 -0.2763
16500W        W32974  15.564  18.282   3.352  0.2796  0.1760 -0.3485
16501W        W32975   4.884  10.002  13.017 -0.0422  0.2936  0.0764
16502W        W32976  17.771  16.563   3.730  0.1088 -0.0304 -0.1837
16503W        W32977   5.191  17.580   3.524  0.1840  0.2174 -0.0993
16504W        W32978   8.598  17.279   4.188  0.0133 -0.1332 -0.0900
16505W        W32979   0.746   9.619   9.539 -0.3130  0.1786  0.0940
16506W        W32980  16.351  11.770   1.628  0.2258  0.0702 -0.0014
16507W        W32981  15.850   2.282  15.163 -0.2901  0.2789  0.0886
16508W        W32982   1.749   1.158  15.192 -0.0486 -0.0723  0.2362
16509W        W32983   0.081  17.849   3.249  0.1289 -0.1877  0.0887
16510W        W32984   8.941   0.316   5.490  0.1112  0.0058 -0.0441
16511W        W32985  11.877   3.846  15.024 -0.3562 -0.2235  0.2854
16512W        W32986   6.810   4.437   0.311 -0.0199 -0.3313  0.0971
16513W        W32987   1.667   5.328   5.697 -0.0201 -0.4387  0.0222
16514W        W32988  13.285   1.744  14.259 -0.0939 -0.1691 -0.1326
16515W        W32989  12.482  14.677   2.405  0.1583 -0.0039 -0.3242
16516W        W32990  11.419   9.572  12.345  0.0544 -0.1151  0.5079
16517W        W32991   3.807   7.923   0.822  0.0951 -0.0694  0.2785
16518W        W32992   1.350   3.544   4.961  0.0641  0.1391 -0.2928
16519W        W32993   3.427  15.353   3.186  0.1382  0.3023  0.2635
16520W        W32994  13.011  14.787   4.981 -0.3210 -0.0568  0.0475
16521W        W32995  15.859  12.089   5.093 -0.0937 -0.0775 -0.4339
16522W        W32996  14.617  17.379   1.107  0.0184 -0.0115  0.2614
16523W        W32997   6.511   9.179  12.075 -0.0731  0.3978 -0.2648
16524W        W32998   2.254   4.120  11.029 -0.0906 -0.0240 -0.1868
16525W        W32999   8.224   9.623  11.465  0.0502  0.0353  0.0372
16526W        W33000  10.336  11.138   4.641  0.0308 -0.1454  0.0756
16527W        W33001  17.241   0.221   3.476  0.4549  0.0838 -0.0861
16528W        W33002   4.132  10.836   0.543  0.0355 -0.1982  0.2250
16529W        W33003   2.463  12.127   4.416  0.0544 -0.1501  0.1350
16530W        W33004  13.517   4.863  11.778 -0.0148  0.0932 -0.0061
16531W        W33005  18.121   9.285  10.973  0.0085 -0.3746 -0.1241
16532W        W33006   9.096   1.964   2.645 -0.3610  0.2546  0.0160
16533W        W33007  14.191  12.610   1.693  0.0005 -0.2380  0.1755
16534W        W33008   4.147  14.519   2.572  0.1023  0.5219  0.4044
16535W        W33009   1.977  13.177   3.012  0.1577 -0.1123 -0.0653
16536W        W33010   3.047   6.899   5.046  0.1715  0.0519 -0.1879
16537W        W33011   6.811   1.878   2.597  0.0997  0.1976  0.1256
16538W        W33012  10.212   0.604   3.068 -0.1990 -0.1627 -0.3047
16539W        W33013  13.731   7.300   4.761  0.2280  0.1899  0.2433
16540W        W33014   7.321   6.805   1.777 -0.1396  0.1152 -0.1434
16541W        W33015   0.568   6.882  13.168 -0.1350 -0.2827  0.1016
16542W        W33016   3.801  13.813  11.127  0.0769 -0.0899  0.0224
16543W        W33017   5.150   3.742   5.066 -0.0425 -0.2280  0.2079
16544W        W33018   2.759   1.520  13.722  0.0886 -0.1395  0.3081
16545W        W33019  15.217   8.229  11.540  0.0658 -0.0641  0.1239
16546W        W33020   3.966  17.655   2.168 -0.0784 -0.2486 -0.1468
16547W        W33021   3.829   1.194  11.241 -0.1221 -0.3256  0.2083
16548W        W33022   1.496   5.236   0.302 -0.0837 -0.3054  0.0517
16549W        W33023  12.372   6.057   5.861 -0.0380 -0.0847  0.2419
16550W        W33024   0.603  17.014   5.151 -0.1990  0.6078 -0.0927
16551W        W33025   2.079  16.286   4.047 -0.1799 -0.2431  0.0534
16552W        W33026   4.959   8.016   5.829  0.1915 -0.2475  0.0779
16553W        W33027   2.406   5.190  12.994 -0.1233  0.0540 -0.0378
16554W        W33028   5.873   0.733  14.042 -0.0017  0.2258 -0.1648
16555W        W33029  17.627  10.439   4.530  0.0361 -0.2923  0.2691
16556W        W33030  10.632  17.235   3.569  0.1716 -0.0921  0.1621
16557W        W33031  18.263   8.520  14.068  0.1184 -0.0025  0.0229
16558W        W33032  10.452  12.138  15.462  0.3924 -0.3186 -0.0118
16559W        W33033   5.229  18.595   0.872 -0.1730 -0.0681 -0.1014
16560W        W33034  12.269   0.440   2.741  0.1880  0.1765 -0.2213
16561W        W33035   4.042  10.654   2.849 -0.2486 -0.1839 -0.0662
16562W        W33036   7.934   2.056   0.403  0.1003  0.0417  0.1823
16563W        W33037  15.688   3.565  11.933  0.2254  0.0253  0.3409
16564W        W33038  17.589   2.693  12.361 -0.0069 -0.2256  0.1044
16565W        W33039  17.743   0.128   0.193 -0.3302 -0.3920 -0.1407
16566W        W33040  17.053  17.710  13.995  0.1040 -0.0227 -0.3510
16567W        W33041  17.168  10.058   4.840  0.1049  0.0746 -0.2635
16568W        W33042  16.779  10.011  13.600  0.1552 -0.1899  0.1585
16569W        W33043  17.409   9.075   1.641  0.1059 -0.2506 -0.1255
16570W        W33044  16.220   6.016  10.227  0.1232 -0.2082 -0.1730
16571W        W33045  13.425  10.913   4.929  0.1427 -0.2658 -0.1421
16572W        W33046   3.860   8.427  14.423  0.1994 -0.2253 -0.1074
16573W        W33047   0.144   4.643   4.207 -0.1339 -0.3111 -0.3543
16574W        W33048   0.306  13.088  14.122  0.2227  0.5709 -0.2011
16575W        W33049  18.510   5.900   1.049 -0.1120  0.1783  0.2392
16576W        W33050  17.122   7.862   9.832  0.0062 -0.1061 -0.1622
16577W        W33051  17.402  13.027   4.774 -0.3035 -0.0231  0.0871
16578W        W33052  13.014   8.704  14.645 -0.1268 -0.0038  0.2447
16579W        W33053   2.062   1.053  10.986 -0.0209  0.1203 -0.0046
16580W        W33054   9.121   9.537  14.643  0.0460  0.0704  0.0040
16581W        W33055   8.476   2.591  14.555 -0.3031  0.0145  0.0509
16582W        W33056   2.832  11.382   0.812  0.0780 -0.1668  0.0618
16583W        W33057   4.416  18.690   1.177 -0.2182 -0.1116 -0.1879
16584W        W33058  14.869  11.490   3.404 -0.3393  0.2256  0.1962
16585W        W33059  15.895  14.020   5.211 -0.1112  0.1431  0.2822
16586W        W33060   9.911  13.274  13.209  0.1190 -0.0627  0.0458
16587W        W33061  10.197  14.714  11.840 -0.0436 -0.0778 -0.4739
16588W        W33062  11.435  12.904  13.143 -0.5974 -0.1871  0.0907
16589W        W33063  11.079  13.957  15.550 -0.0745  0.2159 -0.0500
16590W        W33064   9.348  16.113   4.920 -0.2280  0.2149 -0.0972
16591W        W33065   6.671   2.385  13.862  0.1566 -0.1225 -0.0180
16592W        W33066  15.986   2.072   3.978 -0.0028 -0.0114 -0.0148
16593W        W33067   0.299   6.507   2.085 -0.0070  0.2609 -0.0956
16594W        W33068   6.183   6.854  14.049  0.0384  0.1353 -0.1958
16595W        W33069   8.996   7.691  13.826  0.0330  0.0208 -0.2063
16596W        W33070   3.221   0.347   0.990 -0.0666 -0.3625  0.1444
16597W        W33071  13.125   3.360  12.639 -0.0548  0.2454 -0.2508
16598W        W33072   3.964  12.214  13.839  0.0369  0.1618  0.1260
16599W        W33073   2.270   9.589  11.232  0.1185  0.0248 -0.0730
16600W        W33074   7.456  14.326   0.919  0.1319 -0.2612 -0.4967
16601W        W33075  13.155  10.268  14.452  0.1599  0.0611  0.4507
16602W        W33076   6.192  14.749  12.857  0.0703 -0.4309 -0.0477
16603W        W33077   5.535   7.077  13.416  0.1474 -0.1722  0.3322
16604W        W33078   2.480   2.996   1.041 -0.0404 -0.2280 -0.1510
16605W        W33079   0.251   3.343   4.466 -0.3057  0.1859  0.0931
16606W        W33080   8.388  12.030   4.022  0.2848  0.0398  0.0503
16607W        W33081   4.939   3.689  12.524  0.0646  0.0781  0.2232
16608W        W33082   4.129   0.024   1.517 -0.2373 -0.2216  0.2035
16609W        W33083  18.374   4.076  10.668  0.1575 -0.3357 -0.0688
16610W        W33084  16.987  11.833   4.307  0.1950 -0.1660  0.0151
16611W        W33085   1.978   8.817   5.549 -0.1849  0.1128 -0.0199
16612W        W33086  14.849  16.451  15.199  0.1120  0.2495  0.0552
16613W        W33087  11.665   1.732   2.633 -0.0101  0.1165  0.0232
16614W        W33088  13.109  10.716  15.389 -0.2131  0.1879 -0.3889
16615W        W33089  10.444   8.460   1.830  0.0138 -0.0681 -0.1060
16616W        W33090  18.211   1.270  14.415  0.3307 -0.1251  0.1179
16617W        W33091  10.457   7.840  15.342 -0.2328 -0.1173  0.0485
16618W        W33092  10.362   6.268  12.847 -0.0652 -0.0038 -0.0408
16619W        W33093  16.081   2.146  11.801 -0.1388  0.2199 -0.1517
16620W        W33094  14.363   8.442   0.408  0.0397  0.0669  0.1468
16621W        W33095   5.422   2.799   5.928  0.0543 -0.4121 -0.0852
16622W        W33096  17.440   0.669   1.574 -0.0652  0.1020  0.1069
16623W        W33097  15.500  13.322   3.109 -0.3391 -0.4028  0.0531
16624W        W33098  18.230   1.869   0.285  0.0998  0.1453 -0.1941
16625W        W33099   4.029  12.574  13.282  0.4599 -0.1221 -0.0396
16626W        W33100   7.336   2.877   0.883 -0.2371 -0.4471 -0.2164
16627W        W33101   9.820  18.156  15.207  0.0356 -0.0927  0.1441
16628W        W33102  16.378   8.267   4.574  0.3271 -0.0275 -0.0249
16629W        W33103   3.310  15.308  14.073 -0.1387 -0.1769  0.1533
16630W        W33104   7.939  11.172   4.113 -0.0020  0.2637 -0.2353
16631W        W33105   7.774   8.274   4.209 -0.1348  0.1338  0.4203
16632W        W33106  16.796   3.742   0.843 -0.1257 -0.1877  0.1530
16633W        W33107  12.888   3.769   0.353 -0.1653  0.1456  0.2429
16634W        W33108  18.219   8.055  14.783  0.0954 -0.0109  0.2183
16635W        W33109  18.186   2.599  10.320  0.0295 -0.1088 -0.0119
16636W        W33110   9.882  13.356   0.352  0.0066 -0.2395 -0.0998
16637W        W33111  14.487   6.386  10.879 -0.0166  0.2170  0.0454
16638W        W33112  14.742  13.667   9.510  0.0452 -0.0258 -0.0584
16639W        W33113  14.071  13.478   4.575 -0.1076 -0.0340 -0.0714
16640W        W33114   3.964  16.202  11.554  0.0559 -0.0204 -0.1426
16641W        W33115   8.382   9.291   0.886 -0.0784 -0.2716 -0.2235
16642W        W33116  15.555   9.057   3.386 -0.0289  0.1060 -0.0252
16643W        W33117   4.632   2.269  14.849 -0.1932  0.2974 -0.1084
16644W        W33118  13.891  12.434   2.906 -0.1258 -0.2479 -0.1424
16645W        W33119  12.979   7.230  12.784  0.1232  0.0295 -0.1726
16646W        W33120  10.962  13.954  13.633  0.2660 -0.0137 -0.4536
16647W        W33121   6.920   8.040  11.399  0.1213 -0.1819  0.2460
16648W        W33122  10.362  14.181  11.192  0.1444 -0.0818 -0.3610
16649W        W33123   4.402  15.881   0.857 -0.1045  0.2431 -0.0012
16650W        W33124  10.845  13.840   4.285  0.0367 -0.1271  0.4975
16651W        W33125   0.491   0.794  14.270  0.0708 -0.1413  0.0736
16652W        W33126  18.673   1.222  10.442 -0.0163  0.2620  0.0736
16653W        W33127   0.526   9.549   4.961  0.1042 -0.2261 -0.2204
16654W        W33128   9.924   6.324   3.107  0.3216 -0.3139  0.0015
16655W        W33129  13.107  13.123  14.361  0.0547  0.1673  0.0771
16656W        W33130   8.837  18.629   4.211 -0.0728 -0.1099 -0.0206
16657W        W33131   4.267  17.638  11.051 -0.0913  0.0318 -0.2099
16658W        W33132   4.159   4.671  12.555  0.0385 -0.0941  0.1469
16659W        W33133   1.439  11.053   5.117  0.1489  0.1827 -0.0394
16660W        W33134   0.998  18.637  14.488 -0.0709 -0.2393 -0.1527
16661W        W33135  18.261  14.342  14.282  0.0903 -0.0336  0.1773
16662W        W33136  10.823  18.544   3.447  0.1428  0.0804 -0.5284
16663W        W33137   4.336  17.220   3.662 -0.0056 -0.0363  0.1927
16664W        W33138  18.507   6.042  14.436 -0.1814  0.2260 -0.1770
16665W        W33139  13.290  13.398  13.489 -0.0418  0.0613  0.0043
16666W        W33140   1.089   3.930  15.180  0.2373  0.0067 -0.2165
16667W        W33141  16.924  15.399   0.333  0.0327 -0.0909 -0.5281
16668W        W33142   4.329   2.716  15.055  0.0808  0.0414 -0.0273
16669W        W33143   1.460   5.839  10.322  0.1507 -0.0278 -0.0995
16670W        W33144  14.155   0.530   0.351  0.1944  0.0280  0.4052
16671W        W33145   6.946   3.827  13.664 -0.1431  0.1541 -0.0013
16672W        W33146   7.284  15.385   4.088 -0.2656  0.1066  0.0500
16673W        W33147  12.691  11.536   6.142  0.3211  0.1912 -0.0272
16674W        W33148   8.142  15.029  15.133 -0.0611 -0.0323 -0.0866
16675W        W33149   7.341   6.316  13.666  0.2234 -0.0354  0.1625
16676W        W33150   1.442  17.080   4.377 -0.2252  0.2406 -0.1399
16677W        W33151   8.354   9.304   1.639 -0.2839  0.0088  0.1044
16678W        W33152  10.844  18.574  14.206 -0.0503  0.1442  0.1147
16679W        W33153   7.527   4.662   5.544 -0.0230  0.2260  0.0971
16680W        W33154  10.481  12.660  13.454  0.0178  0.0748  0.3573
16681W        W33155  11.640   7.943   2.819  0.2944  0.1216 -0.0023
16682W        W33156  17.929  17.309  10.071 -0.0912  0.0027  0.0994
16683W        W33157   1.559   9.927   3.209  0.3121  0.0290 -0.0082
16684W        W33158   6.362   4.393   3.982 -0.3415 -0.0097  0.1611
16685W        W33159   5.680   9.713  10.773 -0.0131  0.2670 -0.2024
16686W        W33160   2.951  10.408   4.603 -0.2149  0.2342  0.2014
16687W        W33161  10.020   8.674  15.100  0.0283  0.3392 -0.2253
16688W        W33162  15.200  11.043   3.693  0.0939  0.4175  0.1556
16689W        W33163   0.698   5.127   1.026 -0.3318 -0.0484 -0.0464
16690W        W33164   2.757   7.964  13.092  0.1139 -0.2029 -0.2509
16691W        W33165   9.227   2.436  13.993 -0.2998  0.1894  0.2508
16692W        W33166  11.788  13.624  11.707  0.1586  0.1026 -0.1927
16693W        W33167   6.119   2.141   0.773  0.1699 -0.1860  0.0128
16694W        W33168  12.398  11.069   5.819  0.3036  0.0043 -0.1023
16695W        W33169  16.510   2.887  10.922 -0.3322 -0.0935  0.0550
16696W        W33170  14.607   3.209  11.892 -0.2930 -0.1202  0.1588
16697W        W33171   1.030   2.309   5.190  0.1541 -0.2249 -0.2519
16698W        W33172   4.995   6.006  12.242 -0.0141 -0.1606  0.0890
16699W        W33173   0.883   4.008   0.652 -0.0724 -0.1418  0.0110
16700W        W33174  11.887   5.084  15.329  0.0169  0.1085  0.1721
16701W        W33175  10.184   6.963   4.898 -0.1442  0.2424 -0.0080
16702W        W33176  16.697   0.901  10.841 -0.0352 -0.1627 -0.0172
16703W        W33177  13.749   0.100  14.906 -0.3104  0.0769  0.0151
16704W        W33178  10.559  12.681  12.432  0.0441 -0.3427 -0.1753
16705W        W33179   3.662  18.756  11.820 -0.2884  0.4381  0.2705
16706W        W33180  13.796   5.541   2.579 -0.0217 -0.0056  0.0326
16707W        W33181  10.739  14.392  13.005 -0.3356  0.1818  0.0464
16708W        W33182  18.005   1.435   3.425  0.2454 -0.1272 -0.0213
16709W        W33183  15.531  15.012  11.667  0.3814  0.0962 -0.1851
16710W        W33184  16.244  12.268  11.211  0.2288  0.0552 -0.1603
16711W        W33185   3.525   6.182  10.496  0.1482 -0.0849  0.1781
16712W        W33186   2.758   1.250   0.220 -0.0210 -0.1695 -0.2649
16713W        W33187  15.088   4.053  12.959 -0.1630 -0.2321  0.2915
16714W        W33188   9.428   6.005  14.596 -0.1062  0.0471  0.0250
16715W        W33189  15.469   5.683  15.504 -0.0139 -0.0516  0.1376
16716W        W33190   9.612   5.573   6.381 -0.0665  0.2848 -0.0747
16717W        W33191   8.319   2.368   0.798 -0.0239 -0.3085 -0.0517
16718W        W33192   1.469   5.923   3.414 -0.1486  0.0346 -0.1185
16719W        W33193   9.964   3.363  14.299  0.4118 -0.1630  0.0004
16720W        W33194  14.521  13.802   0.361  0.0724 -0.3226  0.0394
16721W        W33195   7.447   7.000   5.044 -0.1022 -0.0177 -0.0542
16722W        W33196   6.972  12.486  12.048  0.0645  0.1448  0.1261
16723W        W33197   8.395  13.397   3.900  0.3130  0.0931  0.1102
16724W        W33198  18.648   4.667   4.627 -0.0867 -0.1974  0.2212
16725W        W33199  17.296   0.485  11.704 -0.0399 -0.0451 -0.0421
16726W        W33200   0.257  13.945   1.451 -0.0342  0.1962 -0.1154
16727W        W33201   9.474  17.772   3.914 -0.0529 -0.1310 -0.2970
16728W        W33202  13.156   2.406   2.141  0.0985 -0.1444  0.1706
16729W        W33203  14.418   5.126   1.817 -0.1530 -0.0278  0.0051
16730W        W33204   0.684   6.198  14.402 -0.0756 -0.0860  0.1190
16731W        W33205  15.237   7.124  15.599 -0.0721  0.0507 -0.0091
16732W        W33206   0.980   8.830   2.288 -0.2208  0.0173  0.2266
16733W        W33207  13.838  14.979   3.632 -0.2270  0.2134 -0.0734
16734W        W33208   6.570   4.417   0.821  0.3684  0.0688  0.2489
16735W        W33209   3.829  15.180   4.877  0.1732  0.1099  0.0726
16736W        W33210   8.076   1.573  15.255  0.2305  0.2801 -0.0779
16737W        W33211   0.827   5.575  13.304  0.0511 -0.0114 -0.0832
16738W        W33212   4.253  13.952  12.038 -0.0096 -0.2041  0.0960
16739W        W33213  14.202   3.052   0.730  0.1351 -0.0899 -0.0728
16740W        W33214   5.194  14.366   0.325  0.1398 -0.0805 -0.0517
16741W        W33215  12.562   6.880  11.448  0.1003  0.0014  0.1474
16742W        W33216   7.945  12.821   5.091  0.1643  0.0022  0.3910
16743W        W33217   0.256   8.990   5.247 -0.1880  0.0062  0.1978
16744W        W33218   3.171  14.123   2.197 -0.1535  0.1237  0.1153
16745W        W33219  11.855   5.616  11.435  0.1193  0.0779  0.0928
16746W        W33220  10.171  15.532   2.404  0.1858 -0.2867 -0.2908
16747W        W33221   4.020  15.585   0.132  0.1664  0.3331 -0.3357
16748W        W33222  17.804   0.102   2.837  0.1841  0.2001  0.0296
16749W        W33223  11.043  15.200   2.738  0.0461  0.1518  0.4158
16750W        W33224   8.560   3.310   5.409  0.2862  0.1582 -0.1452
16751W        W33225  18.789   4.000  11.942  0.0476  0.0655 -0.0218
16752W        W33226  15.302  18.703  13.048  0.1311 -0.0059  0.0995
16753W        W33227  13.490   7.048  13.645  0.0437 -0.1773 -0.1065
16754W        W33228   5.423   2.324   2.074  0.2321 -0.3743 -0.1018
16755W        W33229   6.001  10.978   2.620  0.2151  0.0879 -0.0053
16756W        W33230   6.675  17.330   5.124 -0.0322 -0.1760 -0.2057
16757W        W33231  10.475   7.005  13.803  0.1686 -0.2233 -0.1589
16758W        W33232   7.306  15.446   3.227 -0.0316  0.0513 -0.0009
16759W        W33233  12.049   5.629  12.838  0.0489  0.2102 -0.1120
16760W        W33234  14.089  10.295   2.821  0.0794  0.1270  0.0223
16761W        W33235   5.976   7.890   2.245 -0.0322  0.2344  0.2043
16762W        W33236  15.464  10.977  15.407  0.0172 -0.3456 -0.0332
16763W        W33237  17.377   5.062   2.894  0.1268 -0.3254 -0.0219
16764W        W33238  14.434   7.525  12.646 -0.1133  0.3393  0.0892
16765W        W33239  18.584  12.503  10.111  0.0107 -0.1226  0.2111
16766W        W33240   9.917  17.696   2.244  0.1076  0.2948  0.0735
16767W        W33241   7.488  11.854   3.762  0.2406  0.1032 -0.0044
16768W        W33242   9.448   1.504   3.258 -0.0024 -0.1096  0.1785
16769W        W33243  12.347  12.849   0.770  0.0424  0.4443 -0.0365
16770W        W33244  13.369   9.877  13.089 -0.1616 -0.1706 -0.0653
16771W        W33245   7.978   3.967   2.301 -0.4078  0.0777 -0.0852
16772W        W33246  13.229   4.561   3.782 -0.0777  0.1069 -0.1000
16773W        W33247  13.571   1.293   1.893  0.2894  0.1119 -0.1709
16774W        W33248   4.640  12.644   1.069 -0.1360  0.2360 -0.0573
16775W        W33249  18.433   1.976  11.527 -0.0867  0.0834 -0.1175
16776W        W33250   5.737   2.225   3.032  0.0422  0.0220  0.0391
16777W        W33251   6.488   5.942   4.941 -0.0161  0.1175 -0.4069
16778W        W33252   0.936  18.195  14.737  0.1919  0.1222  0.2145
16779W        W33253   3.434   1.673  11.979 -0.1881  0.2293 -0.0881
16780W        W33254  17.256   7.024   1.979 -0.3214 -0.1693  0.1441
16781W        W33255  12.937  18.588  10.639  0.0447 -0.1026  0.2205
16782W        W33256  11.361  11.339  11.543  0.3428 -0.1468  0.2249
16783W        W33257  12.198   3.559   3.420 -0.1875 -0.1903 -0.2193
16784W        W33258  17.448   6.703  14.885 -0.0768 -0.2262  0.0342
16785W        W33259  12.931   3.661  15.119 -0.1380 -0.2226 -0.1515
16786W        W33260  16.238   8.596   1.223 -0.1332  0.1940  0.0998
16787W        W33261   0.618   8.178   1.385 -0.1928 -0.2390 -0.0202
16788W        W33262   1.818   6.286   4.680  0.0028  0.2211  0.2677
16789W        W33263   4.474  12.448   0.093 -0.4608 -0.2738 -0.1255
16790W        W33264   4.638   5.559  12.167 -0.0030  0.3444  0.0627
16791W        W33265   2.928  11.672   5.099 -0.1464  0.2478 -0.0222
16792W        W33266  14.657  15.448   4.600  0.2561 -0.2470 -0.2833
16793W        W33267   5.969   7.909   2.750 -0.2197  0.1369  0.4404
16794W        W33268   2.490   9.914   3.703 -0.1230  0.1033  0.3586
16795W        W33269  17.775   7.485   9.962  0.3136 -0.3230 -0.0672
16796W        W33270  11.406   4.954  11.952 -0.0336  0.1577 -0.0967
16797W        W33271   4.860   2.616   3.156 -0.0526  0.0595 -0.1255
16798W        W33272  10.281   2.981  12.610 -0.1816 -0.3271 -0.0328
16799W        W33273   6.354   5.539  14.939  0.0086 -0.0421  0.2344
16800W        W33274  17.012   4.100  13.270 -0.4384 -0.1482 -0.0810
16801W        W33275   5.823  15.031  11.495 -0.1258 -0.1822  0.2172
16802W        W33276  16.892   1.190  11.277 -0.1778 -0.3907  0.1121
16803W        W33277  12.835   7.873  10.386  0.1038 -0.1399  0.2808
16804W        W33278   8.986   9.492  15.162  0.0480 -0.0023 -0.0295
16805W        W33279   5.058  12.706   2.463 -0.2866  0.4027  0.0730
16806W        W33280  13.327   7.035   1.945 -0.0444  0.0188 -0.0859
16807W        W33281   7.474   9.457  14.891 -0.0857 -0.3287  0.1218
16808W        W33282   6.905  12.397   1.324 -0.0931  0.1797 -0.1756
16809W        W33283  18.514   4.081  15.005 -0.0735  0.2575 -0.3527
16810W        W33284   2.634   3.002  11.882  0.2742 -0.2848 -0.0527
16811W        W33285  14.677  12.167  15.509  0.0105  0.2704 -0.1727
16812W        W33286  10.532   6.633  13.260  0.0999 -0.1197  0.1934
16813W        W33287   5.323  11.351   3.065 -0.0475  0.3112 -0.1862
16814W        W33288   3.808  12.205  10.862 -0.0297 -0.1824 -0.2016
16815W        W33289  12.483   0.566   3.406  0.0180 -0.2494  0.2859
16816W        W33290   5.197   8.149   2.601 -0.0737  0.0755 -0.1335
16817W        W33291   2.968  14.773   4.587 -0.1220 -0.1085  0.2595
16818W        W33292  15.560   8.787   4.222 -0.2606 -0.4229  0.1362
16819W        W33293  15.266  18.188  11.322 -0.0171  0.1105 -0.0023
16820W        W33294   0.579  17.187   1.052 -0.2806 -0.2459  0.1621
16821W        W33295   7.250   4.754   1.336 -0.1800  0.0393  0.1766
16822W        W33296  15.894  18.399   1.361 -0.2466 -0.1688  0.0064
16823W        W33297   1.960   5.420  11.322 -0.1341  0.2410  0.1240
16824W        W33298  15.310   4.058   0.580 -0.3825  0.1769  0.0257
16825W        W33299  18.776   4.621  14.891  0.0275  0.1152 -0.5382
16826W        W33300   9.851   3.580   2.798  0.1413 -0.0541  0.1851
16827W        W33301  13.339   5.777  14.560  0.0779 -0.0994  0.1534
16828W        W33302  13.521   4.444  12.143 -0.0947 -0.1148 -0.0690
16829W        W33303   3.661   4.687  13.386 -0.1409 -0.2582  0.1973
16830W        W33304  17.470  18.331  15.180  0.0019  0.2917 -0.0890
16831W        W33305   7.002   7.302  13.858  0.2941  0.1344 -0.0501
16832W        W33306  15.781   7.480  14.196 -0.1523  0.0773 -0.4327
16833W        W33307   7.082   1.136   3.024 -0.1340 -0.6225 -0.0445
16834W        W33308  11.354   3.577  10.489 -0.1685 -0.0347  0.0005
16835W        W33309   7.131  16.254  13.830 -0.1346  0.0949  0.0678
16836W        W33310  13.732   1.830  14.103  0.1237  0.5228 -0.2302
16837W        W33311   8.497   8.218  12.844  0.1043  0.1576  0.1435
16838W        W33312   8.941   9.241   0.915 -0.3457  0.2936 -0.2844
16839W        W33313   2.169  15.035   0.598 -0.0859 -0.2837 -0.0436
16840W        W33314  11.275  15.266  13.998  0.0421 -0.0561 -0.0307
16841W        W33315  13.176   8.999   3.508 -0.0767  0.0840 -0.1521
16842W        W33316   5.680  13.651  12.274 -0.1170  0.1743  0.1485
16843W        W33317  12.440   9.337  12.035  0.0643  0.0323  0.3243
16844W        W33318   5.783  10.324   4.636  0.2607 -0.1870  0.0997
16845W        W33319   0.328   8.284  11.962 -0.1507  0.0824 -0.1235
16846W        W33320  17.918  15.459  10.438 -0.0164  0.0311  0.3065
16847W        W33321  13.331   0.635  12.850  0.1658 -0.1035 -0.0512
16848W        W33322  11.339   4.265   2.042 -0.0505  0.1857 -0.5080
16849W        W33323   6.283  11.934   5.932  0.2162  0.1644 -0.0886
16850W        W33324   6.636  13.212   2.556 -0.0422 -0.1448 -0.1487
16851W        W33325  14.013  11.199  15.118  0.0204 -0.0492 -0.1487
16852W        W33326   3.440  11.461  12.644  0.1991  0.0451  0.1374
16853W        W33327  13.490   1.516  10.687 -0.0212  0.0592 -0.0993
16854W        W33328  15.122  11.708  11.661  0.0452 -0.3508  0.0346
16855W        W33329   8.661  13.809   4.025  0.1178 -0.0302 -0.0464
16856W        W33330   0.824   3.877   2.667  0.0628  0.0063 -0.0278
16857W        W33331  17.054   4.689   5.569 -0.1543  0.1936 -0.2324
16858W        W33332   9.196  10.370  14.561  0.2288 -0.2047 -0.0259
16859W        W33333   1.067  14.192   3.019 -0.0347 -0.2617  0.0092
16860W        W33334  11.401  14.435  11.247  0.2479  0.2196  0.3953
16861W        W33335  15.632   0.894  15.253 -0.3340 -0.1493 -0.1505
16862W        W33336  15.173  17.035  14.123 -0.3476  0.1847  0.2360
16863W        W33337  17.789   4.278  11.308 -0.1960  0.2863 -0.4034
16864W        W33338  18.013  11.092   3.133 -0.1841 -0.0510 -0.1499
16865W        W33339   2.135  15.428   3.061  0.2179  0.0144 -0.1174
16866W        W33340  13.953   2.233   1.167 -0.1324 -0.3903 -0.0153
16867W        W33341  17.001   1.665  10.904  0.4151  0.2657 -0.0740
16868W        W33342  12.127   2.970  15.511  0.1367  0.1330 -0.0580
16869W        W33343  13.899   4.641  12.722  0.2954  0.1989  0.1285
16870W        W33344   9.950   2.222   0.495 -0.0942 -0.0395 -0.0035
16871W        W33345   1.899   5.839  11.679 -0.4708 -0.1083  0.4258
16872W        W33346  15.294   1.147  14.855  0.0993  0.1265 -0.0635
16873W        W33347   7.854   5.076  12.506 -0.0076 -0.2100  0.1265
16874W        W33348  15.718  16.801   5.517 -0.0260  0.0462  0.0943
16875W        W33349   7.267  17.754  12.477  0.1662  0.1323  0.2733
16876W        W33350   8.701  16.853  15.472  0.2149 -0.0599  0.2821
16877W        W33351  10.824   7.607  15.573 -0.0532  0.3511  0.1242
16878W        W33352  16.120   0.214  13.284 -0.0208  0.2587 -0.0283
16879W        W33353  11.306   6.826  13.248  0.0815 -0.3418  0.0086
16880W        W33354   5.220   1.542   2.019 -0.0141  0.1677  0.3028
16881W        W33355  14.231   2.708   3.504  0.0689 -0.1716 -0.0069
16882W        W33356  14.068   2.234   4.353 -0.1735 -0.0978  0.3187
16883W        W33357   8.520   7.856  14.768 -0.1434  0.3139  0.0102
16884W        W33358   0.611  11.125  12.806 -0.1148  0.1709 -0.1995
16885W        W33359  16.250   1.531  12.003  0.0661 -0.1893  0.1266
16886W        W33360  12.846  11.725  15.160  0.0310 -0.2912 -0.3400
16887W        W33361   7.986  17.500   0.168 -0.3877 -0.0319 -0.1232
16888W        W33362  12.106   4.270   1.028 -0.3208  0.0647 -0.0420
16889W        W33363   1.312   0.775   4.390  0.0750 -0.0926  0.2060
16890W        W33364  10.552   0.245  13.379  0.1043  0.0469 -0.0490
16891W        W33365  16.153   0.626  12.273  0.3159  0.1490 -0.1460
16892W        W33366  10.472  12.394   3.151  0.1855  0.1010 -0.1429
16893W        W33367   9.287  17.742  13.761  0.0542 -0.0747  0.1893
16894W        W33368  10.306   6.835  11.472 -0.0928  0.0548 -0.1651
16895W        W33369  16.983   7.150   4.167  0.1322 -0.2526 -0.2057
16896W        W33370  12.142   3.079   1.097  0.0649 -0.0385 -0.1265
16897W        W33371  18.704   0.011  12.042  0.0192  0.1131  0.0374
16898W        W33372   5.355  16.425   1.709  0.0339  0.0126  0.1547
16899W        W33373  16.116  15.498   4.521  0.1565  0.1789 -0.1573
16900W        W33374  12.380   9.644  11.054 -0.2557  0.0137 -0.0276
16901W        W33375   4.669  13.955  14.678  0.0614 -0.0225 -0.2686
16902W        W33376  14.127  17.632  11.797 -0.3827  0.0532 -0.2471
16903W        W33377  17.703  18.058  14.774 -0.2508  0.1837  0.2919
16904W        W33378   9.337   0.506   2.406 -0.0558 -0.1642  0.0438
16905W        W33379   0.020  13.279  11.857 -0.0086 -0.0095  0.1356
16906W        W33380  18.024  15.317   2.559  0.0957  0.0066  0.2512
16907W        W33381  14.382  16.407   5.539 -0.0504  0.0256  0.0984
16908W        W33382  12.924   9.198  14.589 -0.0163  0.0156 -0.1308
16909W        W33383   7.823  14.757   3.680 -0.0069  0.1726  0.1224
16910W        W33384   5.786  17.356   4.762 -0.0199  0.1175 -0.0989
16911W        W33385   0.106   3.146  12.320  0.0135  0.0186 -0.3493
16912W        W33386   1.012  10.735  14.409 -0.0719 -0.0099 -0.3552
16913W        W33387   8.869  17.977  13.873  0.2980 -0.3771 -0.2540
16914W        W33388  15.083   1.228   1.730  0.0370  0.1790  0.0200
16915W        W33389  16.347   8.007   1.189 -0.1118  0.1981 -0.1367
16916W        W33390   4.271   9.139  14.157 -0.2638 -0.2544  0.2398
16917W        W33391  16.668   7.498   4.490 -0.1934 -0.1917 -0.0833
16918W        W33392  18.148  18.131  14.869 -0.0668 -0.3006 -0.0999
16919W        W33393  14.700  15.544   1.484 -0.0048 -0.5768 -0.1149
16920W        W33394  13.594  14.714   5.160 -0.1771  0.1333  0.0237
16921W        W33395  13.653   7.370   1.179 -0.1682  0.2673 -0.0669
16922W        W33396  12.401  10.849  15.029  0.2061 -0.0557  0.2792
16923W        W33397  18.532  16.946   1.943 -0.1997 -0.0008  0.3218
16924W        W33398   7.023  17.860  11.976 -0.0610 -0.2428 -0.1078
16925W        W33399  15.379   7.314   9.680 -0.2342  0.1790 -0.1812
16926W        W33400  16.996  11.791  15.629 -0.1546 -0.0867 -0.0589
16927W        W33401  11.462   1.862  13.493  0.0828  0.0165 -0.0326
16928W        W33402   2.373  17.988  11.845  0.1484 -0.0511  0.1312
16929W        W33403  14.705  17.666   1.524 -0.1983 -0.1980  0.0037
16930W        W33404  11.580  15.554  15.689  0.0037 -0.1509  0.0124
16931W        W33405   9.346  10.201  13.217 -0.1590  0.4226  0.0062
16932W        W33406  13.364   5.344   0.312 -0.2118 -0.0068  0.0611
16933W        W33407  10.865  10.853  15.545  0.3100  0.1477  0.1875
16934W        W33408  11.388  15.584  11.215  0.0007  0.0511  0.0375
16935W        W33409  16.478  17.933   4.132 -0.0965  0.1318  0.1256
16936W        W33410   1.005  15.206   5.014 -0.0948 -0.0679 -0.1082
16937W        W33411   9.528   1.786   2.857 -0.2585  0.1150  0.2359
16938W        W33412   7.830  16.261  13.466 -0.1860  0.1704 -0.1503
16939W        W33413   6.080  18.635   1.376  0.0088 -0.0805  0.3363
16940W        W33414  13.778  14.021  10.985 -0.0432  0.0431 -0.0686
16941W        W33415   0.513   7.829  14.621 -0.1014 -0.1071  0.3174
16942W        W33416   5.347   0.645  15.637  0.0803  0.0687  0.0612
16943W        W33417  17.350   1.721   9.287 -0.2632  0.0935 -0.2619
16944W        W33418  14.129   4.327  14.547 -0.1447  0.0159  0.2262
16945W        W33419   4.442   2.932   0.880 -0.0513 -0.1485 -0.3378
16946W        W33420   9.861  16.737  12.449  0.2598 -0.1193  0.1918
16947W        W33421   4.265   7.505   3.120  0.2053  0.2647  0.0617
16948W        W33422  11.803   0.439   1.047 -0.0427  0.0318  0.1532
16949W        W33423  14.677   4.840   0.879 -0.3291 -0.2179  0.0561
16950W        W33424   2.475   6.269   0.072  0.1313 -0.0817  0.1805
16951W        W33425  16.319   7.876   4.256  0.3409  0.2017 -0.0889
16952W        W33426  15.166  18.370  14.826 -0.2197  0.0833  0.2406
16953W        W33427  17.076  16.197  14.188  0.1423 -0.0356 -0.2127
16954W        W33428  18.727   9.682  14.829  0.5055 -0.0629 -0.0449
16955W        W33429  12.610   4.391   0.809  0.1337  0.1043  0.0729
16956W        W33430   7.200  15.341  11.177 -0.2101  0.0255  0.0792
16957W        W33431   1.930  17.403   5.343 -0.0909 -0.0115 -0.1564
16958W        W33432  17.680  13.320   3.942  0.0685 -0.0559  0.1335
16959W        W33433   0.220   3.749  14.649 -0.2669  0.1795  0.1547
16960W        W33434   2.625   2.395  11.295 -0.1521 -0.2265 -0.0349
16961W        W33435   5.260  15.835  14.410  0.2381 -0.0501  0.1251
16962W        W33436  17.927   8.029  12.152 -0.0928  0.0053 -0.1444
16963W        W33437  13.724  18.626   3.123  0.0788  0.0742 -0.2651
16964W        W33438   7.937   5.733   0.854  0.0445  0.0389  0.1627
16965W        W33439  13.715   3.662   0.325  0.0605 -0.1900 -0.0675
16966W        W33440  11.348   4.727   4.332  0.0871  0.0033  0.1157
16967W        W33441   9.365   5.622  13.189  0.0126  0.5866  0.3432
16968W        W33442   3.337   7.705   1.647  0.0164  0.0829 -0.0180
16969W        W33443   7.536   6.156  12.260  0.1838 -0.3583  0.1764
16970W        W33444   6.977  15.302   5.915 -0.0393  0.0209 -0.1162
16971W        W33445   6.944   1.348  12.713 -0.1381  0.1784 -0.2151
16972W        W33446   7.197  16.933  15.406  0.2204  0.2330 -0.1934
16973W        W33447   7.253  14.403  12.663 -0.3887 -0.4408  0.5281
16974W        W33448   9.516   4.211  13.821  0.2062  0.2302  0.1421
16975W        W33449   7.207   6.854   1.290  0.0529 -0.0885 -0.0637
16976W        W33450  15.654   9.651   0.840  0.0245 -0.0488 -0.2646
16977W        W33451   2.850  12.858  14.362  0.3771 -0.2416  0.0368
16978W        W33452   4.515  10.354   2.539  0.2053 -0.3540  0.3690
16979W        W33453   1.962  17.091  11.657 -0.1545 -0.0939 -0.4316
16980W        W33454   5.898   5.618  14.397  0.0414  0.1953 -0.0608
16981W        W33455   4.547   7.803  14.988  0.2117 -0.0300 -0.1732
16982W        W33456  14.125  16.727   1.740  0.4472 -0.1384 -0.0787
16983W        W33457  18.009  11.790   1.431  0.1581  0.2629  0.2230
16984W        W33458   9.160   1.302   2.896 -0.1748 -0.0442  0.1095
16985W        W33459   4.038   5.908  10.554  0.0238 -0.1051 -0.1102
16986W        W33460   6.049   8.569   1.289 -0.2610 -0.2130  0.0303
16987W        W33461  13.623   6.586   0.591  0.0591  0.0471  0.3603
16988W        W33462   9.967   5.914  11.765 -0.0988  0.3205  0.0238
16989W        W33463   8.458  11.091   4.247  0.0559 -0.0077 -0.1532
16990W        W33464  11.218  15.483   4.574  0.0487  0.0930 -0.3579
16991W        W33465   2.480   6.442   4.246 -0.2829  0.0661  0.1704
16992W        W33466   7.619  10.149   1.677 -0.0498  0.2634  0.1100
16993W        W33467   8.193   5.696   2.732  0.3885 -0.1103  0.1244
16994W        W33468  11.821  18.798   4.518 -0.4217  0.3458 -0.2209
16995W        W33469  10.649  16.602  11.232  0.3466  0.0924 -0.2942
16996W        W33470  12.301  10.726   2.036 -0.2563  0.0990  0.1220
16997W        W33471   2.592   1.130   4.238  0.3158  0.3957  0.2808
16998W        W33472   1.109  18.525   2.276  0.1259  0.1340  0.0431
16999W        W33473   6.176  15.607   2.222  0.4682  0.0974  0.3129
17000W        W33474  13.270  11.556   3.716  0.0172  0.0550  0.1242
17001W        W33475  16.364   4.536   3.980 -0.0749 -0.0613 -0.0973
17002W        W33476   1.255  13.439  12.688  0.0899 -0.0283  0.0222
17003W        W33477  11.927   0.331   3.604 -0.1630 -0.1426 -0.0810
17004W        W33478   7.305   8.765   9.959  0.0435 -0.2554 -0.1801
17005W        W33479  13.027   0.988  11.280  0.0338 -0.1288 -0.1636
17006W        W33480   6.280   4.930   0.886  0.1925  0.1664 -0.2808
17007W        W33481  18.314  13.596  14.776  0.1701 -0.1594  0.1204
17008W        W33482   9.376   8.752   5.643 -0.3483 -0.2974 -0.4215
17009W        W33483   8.345  10.648   0.886 -0.0051 -0.0533 -0.0009
17010W        W33484  13.893   4.038   2.219 -0.2060 -0.2571  0.1174
17011W        W33485  11.959   1.192   2.868 -0.1041  0.0888 -0.2218
17012W        W33486   8.859  16.970   3.010  0.3554  0.1472 -0.4784
17013W        W33487   0.433   7.137  14.417  0.1189 -0.0493  0.2227
17014W        W33488   1.184   7.722   3.343  0.2576  0.0066  0.0901
17015W        W33489   4.809   4.465   5.867 -0.1227  0.0735  0.2753
17016W        W33490   8.650   4.042   4.012 -0.2333 -0.1371 -0.0766
17017W        W33491  13.340  15.258  12.379  0.0261 -0.2641 -0.0718
17018W        W33492  17.893   2.364  13.673 -0.0028 -0.0287  0.1057
17019W        W33493  18.819  10.947   3.701  0.0927 -0.4187 -0.1616
17020W        W33494  13.199   3.161  13.614 -0.2333 -0.0276  0.1802
17021W        W33495   1.358   3.846   2.911 -0.0568  0.1919  0.0434
17022W        W33496  18.202  18.335  11.558 -0.4005  0.3332 -0.1153
17023W        W33497   3.761   2.205   1.250  0.0042 -0.0420  0.0989
17024W        W33498  15.201   3.878   4.466  0.0113 -0.0255  0.0173
17025W        W33499  18.009   3.150   5.372  0.1906 -0.0980  0.1464
17026W        W33500   5.468   4.739  13.756 -0.0696  0.2966  0.1391
17027W        W33501   5.449   6.703  13.083 -0.3003 -0.4402  0.0683
17028W        W33502   3.376   5.142  15.320  0.0001  0.2047  0.0604
17029W        W33503  13.036  14.924  15.498  0.0132 -0.2170  0.0238
17030W        W33504   8.004  12.416  12.721  0.0221 -0.0395 -0.3323
17031W        W33505  11.810  16.257   2.166  0.0741  0.1347 -0.0690
17032W        W33506  17.811   7.717  14.508 -0.0524  0.0334  0.0334
17033W        W33507  13.226  14.292  13.709 -0.0073  0.2417  0.3203
17034W        W33508   9.053  14.313   3.983 -0.3592 -0.1057 -0.0175
17035W        W33509   0.104  14.219  11.742  0.0619 -0.0673 -0.0253
17036W        W33510  17.087   8.975  14.024  0.2958 -0.2214 -0.3424
17037W        W33511   0.025   8.398  12.354 -0.1776 -0.2687 -0.4384
17038W        W33512  17.533  11.800  12.704 -0.1142 -0.0380 -0.2197
17039W        W33513  11.890   5.192   2.784 -0.1978 -0.0896  0.0076
17040W        W33514   9.442   0.402  14.026 -0.1660  0.2289 -0.0998
17041W        W33515   8.105  14.972  14.623 -0.0163 -0.0082  0.0624
17042W        W33516   0.530  17.072  15.638 -0.0485 -0.1614 -0.0227
17043W        W33517   0.191  16.015  11.941  0.1468  0.0424 -0.0465
17044W        W33518   3.782  14.902   3.607 -0.0405  0.1381  0.0310
17045W        W33519   8.915   6.551   3.931  0.1072 -0.1137 -0.2754
17046W        W33520   7.319   2.980   1.377  0.1115 -0.0568 -0.0889
17047W        W33521   4.796  15.135  14.703 -0.2059 -0.1926  0.0597
17048W        W33522  16.074   7.984  13.863 -0.4959 -0.0055  0.0743
17049W        W33523  14.733  12.880  13.632 -0.1679 -0.0130  0.1427
17050W        W33524  16.584   8.884  10.372  0.1224 -0.1296  0.5750
17051W        W33525   8.341   7.581   1.022  0.0187 -0.1817  0.5133
17052W        W33526   3.182  14.505  13.525 -0.0698  0.0563 -0.0824
17053W        W33527  12.899   5.216   0.086 -0.3487 -0.5455 -0.2178
17054W        W33528  17.103  15.632  11.494 -0.1279 -0.2052 -0.1242
17055W        W33529   6.848  10.507   4.593  0.5803  0.4416  0.1044
17056W        W33530  17.475   8.305  10.768  0.1680 -0.5290 -0.2782
17057W        W33531  10.861  14.959  15.239 -0.5353 -0.2108  0.1874
17058W        W33532   7.341   1.605   2.752 -0.5536 -0.2132  0.2387
17059W        W33533   7.284  17.251   3.900 -0.0786  0.4669  0.4163
17060W        W33534   2.063   0.993   1.279 -0.1174  0.3181 -0.0234
17061W        W33535   5.331  18.669   5.201  0.0953  0.0231  0.1136
17062W        W33536  10.541   7.862  13.614 -0.0522 -0.1340  0.1924
17063W        W33537   1.104  18.347  10.965  0.0462 -0.1763 -0.2761
17064W        W33538  17.506   4.430   0.765 -0.4145 -0.0871  0.0626
17065W        W33539   2.330   1.583   0.132  0.0193  0.1939 -0.1017
17066W        W33540   0.439   2.301  11.367 -0.0691 -0.1340  0.0882
17067W        W33541  12.882  14.459   3.048  0.1984  0.1428  0.0800
17068W        W33542   1.946  17.800   0.351  0.0031  0.0391  0.3754
17069W        W33543  15.482   9.397  15.549  0.0259  0.1227  0.1000
17070W        W33544  13.687  15.042  13.560  0.2878  0.1770  0.0762
17071W        W33545  16.718   6.711  13.905 -0.1962  0.0156 -0.1543
17072W        W33546  11.162  12.204   0.281  0.1759  0.0786 -0.0023
17073W        W33547   4.226   2.949   1.627  0.0549 -0.0417  0.0711
17074W        W33548   9.540   6.887   2.684  0.1799  0.0121  0.0308
17075W        W33549  14.416  14.988  10.164 -0.3133 -0.0646 -0.4040
17076W        W33550   8.233  16.678   1.619  0.1400  0.3690 -0.0871
17077W        W33551   4.488  17.158  14.803 -0.0337 -0.1127 -0.1105
17078W        W33552  13.625   2.173   1.965 -0.2091 -0.2052  0.0012
17079W        W33553   3.697  17.631   2.603  0.3797  0.2592  0.1568
17080W        W33554  12.440   8.743   1.242 -0.2832  0.1712  0.2823
17081W        W33555   5.375   6.905   3.301  0.0252 -0.2366  0.0875
17082W        W33556   0.082   6.886   3.593  0.2943  0.0203 -0.1632
17083W        W33557  18.609   9.719   2.987 -0.0923  0.0496  0.2202
17084W        W33558  14.934   9.182   0.474 -0.1392 -0.0493 -0.3366
17085W        W33559  11.390  14.282  14.505 -0.0453 -0.2678  0.2141
17086W        W33560   3.435  11.250  13.755 -0.1562  0.1641 -0.3166
17087W        W33561   2.134  15.947   0.965  0.0110 -0.0388 -0.0977
17088W        W33562   3.358   1.323   3.714  0.1441 -0.0815  0.0719
17089W        W33563   1.303  12.423   4.968 -0.0377  0.2251  0.1587
17090W        W33564  15.198  17.884   3.475  0.1745  0.0534 -0.2619
17091W        W33565   9.933   7.471  14.566  0.4183 -0.0632 -0.0502
17092W        W33566  18.088  15.913  10.611  0.1002 -0.0184  0.0551
17093W        W33567   5.119   3.310   4.380 -0.0821  0.1572 -0.0140
17094W        W33568   5.350  16.657  15.512  0.1485 -0.3180 -0.0595
17095W        W33569   2.290   0.072   3.456  0.1027 -0.0693 -0.1811
17096W        W33570   8.381   2.878   1.538  0.0228  0.1432 -0.0492
17097W        W33571   0.669  11.072   3.130 -0.0621 -0.0377 -0.3403
17098W        W33572   7.789  15.286   0.035 -0.6413  0.0164  0.0053
17099W        W33573  12.663   2.928  12.642  0.1754  0.1560  0.0472
17100W        W33574  15.046   7.188  13.595 -0.0045 -0.1880 -0.0620
17101W        W33575  14.510  16.832  15.271  0.1091 -0.4044  0.0383
17102W        W33576  18.643   3.037  14.938 -0.3041  0.0359  0.0502
17103W        W33577  15.272  10.553   2.329 -0.1602  0.1272 -0.2744
17104W        W33578  17.055   5.874  11.116  0.3543 -0.0655 -0.1264
17105W        W33579  18.136  14.706   0.922 -0.0113 -0.2527  0.0228
17106W        W33580   5.224  13.194  14.663  0.0624  0.0727 -0.0185
17107W        W33581   0.227  13.070   1.264 -0.2745  0.0261  0.3505
17108W        W33582   2.812  11.664   4.532 -0.0857 -0.2262  0.0433
17109W        W33583   7.643   2.267  13.055  0.1687  0.1480  0.1539
17110W        W33584  11.036   0.000   0.601  0.0349  0.2589  0.0848
17111W        W33585  12.704   1.606  12.772  0.2341 -0.2194  0.0930
17112W        W33586   7.573  16.730  13.680  0.1459  0.1063  0.0966
17113W        W33587   6.349   0.222  12.553 -0.1978 -0.0312  0.2660
17114W        W33588  13.492   6.182  12.422 -0.0386  0.0147 -0.0872
17115W        W33589   6.541  17.513  11.945 -0.0303  0.3693 -0.2241
17116W        W33590   7.365   3.752  12.380 -0.1295 -0.1308  0.0059
17117W        W33591  14.990   6.358  13.174 -0.1902 -0.2341 -0.0425
17118W        W33592   8.882  18.192  11.642 -0.0467 -0.1928  0.1641
17119W        W33593  11.376  12.601  15.185  0.0506  0.0705 -0.1744
17120W        W33594  15.229   9.460  10.213  0.4659  0.2616  0.2164
17121W        W33595  18.652   4.062  14.092  0.1010  0.1216 -0.1511
17122W        W33596  16.520  15.439  13.197  0.5157  0.4645  0.0376
17123W        W33597   5.200   1.164   2.382  0.2589  0.3610 -0.2669
17124W        W33598   2.048   6.857   2.571 -0.3116  0.1505 -0.1756
17125W        W33599   8.095   2.526  11.261 -0.1007 -0.2096 -0.0304
17126W        W33600   3.151  16.050   3.851 -0.0592 -0.0594  0.0031
17127W        W33601   1.727  17.653   0.756  0.0190 -0.1457  0.1062
17128W        W33602  17.356  15.122  12.246 -0.1129  0.0671  0.2168
17129W        W33603   0.137  15.043  10.894  0.1398  0.1272  0.0732
17130W        W33604  15.426   0.202  12.466  0.0727  0.0079 -0.1455
17131W        W33605  17.954   4.912  15.589  0.1667 -0.2312 -0.0591
17132W        W33606   2.303   5.665   2.321 -0.2057 -0.1190  0.1451
17133W        W33607  10.832   3.387   4.769  0.0977  0.4604 -0.1901
17134W        W33608  14.239   0.911  12.035  0.3522  0.0314  0.0345
17135W        W33609   8.246  11.016  12.918  0.3790 -0.0621  0.2413
17136W        W33610   5.709   2.756   2.674 -0.0884 -0.1515 -0.3426
17137W        W33611   5.124  18.608  13.612 -0.1766  0.1465 -0.2150
17138W        W33612   3.344  10.749   2.833  0.0571  0.2861 -0.0327
17139W        W33613   3.620   9.425  10.136  0.1313  0.2625 -0.1321
17140W        W33614  17.921  10.366  11.834 -0.1959 -0.0106 -0.1161
17141W        W33615   0.478   5.796  12.532  0.0927 -0.2547 -0.1638
17142W        W33616  12.526  15.750  12.882  0.2678  0.0334  0.1811
17143W        W33617  15.889   1.396   2.211 -0.1726 -0.0617 -0.2578
17144W        W33618   2.007  12.388  11.332  0.1249  0.0312 -0.4118
17145W        W33619   2.270   0.560   5.228  0.0725  0.0694 -0.3624
17146W        W33620  16.776   6.727  12.889 -0.0818 -0.3387  0.2697
17147W        W33621   1.249   4.201   2.545  0.0895  0.2314  0.0091
17148W        W33622  17.707   3.957  10.363  0.2290  0.0115  0.2067
17149W        W33623   8.399   0.929  14.548  0.1415 -0.1925 -0.0968
17150W        W33624  14.892   8.023  10.965 -0.2993  0.0129 -0.1701
17151W        W33625  10.258   7.535   2.140 -0.1027  0.2118  0.0949
17152W        W33626   1.019  13.009  11.815  0.0436 -0.1541  0.1338
17153W        W33627   6.010   1.878  13.525  0.1124  0.0648  0.3520
17154W        W33628  18.625   9.393   1.480  0.0210 -0.4293 -0.1864
17155W        W33629   8.023   0.801   5.229  0.0816 -0.2846  0.0864
17156W        W33630  16.728  16.051  10.549  0.1428 -0.2174 -0.0790
17157W        W33631   1.519  15.351   5.689 -0.0120  0.0032 -0.3648
17158W        W33632  15.563  16.912   4.153 -0.1215 -0.0998  0.2225
17159W        W33633   4.373  10.530   5.639 -0.1202  0.1588  0.3234
17160W        W33634   4.638   9.453  15.340 -0.2155  0.3254 -0.1349
17161W        W33635   9.173   7.221   4.945 -0.0265 -0.0785 -0.0094
17162W        W33636  11.894   5.661   6.267  0.3204  0.3972 -0.1914
17163W        W33637   8.707   7.227   1.326  0.0268  0.1174 -0.0933
17164W        W33638  17.430  18.070  13.325 -0.0232  0.0004 -0.1041
17165W        W33639   1.441  17.018  11.473 -0.2189 -0.0615  0.0745
17166W        W33640  18.264  13.203   2.770 -0.1198  0.0887  0.0546
17167W        W33641   2.915  12.629  11.605  0.1919  0.1434  0.2780
17168W        W33642   2.532  12.630   3.633  0.0329  0.1308  0.1823
17169W        W33643  15.209  11.594   3.834  0.3547 -0.1278 -0.1195
17170W        W33644   7.185   8.928   3.015  0.0123 -0.2329  0.2389
17171W        W33645   4.760   0.300  12.906 -0.1607  0.1281  0.2339
17172W        W33646  10.399  18.826   2.407 -0.0460 -0.1698 -0.2242
17173W        W33647  17.202   6.550  13.193 -0.3492 -0.2194  0.0138
17174W        W33648  12.578  15.592  11.303 -0.5355  0.3286 -0.1725
17175W        W33649  12.980   0.359  14.253  0.1583 -0.1231  0.0726
17176W        W33650   0.908  13.674   1.271  0.0048 -0.0444  0.0201
17177W        W33651   5.764  17.936   1.938 -0.1103  0.0940 -0.1113
17178W        W33652   9.075   5.730   0.437 -0.1478  0.1751 -0.0807
17179W        W33653   0.815   7.566   1.762 -0.0809  0.2426  0.4267
17180W        W33654  18.049  10.849  14.297  0.2122  0.0091 -0.0753
17181W        W33655   5.885   1.274  14.984 -0.3601  0.0955 -0.4089
17182W        W33656  11.010   1.280   4.298  0.1814 -0.0539  0.0992
17183W        W33657   9.183   6.879  13.277  0.0817  0.0805  0.0404
17184W        W33658   3.440  16.691  12.270  0.2760  0.0445 -0.4157
17185W        W33659   6.990   6.988  13.440 -0.1937  0.0961  0.3269
17186W        W33660  17.802   9.574   0.853 -0.1953  0.0710 -0.1046
17187W        W33661  11.835   5.656   1.056  0.2475 -0.2663 -0.0876
17188W        W33662  16.662   9.812  15.147  0.0505 -0.1166 -0.2200
17189W        W33663   2.511  12.560   2.274  0.1889  0.2569 -0.0327
17190W        W33664  15.682  18.627  12.619 -0.0048  0.1007  0.1845
17191W        W33665   5.896  15.978   4.589  0.0686 -0.1422 -0.2007
17192W        W33666  17.453   0.078   1.177 -0.2572  0.3972 -0.1194
17193W        W33667  14.080   3.285  15.387  0.2959  0.0506 -0.2664
17194W        W33668   8.701   6.322  11.709 -0.1694 -0.2540 -0.0412
17195W        W33669   7.832  11.987   0.576 -0.1100 -0.3955  0.2874
17196W        W33670  18.759  10.729   0.662  0.0799 -0.0526  0.1540
17197W        W33671  11.517  16.033  13.677 -0.0758  0.1182  0.2305
17198W        W33672   2.871  16.057   4.279 -0.0492 -0.2744  0.1833
17199W        W33673   6.859  17.738  15.014  0.0062  0.4295 -0.4804
17200W        W33674   0.444   5.643   1.191 -0.0251 -0.2578 -0.0108
17201W        W33675   0.235  14.766   0.024 -0.1159  0.2836  0.1268
17202W        W33676   6.039  13.384  14.958 -0.1288  0.0378 -0.2966
17203W        W33677  14.858  16.160   3.504  0.1270  0.1132  0.0619
17204W        W33678  15.949   0.402   0.233  0.0967  0.2542  0.1426
17205W        W33679  11.472  13.139   1.207 -0.0554 -0.2947  0.2294
17206W        W33680  14.749  10.405  12.689 -0.0830 -0.4982 -0.3612
17207W        W33681  14.789   4.192   9.679 -0.1120  0.2555  0.3804
17208W        W33682   9.916  16.988   2.041  0.0923  0.0085 -0.0904
17209W        W33683  17.194   0.870  10.687 -0.1262  0.0160 -0.1196
17210W        W33684  13.965  11.767   3.522 -0.0748 -0.0727 -0.1977
17211W        W33685  17.351   5.009   2.312  0.0012  0.0910 -0.0106
17212W        W33686   1.763  13.308  11.693 -0.2974  0.0838 -0.2491
17213W        W33687   9.823   9.671   2.911 -0.3092 -0.2227  0.0510
17214W        W33688  17.126  12.724   1.305  0.0795 -0.0029 -0.3502
17215W        W33689   3.208   7.421  14.316  0.1665  0.2350  0.0183
17216W        W33690   9.969  14.828   0.231 -0.0948 -0.0199  0.0514
17217W        W33691   0.857   0.009   4.563  0.1917  0.2827  0.1836
17218W        W33692  10.835  13.241  11.150 -0.1654  0.0471  0.0531
17219W        W33693  12.927  12.759  12.958 -0.1671 -0.1435 -0.0746
17220W        W33694  10.585  16.393  12.149 -0.0500 -0.0831 -0.1141
17221W        W33695   8.388  13.207  12.264 -0.1157  0.0021 -0.0001
17222W        W33696   0.065  16.032  13.500 -0.0535 -0.4120  0.1554
17223W        W33697   9.707   7.186   3.634  0.0276  0.1231  0.3132
17224W        W33698  17.242   2.565   0.714  0.0476 -0.1984 -0.1444
17225W        W33699   4.797   8.354  12.364  0.0192  0.2096  0.1217
17226W        W33700   5.596   2.026   3.624 -0.1307 -0.0957 -0.1213
17227W        W33701  16.670   9.835  14.563  0.0126  0.0767  0.2726
17228W        W33702  13.997   5.935   1.729  0.1079  0.0524 -0.0947
17229W        W33703  17.175  14.849   5.069 -0.1900  0.2160 -0.0916
17230W        W33704  17.420  15.005   4.646  0.1598  0.0097 -0.0892
17231W        W33705   7.569   0.973   2.951  0.0191  0.1228 -0.0267
17232W        W33706   9.102   7.510  14.507 -0.4149 -0.2280 -0.0880
17233W        W33707  10.611   4.710  12.344 -0.4487 -0.2111 -0.1405
17234W        W33708  15.211  11.334   2.035  0.0111  0.1937 -0.1659
17235W        W33709   4.229   3.012  13.525 -0.2468 -0.1846  0.2455
17236W        W33710   2.007  15.649   0.549 -0.1376  0.2539  0.1227
17237W        W33711  13.120  13.708  13.864  0.1603 -0.3015  0.0592
17238W        W33712  17.467  13.139   0.103 -0.1255 -0.1467 -0.1735
17239W        W33713  18.354  10.700  15.215 -0.0440  0.1502 -0.2449
17240W        W33714   9.390   6.554   6.121 -0.0574 -0.0518  0.1546
17241W        W33715   6.542  10.868   3.870  0.1489  0.3816  0.3529
17242W        W33716  12.670   9.103  12.847 -0.1053  0.0201  0.2946
17243W        W33717   9.159  13.061  11.951 -0.3118  0.2418  0.1630
17244W        W33718   5.871   8.821  15.354  0.1581  0.1217 -0.0439
17245W        W33719   7.383   2.757  13.971  0.1992  0.1190  0.3946
17246W        W33720  14.792   8.349   3.523  0.1733  0.0575  0.1189
17247W        W33721  11.293  17.223  11.422 -0.2085  0.0836 -0.0038
17248W        W33722   4.962   5.886   5.033 -0.1324  0.0970  0.0361
17249W        W33723   9.440   3.738  14.924  0.1941  0.0675 -0.0861
17250W        W33724  10.598   0.410   2.333  0.1365  0.1773  0.0740
17251W        W33725  12.892   4.844   3.585  0.1299  0.1735 -0.2045
17252W        W33726   7.975  10.373  13.860  0.3002  0.1291 -0.1672
17253W        W33727   1.055  15.992  12.511 -0.1076  0.1354  0.0680
17254W        W33728  12.291   7.144  14.939  0.0873 -0.0850 -0.0664
17255W        W33729   1.111  15.500  13.825  0.4083 -0.1726 -0.3190
17256W        W33730   0.832  12.912   2.298  0.0600  0.1472  0.3574
17257W        W33731   2.321   7.867   0.784 -0.1270 -0.0740  0.0065
17258W        W33732   4.766   0.787   5.257 -0.1610  0.1532  0.0635
17259W        W33733   6.660   0.431  11.102  0.5436  0.0154  0.1515
17260W        W33734   4.045  10.219  15.070  0.3567 -0.1459  0.0062
17261W        W33735   6.909   2.915  14.764  0.0023  0.1577 -0.0553
17262W        W33736  11.709  11.980  15.472 -0.0292 -0.0039  0.0803
17263W        W33737  12.061  11.152  14.960 -0.1314  0.0778  0.2927
17264W        W33738   1.009  13.337   3.625 -0.0418 -0.0373 -0.1451
17265W        W33739   0.742   7.788  12.853  0.1187 -0.3000 -0.0715
17266W        W33740   0.935   7.249   4.910  0.0200 -0.4184 -0.0237
17267W        W33741   9.646  14.226   1.872 -0.5111  0.0218  0.0541
17268W        W33742  17.316   4.101  15.573 -0.1197  0.1628 -0.2305
17269W        W33743  17.762   8.810  11.648  0.0986  0.0223  0.0553
17270W        W33744   4.072  13.943  15.323 -0.0438 -0.1040 -0.5696
17271W        W33745  18.273  13.815  12.151 -0.0264  0.1388 -0.2167
17272W        W33746  10.765   8.949   4.794 -0.0766  0.0960 -0.0105
17273W        W33747   0.677  16.171  12.158  0.1361  0.1329  0.3969
17274W        W33748   2.423   6.976  13.771 -0.0678 -0.3416  0.3347
17275W        W33749  11.677  15.217  15.318 -0.1375  0.2401 -0.1450
17276W        W33750   6.156  12.796  13.651  0.1338 -0.0187  0.2369
17277W        W33751   4.584   3.472  15.279  0.1181 -0.0442  0.1498
17278W        W33752  15.088   6.719   9.774 -0.1587 -0.1044  0.0362
17279W        W33753   7.931  17.006   0.325  0.0894 -0.1075 -0.1623
17280W        W33754  10.662  11.570   4.136 -0.0964 -0.0708 -0.0138
17281W        W33755  16.589   0.908  14.342  0.1576 -0.0339  0.0813
17282W        W33756   6.846  13.615   1.034  0.0606 -0.0140 -0.2949
17283W        W33757  12.015   9.914   3.153 -0.0470 -0.2367  0.0355
17284W        W33758   1.775   7.396   4.641  0.2495 -0.1325 -0.1364
17285W        W33759  12.307   4.491   4.856 -0.2649 -0.3057  0.0934
17286W        W33760  13.737  10.163  13.349  0.3266 -0.1177  0.0802
17287W        W33761  11.063  16.007   4.205  0.3737  0.0519  0.0651
17288W        W33762   1.463  10.330  12.888 -0.0220 -0.2813 -0.1383
17289W        W33763  12.264   2.392  13.293  0.1497 -0.0376 -0.1165
17290W        W33764  10.795  14.195   1.451 -0.1128 -0.1503 -0.1166
17291W        W33765   7.024   2.673  12.019  0.0043  0.1295 -0.0754
17292W        W33766  11.848  14.106  11.661 -0.5240 -0.0326 -0.0603
17293W        W33767  15.301   4.022   2.280 -0.2156 -0.2995  0.2025
17294W        W33768   2.500   7.728   2.696  0.1549 -0.2803  0.3161
17295W        W33769  13.168   1.766  15.330  0.1190 -0.1818  0.2094
17296W        W33770   7.852  15.105  12.466 -0.1372  0.1032 -0.0506
17297W        W33771   3.164  16.008   5.007 -0.2456 -0.0452 -0.0442
17298W        W33772  12.284  17.084   2.547 -0.1784 -0.0328  0.1278
17299W        W33773   1.427   6.611   4.682  0.1734  0.4636  0.0102
17300W        W33774   8.204   2.224  15.212 -0.0384  0.2319 -0.5321
17301W        W33775   4.584   4.815  15.380 -0.2991  0.1152 -0.0434
17302W        W33776   5.861   2.560  12.026 -0.2254 -0.1269 -0.3418
17303W        W33777  17.487  11.748   0.223  0.4243 -0.0478 -0.0414
17304W        W33778  13.737  14.271   2.181 -0.1416 -0.0152 -0.1331
17305W        W33779   2.179  14.323  13.245  0.2446  0.0744 -0.2574
17306W        W33780  14.969  17.888  13.618  0.0454  0.0969  0.2834
17307W        W33781  16.042   9.346   4.930  0.0896  0.0556 -0.0097
17308W        W33782   2.697  10.443  14.139  0.4466 -0.0496 -0.1960
17309W        W33783   0.620  15.892   5.367 -0.2218  0.1566  0.0983
17310W        W33784  11.908   0.396   4.318 -0.3191  0.1574  0.0649
17311W        W33785   8.177  12.866  14.366 -0.0319 -0.0769  0.1856
17312W        W33786  11.805  16.490  13.794  0.1961 -0.0222 -0.1551
17313W        W33787   3.387   9.352   2.507  0.0472 -0.1847  0.2623
17314W        W33788   3.274  15.484  11.659  0.2399  0.3537  0.2918
17315W        W33789   4.555   8.365   1.955 -0.2390  0.0870 -0.2280
17316W        W33790   1.032  14.642   5.212 -0.1519  0.1463  0.0494
17317W        W33791  11.643   5.235   0.548  0.2554  0.1690  0.0081
17318W        W33792  18.598  17.176   0.821 -0.0592  0.1257  0.0422
17319W        W33793  18.738  17.036  14.498 -0.3240 -0.0321 -0.2891
17320W        W33794   1.275   3.457   0.539 -0.0800 -0.1572  0.0227
17321W        W33795  18.718  10.627  11.353 -0.0663  0.0280 -0.0558
17322W        W33796  17.600  13.597   4.447  0.2508  0.2502 -0.0306
17323W        W33797  15.027   7.630  12.768 -0.0450 -0.0978  0.3869
17324W        W33798   7.048   9.787  12.144  0.2231  0.0286  0.1170
17325W        W33799   4.283   5.693  14.084  0.0870 -0.3604  0.0219
17326W        W33800   3.286   4.278   3.674 -0.1782 -0.3761 -0.0723
17327W        W33801  10.805  17.305   2.969  0.0041 -0.1792 -0.0770
17328W        W33802  16.445  10.357  13.911  0.2698  0.1742  0.5359
17329W        W33803  17.634  10.542   4.047  0.5519  0.1471 -0.0291
17330W        W33804   6.771  17.279   3.560 -0.2769  0.1672 -0.1338
17331W        W33805   2.841  12.170   3.358 -0.3447 -0.1064 -0.1619
17332W        W33806   2.081   4.182   1.654 -0.2019 -0.1668  0.2579
17333W        W33807   7.169  14.634   2.090  0.2337  0.3923 -0.1351
17334W        W33808  17.910  14.286   1.870 -0.0329  0.0899  0.1863
17335W        W33809   7.660  16.073  12.452  0.1521 -0.0018  0.0258
17336W        W33810  17.688  16.468  14.984  0.1115  0.1066  0.0161
17337W        W33811   9.225  15.067  15.544  0.2361 -0.3342 -0.2890
17338W        W33812  12.244  14.317   3.148  0.1629  0.2629  0.1245
17339W        W33813  11.064  14.721   5.379  0.0893  0.0115 -0.1885
17340W        W33814   9.236   1.705  11.518 -0.3564 -0.0899  0.2702
17341W        W33815   9.517   3.147  13.341  0.0881 -0.5284  0.1037
17342W        W33816   1.123  17.075   3.116  0.1253 -0.0778  0.2537
17343W        W33817  17.042   8.882  10.739  0.0142  0.0067  0.0348
17344W        W33818   7.344   1.947   3.862  0.0697 -0.1686 -0.2971
17345W        W33819  16.771  15.973  11.508  0.1425 -0.0982  0.0441
17346W        W33820   6.220  10.574  13.269  0.0254 -0.0963 -0.0441
17347W        W33821   2.905  13.837  13.925  0.2031  0.1270  0.0509
17348W        W33822  12.035  18.134  15.148 -0.0208 -0.2830 -0.0053
17349W        W33823   7.555   9.840   2.535  0.0692 -0.0998  0.2830
17350W        W33824   0.940  10.155  15.274 -0.2487  0.3098 -0.3371
17351W        W33825   1.332  14.743   4.437 -0.0407  0.5109  0.0464
17352W        W33826   1.966  12.168   3.083 -0.2024 -0.0210  0.1528
17353W        W33827  16.939   3.025   3.286  0.1203 -0.0256 -0.3441
17354W        W33828  14.475  10.640  13.074  0.2520 -0.3167 -0.0856
17355W        W33829  11.548  16.517  10.140  0.2687 -0.0524  0.0918
17356W        W33830  10.377   8.780  11.966  0.0526  0.2160 -0.0521
17357W        W33831   8.096   3.194   1.895 -0.0836  0.2995 -0.0031
17358W        W33832  17.306  10.246  13.682  0.0431  0.0731  0.0989
17359W        W33833  17.213   0.299  15.299  0.1774  0.0147  0.1822
17360W        W33834   0.079  18.117  13.739  0.0764 -0.0712  0.1692
17361W        W33835  12.756   0.891   3.827  0.0603  0.2117  0.1983
17362W        W33836  15.697   3.283  14.216 -0.0832  0.3037 -0.0274
17363W        W33837   8.884   9.985  13.192 -0.1438  0.1926 -0.3272
17364W        W33838   8.166   3.068  14.550  0.3399 -0.1959 -0.1470
17365W        W33839   5.968  17.911   3.441  0.1804  0.1143  0.2279
17366W        W33840   7.726   8.739  12.898 -0.2370  0.0454 -0.0569
17367W        W33841   1.804  12.295   1.845 -0.0467  0.2189  0.1358
17368W        W33842   6.023  17.225   1.444  0.4444  0.1100  0.0144
17369W        W33843  16.537  16.752  13.481  0.0379  0.5002  0.1574
17370W        W33844   8.853  18.086  12.692  0.0911  0.1104  0.2395
17371W        W33845  17.554  11.931   1.429 -0.1832  0.0212 -0.0285
17372W        W33846  13.552  16.347  10.391  0.2075  0.1914 -0.0275
17373W        W33847   3.377   3.073  15.429  0.2716  0.1464  0.0368
17374W        W33848   0.890   7.682  12.089  0.0067  0.1803 -0.1234
17375W        W33849   8.868  11.108   4.538 -0.1914  0.1298 -0.2324
17376W        W33850  18.391   4.760   0.081 -0.1612 -0.4095 -0.2526
17377W        W33851   2.642  11.373  12.731  0.0566 -0.2047  0.2109
17378W        W33852   5.480   4.551  14.276  0.0544 -0.2407 -0.0620
17379W        W33853   1.013  12.876   0.993  0.0480  0.5442  0.2274
17380W        W33854   6.344  16.538  13.409 -0.1142  0.0276  0.2292
17381W        W33855   8.939   1.279  14.084 -0.1383 -0.1665 -0.0621
17382W        W33856   0.843  12.322  14.448 -0.0417 -0.1522 -0.2128
17383W        W33857   3.770   5.903   1.182 -0.0289 -0.1925 -0.0470
17384W        W33858   3.959  18.457  14.060 -0.1453 -0.0526 -0.0866
17385W        W33859   3.368  10.451  14.097 -0.0258 -0.1541  0.3191
17386W        W33860   9.008   7.398   2.172  0.3034 -0.0828  0.0795
17387W        W33861  17.945  17.583   2.877 -0.1775 -0.0881 -0.2044
17388W        W33862  12.001   4.780  14.066 -0.0719  0.1553  0.0923
17389W        W33863  17.828  12.179   3.004  0.1856 -0.0838 -0.1816
17390W        W33864   5.351  14.530  12.451 -0.0911  0.2294 -0.3099
17391W        W33865  13.867   2.404  11.045  0.1509 -0.1236  0.2839
17392W        W33866   6.290  11.384   1.067 -0.1852  0.1626 -0.1253
17393W        W33867  12.803   2.427   2.736 -0.1735 -0.1345 -0.0328
17394W        W33868   8.740   1.323  14.592 -0.1694 -0.1102 -0.1942
17395W        W33869   6.086  18.331  15.452  0.0751  0.0639 -0.0290
17396W        W33870  18.796  14.484  10.418  0.0539 -0.3148 -0.0075
17397W        W33871  12.730  14.102  13.830  0.1564  0.3681 -0.1163
17398W        W33872   1.870  16.628  11.484 -0.3336  0.4264 -0.3040
17399W        W33873  13.871   9.807  11.856 -0.0868 -0.0520 -0.0441
17400W        W33874   9.459   6.887  10.514  0.1044 -0.0324  0.1124
17401W        W33875   6.375  13.751  14.794  0.1626  0.1696 -0.1671
17402W        W33876   5.891   3.218  15.483 -0.1516 -0.0248 -0.1791
17403W        W33877   9.051   0.717  14.056 -0.1559 -0.1589 -0.0641
17404W        W33878  10.090  15.811   0.589  0.1888 -0.2497 -0.1439
17405W        W33879   1.369   7.591  11.944 -0.1310  0.0821  0.2332
17406W        W33880   7.953   3.961  12.700 -0.3715 -0.3229  0.2374
17407W        W33881   8.952   9.459   2.448  0.0253  0.3029 -0.2856
17408W        W33882  15.712   9.179   0.952 -0.1460  0.0554 -0.1194
17409W        W33883  18.693  16.372   4.708  0.2712 -0.2002  0.0453
17410W        W33884   7.697  18.136  13.917  0.1466  0.1865  0.0105
17411W        W33885  10.574  17.297  14.470  0.2503 -0.1210  0.3434
17412W        W33886  10.818   0.407   0.917 -0.0899  0.0518 -0.1272
17413W        W33887  14.460  15.515   3.562  0.1052  0.1470  0.1497
17414W        W33888   9.549   2.717   6.055 -0.0179  0.0641 -0.1300
17415W        W33889   9.057  12.788   0.019  0.0249  0.0326  0.0976
17416W        W33890   8.887  16.061  14.190 -0.1254  0.3342  0.0829
17417W        W33891  15.125  16.802   4.414 -0.1586  0.2500  0.1917
17418W        W33892   0.432   1.243   4.344 -0.1145 -0.1363  0.1076
17419W        W33893   4.209   4.026   3.039  0.1574 -0.1715 -0.1076
17420W        W33894   8.993   1.844  13.225  0.0748 -0.3876  0.3353
17421W        W33895   9.179  18.377   4.449 -0.4474 -0.2112 -0.3204
17422W        W33896  14.804  15.506  13.143  0.3211  0.3313  0.1154
17423W        W33897   3.907  11.245  15.038 -0.2670  0.0139 -0.1525
17424W        W33898  13.212  16.658   4.641 -0.1420 -0.1641  0.2522
17425W        W33899   7.432  10.401  12.022  0.0702  0.0026  0.2600
17426W        W33900  11.525   8.834  11.647 -0.0644 -0.0360 -0.0115
17427W        W33901  13.282  16.171  12.208 -0.1088 -0.0815  0.3873
17428W        W33902  16.997  12.630   3.251 -0.0635  0.2582  0.2994
17429W        W33903   5.427  11.026  12.498  0.0480  0.1940 -0.1278
17430W        W33904   3.056  13.245  14.168 -0.4028 -0.0913 -0.0109
17431W        W33905  12.499  18.324   2.676 -0.2156  0.3454 -0.3941
17432W        W33906  18.645  14.030  15.205  0.1272 -0.0830  0.1158
17433W        W33907   4.214   7.509   5.491 -0.1578  0.3078 -0.2074
17434W        W33908   3.993   7.059  15.330 -0.0436  0.0118  0.0880
17435W        W33909  17.854  10.147   3.409 -0.4132 -0.0054  0.1872
17436W        W33910   2.472   7.141   2.581 -0.1834  0.0145 -0.2861
17437W        W33911  11.235   5.753  14.649  0.2589 -0.0969  0.1356
17438W        W33912  16.081  16.553   0.053 -0.3962 -0.0310 -0.3818
17439W        W33913  11.966   1.772  14.878  0.1578 -0.2661 -0.0252
17440W        W33914   8.927   2.029  15.162 -0.0302  0.2023 -0.0381
17441W        W33915  14.807  12.041  14.934 -0.3462  0.2929 -0.1330
17442W        W33916   2.393  17.318   3.782  0.1994 -0.2506 -0.1807
17443W        W33917  10.074  15.634   3.037 -0.0114  0.5349 -0.0764
17444W        W33918  11.494  15.212  11.848  0.2945 -0.1093 -0.1264
17445W        W33919   0.087   1.876  11.427  0.0822  0.4957  0.2826
17446W        W33920   3.288  12.242   0.299 -0.3764  0.1619 -0.0616
17447W        W33921   0.458  16.919  12.686 -0.2552  0.3206  0.2459
17448W        W33922   7.441   5.669   2.135  0.0182 -0.1693  0.0173
17449W        W33923  11.409   5.022   0.971 -0.0241 -0.0703 -0.1415
17450W        W33924   0.765  11.142  11.009  0.1829  0.2197 -0.3334
17451W        W33925  17.941   5.594  15.018  0.1268  0.3059 -0.1106
17452W        W33926  12.554   7.439   0.306 -0.1542 -0.0664  0.0443
17453W        W33927  15.516  13.125  14.694  0.1132  0.0473 -0.2504
17454W        W33928  12.393   3.609   4.090  0.0393 -0.0014 -0.1646
17455W        W33929   1.823  10.941  15.467 -0.1325 -0.0175  0.0267
17456W        W33930  10.810   0.359   4.722  0.0532  0.0899  0.3490
17457W        W33931   0.850   2.601  14.066 -0.0461 -0.1231  0.2528
17458W        W33932   9.837   9.128  13.710  0.1186  0.0025 -0.1085
17459W        W33933   5.972  12.544   1.461  0.1202  0.0868  0.0831
17460W        W33934  17.824  10.443  14.037 -0.2503 -0.3817  0.5126
17461W        W33935   8.580  14.617  15.245  0.1387  0.1008  0.2236
17462W        W33936  17.383  16.406   3.426  0.0399  0.0443  0.2328
17463W        W33937  18.595   7.318   2.798 -0.0346 -0.1301  0.1519
17464W        W33938   0.226  18.068   2.312  0.0110 -0.4212 -0.4221
17465W        W33939   0.582   3.675   3.032 -0.0439 -0.2510 -0.2123
17466W        W33940  12.015   3.811  13.677  0.1060 -0.1262  0.1152
17467W        W33941   7.785  10.425   3.162  0.2014 -0.0464 -0.1408
17468W        W33942  10.090  15.731  11.108 -0.1584  0.0440  0.0721
17469W        W33943  15.103   5.905  13.620  0.1874  0.1000  0.0727
17470W        W33944   8.428   5.679   1.190  0.0050 -0.2425  0.1443
17471W        W33945  17.647   9.729  12.642 -0.3419  0.0562 -0.0345
17472W        W33946  11.823   3.378  15.678  0.1308 -0.3207  0.0834
17473W        W33947  11.563   3.670  13.480  0.1384  0.0366  0.3029
17474W        W33948  17.327   6.624  12.062 -0.0429 -0.3314 -0.2333
17475W        W33949   7.663   6.389   2.512  0.0373  0.1224  0.0790
17476W        W33950  14.832  10.579   4.022 -0.1212 -0.0250 -0.0528
17477W        W33951   6.992   3.569   0.629  0.0457 -0.1937  0.2992
17478W        W33952   2.579   8.930   4.818  0.1875  0.0576 -0.2181
17479W        W33953   9.001  12.527   1.720 -0.0089  0.0426  0.0626
17480W        W33954  11.656   3.233  11.307 -0.1444 -0.1457  0.3026
17481W        W33955  10.829   0.161   1.469 -0.0784 -0.1251  0.1303
17482W        W33956   3.697  16.528   0.130  0.3174 -0.2633  0.0480
17483W        W33957   6.136  12.297   2.055  0.0266 -0.1686  0.1296
17484W        W33958   6.681   3.395   3.479  0.1472 -0.0625 -0.3620
17485W        W33959   7.042   2.312   2.383  0.0219  0.0511 -0.2833
17486W        W33960  13.562  10.099   4.226 -0.1104  0.1697  0.0961
17487W        W33961  12.267  10.715   0.136 -0.0842 -0.4126 -0.0225
17488W        W33962  17.696  11.131   0.960  0.2121 -0.0269 -0.0912
17489W        W33963  17.549  10.237  14.866  0.3059 -0.0504  0.1726
17490W        W33964  18.605   7.981  10.697  0.0081  0.0748 -0.0353
17491W        W33965  13.788  15.145   4.973 -0.6702  0.2941 -0.0628
17492W        W33966   2.926   5.742  13.473  0.0652  0.3285  0.0983
17493W        W33967   0.798  11.642  15.188  0.0764 -0.0929  0.0138
17494W        W33968  14.535   7.697   1.046 -0.1617 -0.0447 -0.1956
17495W        W33969   6.448   1.927  14.970 -0.1626  0.1529 -0.1156
17496W        W33970  16.065   6.462   3.287 -0.1292 -0.0554  0.0454
17497W        W33971   4.430  11.214   1.358  0.0180  0.1192 -0.0161
17498W        W33972   7.274   1.603   1.788 -0.3110 -0.0853 -0.3222
17499W        W33973   1.908   9.535  15.090 -0.1242  0.1615 -0.1689
17500W        W33974   4.130  13.165  15.578  0.3366 -0.1090  0.0541
17501W        W33975  18.660  12.203   5.202 -0.1868  0.2225  0.1204
17502W        W33976  16.816   1.108   4.277 -0.1834  0.1032 -0.0805
17503W        W33977  11.401   9.506   5.288 -0.0142 -0.1925 -0.0347
17504W        W33978  13.180  13.362   4.290 -0.0630 -0.0392  0.0862
17505W        W33979   9.191   2.292   3.528  0.0429  0.0251 -0.1371
17506W        W33980  14.286   8.514   0.932  0.1021  0.0335 -0.0165
17507W        W33981  16.306   4.976  13.128 -0.2891  0.0877 -0.2879
17508W        W33982   9.544   8.068   1.491 -0.0678 -0.0209  0.0287
17509W        W33983   7.742  15.883  10.577 -0.0133  0.1513 -0.0548
17510W        W33984  16.644  12.508   4.612 -0.1207  0.0836  0.0812
17511W        W33985   2.689  16.731   3.445 -0.1649 -0.0689 -0.1919
17512W        W33986  14.956  10.964  15.313  0.0476 -0.0550  0.0251
17513W        W33987  11.063   6.360  13.832 -0.0465 -0.3122 -0.0272
17514W        W33988  10.065  12.227  14.263 -0.2218  0.0252  0.1996
17515W        W33989   1.314   5.634  14.690 -0.2055 -0.0087 -0.0227
17516W        W33990   7.212  11.551   1.094 -0.1233  0.1328  0.0348
17517W        W33991  13.065   3.355  10.834 -0.2419  0.2956 -0.1219
17518W        W33992   8.135   3.282   1.384  0.1939  0.1116  0.2286
17519W        W33993   2.407  10.044   0.079  0.1818 -0.2275  0.2857
17520W        W33994  10.953  15.277  14.486 -0.0679  0.3977  0.2501
17521W        W33995  10.495  17.752   4.109 -0.0891  0.0026  0.0123
17522W        W33996   6.462   8.688  15.540  0.0305  0.1590 -0.2157
17523W        W33997  16.515   7.225  15.532  0.3390  0.1766 -0.0735
17524W        W33998  16.900  13.923   2.666  0.1840 -0.3624  0.1653
17525W        W33999   4.421   8.335   2.452 -0.1142  0.1179  0.3473
17526W        W34000  15.959   0.674   1.580  0.1786 -0.0178 -0.2434
17527W        W34001  16.632   8.396  10.659 -0.0391  0.2118 -0.1195
17528W        W34002  11.147   0.445   3.703 -0.0616  0.0018 -0.0228
17529W        W34003   1.763   4.663   4.581  0.3026  0.3807  0.3541
17530W        W34004  11.276   4.220  13.613 -0.2148  0.1429 -0.1838
17531W        W34005   4.768  17.900   5.594 -0.1009 -0.1841 -0.0479
17532W        W34006   9.919   2.925  11.586  0.0677  0.1514  0.1428
17533W        W34007  12.640  17.221   0.225 -0.0709 -0.2929 -0.2301
17534W        W34008  13.635   5.666  12.645 -0.1645  0.2280  0.0518
17535W        W34009   9.481  14.684  15.595  0.1169  0.1625  0.1363
17536W        W34010   2.332  16.389   3.066 -0.1049 -0.2733 -0.0775
17537W        W34011   2.132  18.812  13.947 -0.1828  0.1018  0.1153
17538W        W34012  12.461  11.048  11.084  0.2051  0.0222  0.0374
17539W        W34013  15.671   0.396   2.695 -0.0098 -0.1880 -0.1638
17540W        W34014  12.662  18.188   5.740  0.0663  0.0546  0.1579
17541W        W34015   5.531  13.587  14.925  0.3725 -0.0769 -0.0555
17542W        W34016   9.447   7.711  13.613 -0.2716 -0.0983 -0.2997
17543W        W34017  12.588   8.010   3.233 -0.0266  0.2067  0.1148
17544W        W34018   8.868  10.741  11.575 -0.2661 -0.3568  0.1537
17545W        W34019  13.133   3.591  13.927  0.1655  0.4357 -0.0542
17546W        W34020  17.469   0.067   1.649  0.0714 -0.3265 -0.2074
17547W        W34021  11.970  11.640  14.369 -0.1305 -0.0317  0.1037
17548W        W34022   0.165  18.610  13.463  0.1926  0.0764 -0.1633
17549W        W34023  12.149  17.115  12.411 -0.0789 -0.2625  0.2021
17550W        W34024   0.118  10.471   3.566  0.0470  0.0691  0.2018
17551W        W34025   2.707  15.790   3.793  0.0030 -0.1029  0.1337
17552W        W34026   3.411  14.561  14.501 -0.0381  0.0575  0.0371
17553W        W34027   5.732   5.491   1.934  0.1257  0.1925  0.1004
17554W        W34028  18.377   6.904  14.641 -0.3263  0.0679  0.3299
17555W        W34029   9.428  10.503  15.506 -0.0634 -0.0810  0.0214
17556W        W34030   7.583  15.443  12.674 -0.0745 -0.1504 -0.2701
17557W        W34031  12.279   6.824  15.334  0.3334  0.1511  0.2556
17558W        W34032  10.045   9.959  14.611 -0.0978  0.2562  0.1147
17559W        W34033   5.661   4.266  13.007  0.1415  0.2470 -0.2317
17560W        W34034   6.444   6.897  12.725 -0.0644 -0.0711  0.1804
17561W        W34035   1.513   4.738   0.542 -0.0351 -0.1646 -0.2965
17562W        W34036  15.347   2.470   3.190  0.1382 -0.0074  0.1692
17563W        W34037  11.410   0.170   0.309 -0.4589  0.2656 -0.0362
17564W        W34038  17.772   9.915  14.152 -0.0024 -0.5654 -0.0031
17565W        W34039   0.103   9.631  10.610 -0.0406 -0.2508  0.0842
17566W        W34040   8.280  10.638  11.740 -0.1151  0.1670  0.1880
17567W        W34041   6.908  11.536   1.858 -0.1467  0.1213 -0.1087
17568W        W34042  12.587  10.495   4.171 -0.0328  0.0221 -0.2656
17569W        W34043   3.416  13.401  15.014  0.1646  0.3504  0.3123
17570W        W34044  12.350   0.083  12.912 -0.2336 -0.1043  0.0894
17571W        W34045  16.992   6.287   3.587  0.0353  0.0787  0.1964
17572W        W34046   2.006  13.762  13.822  0.1102  0.3827 -0.0812
17573W        W34047   9.827   4.444   0.365  0.0484 -0.2897 -0.1004
17574W        W34048  12.423   0.610  12.897  0.0096 -0.1444  0.3542
17575W        W34049   2.726  18.245   3.663 -0.0034  0.4156  0.0870
17576W        W34050  15.001   0.115  12.691 -0.2430 -0.0067  0.2040
17577W        W34051   9.488   6.473  11.562  0.1991  0.1157 -0.1586
17578W        W34052  17.029  14.026   1.589  0.4483 -0.1203  0.2162
17579W        W34053   8.954   3.859  15.067  0.2556  0.3952 -0.0192
17580W        W34054   2.350   2.624   1.980  0.0680 -0.0122 -0.0220
17581W        W34055  17.645   7.663  14.007  0.2624  0.3145  0.2388
17582W        W34056   8.154   9.356  13.204 -0.0673 -0.1139  0.0212
17583W        W34057  15.109  18.828  10.569  0.2548  0.0844 -0.1339
17584W        W34058   5.352   4.013   3.080  0.0815 -0.2601  0.1313
17585W        W34059  15.285  12.383   2.695 -0.0790 -0.1376 -0.0248
17586W        W34060  14.629  12.970   2.940  0.0523 -0.1112 -0.0566
17587W        W34061   4.803  13.382   0.624 -0.0035  0.0163  0.3816
17588W        W34062   6.608  13.525   3.464 -0.3496  0.0580  0.1226
17589W        W34063   0.525   5.954   5.335  0.1124 -0.1739 -0.2373
17590W        W34064   1.466  10.056   9.471 -0.1150 -0.2117 -0.0991
17591W        W34065   7.373   6.313   1.965  0.3000  0.6767 -0.1638
17592W        W34066  17.290   7.102   4.545 -0.0582 -0.0567 -0.0211
17593W        W34067   2.004   6.901  11.005  0.1895 -0.0598 -0.1334
17594W        W34068  12.242   6.746   3.279  0.0437 -0.0708 -0.0352
17595W        W34069   1.866   8.891  11.881 -0.0546 -0.0433 -0.1289
17596W        W34070   9.621  16.052  11.894  0.0245  0.0142 -0.1236
17597W        W34071   4.939  13.783  11.140  0.0320 -0.0896  0.1076
17598W        W34072   0.723   9.644   2.855  0.0955  0.2880  0.0425
17599W        W34073  10.223  17.243  11.791  0.1344  0.1842  0.1559
17600W        W34074  10.214  17.115   1.201 -0.1171  0.0416 -0.1277
17601W        W34075   9.701  14.737   1.650 -0.0935 -0.1668  0.3829
17602W        W34076  10.421   2.903   1.056 -0.1248 -0.1643  0.0408
17603W        W34077   7.146   2.002  13.120 -0.1236  0.0620 -0.1376
17604W        W34078   0.648   3.010  15.440 -0.3633  0.1332  0.1340
17605W        W34079   1.423   8.509  13.544 -0.3961  0.2546  0.1107
17606W        W34080  14.706   0.967   0.315  0.0398  0.0724  0.1611
17607W        W34081  13.881   6.452   0.054 -0.2819  0.3506  0.2058
17608W        W34082   8.601  16.082  15.189 -0.3356  0.0493  0.0347
17609W        W34083  12.333   0.162   4.473 -0.2846 -0.4768 -0.1507
17610W        W34084   5.648  17.202  14.596  0.0954  0.0624 -0.0064
17611W        W34085   6.640   6.404   0.045 -0.1151 -0.0027  0.0484
17612W        W34086  14.826  12.805  14.340  0.2211  0.2042 -0.1202
17613W        W34087  17.658   7.176  12.757 -0.4308 -0.0385  0.0561
17614W        W34088   0.169  18.159  12.501 -0.2965  0.3128 -0.3714
17615W        W34089  17.557   3.666  11.870 -0.1237  0.0860  0.2696
17616W        W34090   4.514   3.759   0.447 -0.0445  0.0674  0.2901
17617W        W34091   9.616  15.464   2.845  0.1660  0.0319 -0.0332
17618W        W34092   7.291   6.533   5.003  0.0500 -0.2148 -0.2444
17619W        W34093   3.154   3.281  14.451  0.1081  0.1360 -0.0661
17620W        W34094  11.057   3.626   1.455 -0.1704 -0.1498 -0.0837
17621W        W34095   4.913  11.034   1.607  0.1100 -0.0216  0.0477
17622W        W34096   8.206   6.446   3.951 -0.2677  0.3221 -0.3871
17623W        W34097   2.448   2.876  15.077 -0.2233  0.1544  0.1844
17624W        W34098   6.316  15.205   2.017  0.1567  0.1037  0.0574
17625W        W34099   7.138   3.794   2.762  0.2550 -0.0570 -0.0195
17626W        W34100   7.726  12.199   0.115  0.0655  0.1219 -0.4068
17627W        W34101   7.855  17.744  14.911 -0.1520  0.1636 -0.1785
17628W        W34102  17.387  16.749  11.438 -0.0276 -0.1006  0.0699
17629W        W34103  18.480   7.713   4.152 -0.1545  0.1982  0.3841
17630W        W34104   6.562   6.981  13.751 -0.3772  0.0084  0.1842
17631W        W34105   8.283  10.893  15.316  0.1308 -0.1331  0.1441
17632W        W34106   0.673  11.906   3.502 -0.1560 -0.2754 -0.0810
17633W        W34107   6.713  14.918   2.910  0.1552 -0.1015 -0.0858
17634W        W34108   1.242   8.761   0.616  0.3087  0.3659  0.2447
17635W        W34109   2.245   8.062  14.607  0.3009  0.0017 -0.1805
17636W        W34110   2.525   0.653   4.196  0.1599  0.1889 -0.0096
17637W        W34111   8.319  12.455  15.050 -0.1595 -0.2138  0.0230
17638W        W34112  17.861   0.613   9.869  0.0186  0.0926  0.2921
17639W        W34113   4.587   6.422  13.467  0.3517 -0.0439 -0.3684
17640W        W34114   2.157   2.985  14.532 -0.2326 -0.2585  0.1153
17641W        W34115  10.828  14.066  11.135  0.1785 -0.0478 -0.0516
17642W        W34116   1.892   9.089   2.065 -0.1848 -0.3000 -0.2065
17643W        W34117  13.815   3.386   3.812 -0.0967 -0.0164 -0.5760
17644W        W34118  10.050   5.875  12.891  0.1087  0.0072 -0.0606
17645W        W34119   4.755  16.544   4.564  0.0034 -0.0266  0.1400
17646W        W34120   1.481  14.922   3.914  0.3302  0.4192 -0.2764
17647W        W34121   7.428  11.666  13.389 -0.4208  0.1772 -0.0636
17648W        W34122   0.454   3.188   1.183 -0.1275  0.0266 -0.1888
17649W        W34123  15.775   2.176   4.588  0.2952 -0.0841  0.0704
17650W        W34124   8.406  10.192   0.008 -0.0512  0.1508  0.0031
17651W        W34125  12.886  15.354   3.947 -0.2478  0.0630 -0.0670
17652W        W34126  11.774   4.622   3.920  0.1041  0.0410 -0.0978
17653W        W34127  11.090  16.476   4.416  0.2235 -0.1409  0.1508
17654W        W34128  14.018   2.141   1.661  0.0403  0.0183 -0.0051
17655W        W34129   3.931   9.981  15.564 -0.0452  0.1611 -0.2379
17656W        W34130   4.032  17.544   0.356  0.2006 -0.0806 -0.2484
17657W        W34131  16.305  11.227   4.799  0.1414 -0.0797  0.1182
17658W        W34132   7.958  16.281   1.896  0.2943 -0.1343 -0.0127
17659W        W34133   9.403   9.187   2.460  0.3559  0.0353  0.2588
17660W        W34134   5.823   4.391  15.493 -0.0525  0.0611  0.0463
17661W        W34135   3.129  13.669   0.286  0.1593  0.1446 -0.1291
17662W        W34136  13.566  10.723  10.707 -0.0781  0.3103 -0.3391
17663W        W34137   1.083  17.888   3.310 -0.0125 -0.1631  0.2127
17664W        W34138  18.798  10.236  13.556  0.1942  0.1519  0.1846
17665W        W34139   0.406  10.654  12.456  0.1162 -0.1940  0.1669
17666W        W34140  10.680  12.767  11.332 -0.1887  0.0916  0.1122
17667W        W34141  16.466  12.195  13.478  0.1411 -0.0079  0.1984
17668W        W34142   5.129  13.159   6.216 -0.0332  0.0048  0.1851
17669W        W34143   7.527   3.900   1.587 -0.0394  0.1372  0.4972
17670W        W34144   1.911  13.226  14.017 -0.1073 -0.0493 -0.0272
17671W        W34145  10.772   1.886   2.166  0.4322 -0.2467 -0.1375
17672W        W34146   9.068   8.780  12.199 -0.0191  0.0755  0.0642
17673W        W34147  12.659   5.393   3.473  0.0825  0.0064 -0.0627
17674W        W34148  16.091  16.416  12.153 -0.0589 -0.3819 -0.2073
17675W        W34149  13.801  13.828  10.504  0.1101 -0.0215  0.0976
17676W        W34150   1.880   1.398   4.403  0.1764 -0.1006 -0.2079
17677W        W34151  13.665  10.559  13.077  0.3306 -0.0095  0.0916
17678W        W34152   4.719   2.296   1.013 -0.2956 -0.3821 -0.3635
17679W        W34153   0.134   7.505  10.842 -0.2171 -0.0435 -0.0213
17680W        W34154  10.061   6.463   2.630 -0.1479  0.0230 -0.0771
17681W        W34155   1.698   5.895  12.911 -0.1700 -0.1474 -0.1679
17682W        W34156  16.226  16.993  15.040  0.1954  0.1821 -0.1505
17683W        W34157   8.749  13.356   4.873 -0.2853 -0.1651 -0.2791
17684W        W34158   4.463  17.273   1.034 -0.0493 -0.0187  0.1183
17685W        W34159   7.575   4.940   1.676  0.1072 -0.2797  0.4310
17686W        W34160   0.415  14.428   1.882 -0.1409 -0.2383 -0.0823
17687W        W34161  18.688   6.255  12.052 -0.1485 -0.0204  0.3357
17688W        W34162  13.547   9.634  11.314  0.0745 -0.0676 -0.2663
17689W        W34163   5.846  12.852   4.745 -0.0951 -0.0887  0.0687
17690W        W34164   8.311   5.888  13.794  0.1808  0.0198  0.3537
17691W        W34165  13.710   0.250   3.256  0.2103  0.3973  0.0547
17692W        W34166  10.843   9.023  12.866  0.0278 -0.0177  0.0186
17693W        W34167  12.785  11.418   3.960  0.2401  0.0218 -0.0130
17694W        W34168  14.692  18.703   4.109  0.2588 -0.0581  0.2370
17695W        W34169  15.781  10.123  10.063 -0.0267 -0.0199  0.0128
17696W        W34170   4.913   1.154  14.106  0.0853 -0.3185 -0.1081
17697W        W34171  17.020   2.048  12.281  0.0090 -0.1956 -0.2805
17698W        W34172  15.911  16.775  14.672  0.0078 -0.2466  0.0768
17699W        W34173   8.720   7.439   0.625  0.2565  0.3185  0.0347
17700W        W34174   3.011   6.003   1.615  0.0545 -0.0390 -0.0629
17701W        W34175   5.400   5.436  13.053  0.1046 -0.0484 -0.1108
17702W        W34176  15.801   7.774  13.438  0.0602  0.0866  0.0879
17703W        W34177   0.448  11.223  11.358  0.0392  0.0575 -0.0845
17704W        W34178   3.080   8.176   1.589  0.2577  0.0083 -0.0975
17705W        W34179   6.505  11.099  15.448 -0.2813  0.2748 -0.3199
17706W        W34180   0.792   2.640  12.478 -0.0402  0.0572  0.1512
17707W        W34181  14.586  18.168   2.808 -0.0344 -0.2272 -0.2176
17708W        W34182   3.750   6.081  14.353  0.2394 -0.0772 -0.1759
17709W        W34183  13.119  15.977   1.450  0.1393  0.0432  0.1205
17710W        W34184   2.924  10.477  10.625 -0.1303 -0.0990 -0.1058
17711W        W34185  11.400  10.343   2.200 -0.2192 -0.1306 -0.2292
17712W        W34186   7.241   5.666  12.687  0.0407  0.1654  0.1479
17713W        W34187   1.395  16.653   2.993 -0.0937  0.3983 -0.2774
17714W        W34188   4.101  16.657  15.221  0.1437 -0.0222 -0.1462
17715W        W34189   3.267  12.079   1.600  0.0452 -0.1313  0.0814
17716W        W34190   9.676  16.142   3.927  0.2499  0.1550  0.1306
17717W        W34191   5.237  14.242  14.100  0.1195  0.3225 -0.1470
17718W        W34192  11.151   5.785   3.644 -0.2588  0.2282  0.1183
17719W        W34193  15.995   6.894   0.517  0.1158 -0.1061 -0.1596
17720W        W34194   0.529  12.002   4.523  0.0987  0.1753 -0.5009
17721W        W34195   7.374   5.029   0.807  0.4093  0.1070 -0.0141
17722W        W34196   4.674  15.518  13.012 -0.2538 -0.0412  0.0093
17723W        W34197  18.395  18.333  13.730 -0.4153 -0.0542 -0.2206
17724W        W34198   8.725  17.640   2.572  0.0960  0.0397 -0.0031
17725W        W34199   3.952   7.126   5.095 -0.1959 -0.0185 -0.3048
17726W        W34200  16.758  11.583  10.484  0.3390  0.1105  0.1811
17727W        W34201  12.317  13.680   0.996  0.0303 -0.0793  0.1854
17728W        W34202   0.871  18.850   0.801  0.0175 -0.0077  0.2741
17729W        W34203   7.058   2.240   5.951  0.2308 -0.0471  0.0965
17730W        W34204  16.263   3.997   2.935 -0.2614  0.3468  0.1913
17731W        W34205   6.609   9.845  11.387 -0.3340  0.0423 -0.1578
17732W        W34206   1.037   5.070  10.645 -0.1629  0.3208  0.0226
17733W        W34207   9.938  16.440  11.688 -0.0137 -0.2468  0.1204
17734W        W34208  15.121   6.659   1.194  0.1885 -0.3299 -0.2870
17735W        W34209   2.994  14.227  14.718  0.0085 -0.0363  0.0151
17736W        W34210   9.725   8.700   2.589 -0.3128 -0.3105 -0.1786
17737W        W34211   9.957   5.292  15.099 -0.0455  0.0944  0.1674
17738W        W34212   8.530   6.991  12.599 -0.0491 -0.1085 -0.0567
17739W        W34213   1.061   1.004   5.286  0.0555  0.1939  0.0119
17740W        W34214   1.600  14.962   0.353  0.2090 -0.1136 -0.2076
17741W        W34215   0.133  18.040   1.048  0.1197  0.1859 -0.3255
17742W        W34216  16.106  14.606   2.452  0.0789  0.3324 -0.0749
17743W        W34217  12.151  13.264   2.211  0.1082  0.2573  0.1354
17744W        W34218   5.190   1.000   4.948  0.0526  0.0257 -0.0535
17745W        W34219  16.509   8.997   1.424 -0.6457  0.0380  0.0257
17746W        W34220  14.985  15.805   3.168 -0.0413 -0.0320  0.0698
17747W        W34221  11.306  14.188   5.284  0.0056 -0.0036  0.2578
17748W        W34222  17.439  16.347  15.571 -0.2942 -0.0484 -0.0658
17749W        W34223  11.419  17.686   0.700 -0.1416 -0.0997  0.2597
17750W        W34224  14.158  17.405   1.303 -0.1977 -0.2087 -0.0453
17751W        W34225   1.022  14.315  13.979 -0.0262  0.0259 -0.1222
17752W        W34226   7.185  11.648  11.731 -0.0402  0.0569  0.0018
17753W        W34227   9.634  13.865  13.379  0.0634 -0.1758 -0.0260
17754W        W34228   0.219  15.217  13.048 -0.3732 -0.0622  0.2835
17755W        W34229  15.991  13.969   1.868 -0.1183 -0.2122  0.1994
17756W        W34230   4.074  11.775   0.875  0.1271 -0.0024 -0.1793
17757W        W34231  17.684  11.792   2.725  0.1461  0.1511  0.2615
17758W        W34232  13.780   0.637   4.078 -0.2498  0.1357 -0.0146
17759W        W34233   2.116   6.049   1.810  0.1183 -0.0988  0.0639
17760W        W34234  11.282  10.824   1.165  0.1800  0.2954 -0.0709
17761W        W34235  13.799   9.080  14.536  0.0123 -0.1100  0.2922
17762W        W34236   5.007  11.247   3.435 -0.0731 -0.1229  0.2801
17763W        W34237  16.535   5.499   2.481 -0.0208 -0.0199  0.3440
17764W        W34238  17.972   7.024   0.991 -0.0253  0.3491 -0.2429
17765W        W34239  10.232  15.961  14.941  0.0339 -0.2009 -0.0415
17766W        W34240  17.820   8.318   1.427  0.0511  0.1266  0.1019
17767W        W34241  17.554   3.846  12.325  0.1304  0.1268 -0.1972
17768W        W34242  14.512   3.895  13.002 -0.3506 -0.1769  0.2766
17769W        W34243   6.236   6.686   0.152  0.0314  0.0231 -0.1600
17770W        W34244   1.987  10.964  13.538  0.1610  0.0154  0.1075
17771W        W34245   7.859   5.375  13.901 -0.4854  0.1809  0.0969
17772W        W34246  11.505  11.506  14.576  0.1269  0.0875 -0.1302
17773W        W34247  15.225   0.695  13.509  0.0774 -0.1614 -0.0597
17774W        W34248   9.663   4.176   2.079 -0.1301  0.1789 -0.3251
17775W        W34249   3.754   3.764  10.600 -0.1537 -0.2129  0.0016
17776W        W34250   7.069  16.909  13.493  0.4241  0.1005 -0.0214
17777W        W34251  13.753  14.231   9.740  0.3301 -0.1386 -0.3000
17778W        W34252  17.100   1.482  12.534  0.1715 -0.0557  0.1902
17779W        W34253  16.412   7.420   1.595 -0.1432 -0.1457 -0.2620
17780W        W34254  17.088   4.113  11.178  0.0491  0.2547  0.0351
17781W        W34255   7.954   8.400   3.479 -0.0438  0.1669 -0.0752
17782W        W34256   1.380  13.253   1.479 -0.1032 -0.0363  0.4865
17783W        W34257  17.561  15.927   3.834  0.1452  0.0055  0.1380
17784W        W34258  13.878  12.454  12.640  0.0060 -0.0538 -0.1927
17785W        W34259   8.506  16.087   3.687 -0.1966 -0.0171  0.0960
17786W        W34260   2.786  13.117   3.573  0.1767  0.2006 -0.1128
17787W        W34261  14.151  17.694  14.020 -0.1741  0.3917 -0.2564
17788W        W34262   4.654  13.247  11.139 -0.0502  0.2264 -0.0504
17789W        W34263   3.635   7.040  13.470  0.0160  0.4690  0.0577
17790W        W34264   5.740   9.851   4.710 -0.0385  0.1416  0.1380
17791W        W34265   5.241  17.072   3.344  0.0175  0.1334 -0.0338
17792W        W34266   2.828  17.903  11.093  0.0340 -0.6154 -0.0842
17793W        W34267   3.268  16.435  15.554 -0.1562 -0.1829 -0.0220
17794W        W34268  12.876  17.245   0.896  0.0631  0.0185  0.2568
17795W        W34269  10.495  12.840  15.363  0.1968  0.0103 -0.0482
17796W        W34270  14.265   3.030  14.475 -0.0486  0.1864  0.2709
17797W        W34271   8.257   8.046  12.461 -0.5687  0.1367 -0.1337
17798W        W34272  18.492   7.761  15.074 -0.2351 -0.0865  0.2890
17799W        W34273   6.391   6.317   1.413  0.0484 -0.1745 -0.1438
17800W        W34274   7.258  17.235   3.353 -0.3605 -0.1184 -0.2143
17801W        W34275   2.530   0.069  12.568 -0.0229 -0.0252  0.0217
17802W        W34276  14.443  11.613  10.902  0.2316 -0.1647  0.1241
17803W        W34277  10.839   3.464  10.102  0.1695 -0.0574 -0.0520
17804W        W34278  13.711   7.788  11.560  0.2495 -0.4202  0.0348
17805W        W34279  13.475  17.407   1.629  0.0478 -0.0751 -0.1814
17806W        W34280   9.704   6.843  15.419  0.0601  0.0274 -0.0683
17807W        W34281   9.026  17.856   3.114 -0.2760  0.0016 -0.1659
17808W        W34282  18.765   7.637   0.256  0.2084 -0.2164  0.0163
17809W        W34283  13.783   7.475   3.893 -0.3119  0.0469  0.1210
17810W        W34284  18.209  14.360  12.220 -0.2938 -0.3703  0.1853
17811W        W34285  17.551  13.029  12.195  0.2945 -0.1920  0.1064
17812W        W34286  10.746   2.263   3.605 -0.0366  0.1238 -0.0888
17813W        W34287  17.043   9.591  13.389  0.0162  0.0407  0.0396
17814W        W34288  17.983  11.640   2.330 -0.2199  0.0690 -0.0456
17815W        W34289   3.319  15.644  15.476  0.2318  0.0586  0.0122
17816W        W34290   8.643  16.878  13.662 -0.0357  0.1913  0.0410
17817W        W34291  13.599  14.196  11.637  0.0268  0.1129  0.2038
17818W        W34292  13.481  18.215  11.531  0.0628 -0.0671  0.0696
17819W        W34293  13.960  18.667  14.343  0.0902 -0.0163 -0.4018
17820W        W34294  11.333   3.695   4.288 -0.0382  0.0078 -0.2403
17821W        W34295   3.359  12.216   2.045  0.0886  0.0342  0.5333
17822W        W34296   1.076   2.890   3.943  0.0730 -0.0700  0.2483
17823W        W34297  12.640  14.259   4.376  0.2067 -0.0209  0.1120
17824W        W34298  13.132   6.421   4.096 -0.5384 -0.1217 -0.0849
17825W        W34299   7.288  12.322   3.932 -0.2961 -0.2095  0.2969
17826W        W34300  14.676   1.872   4.195 -0.1251 -0.0866 -0.0209
17827W        W34301   7.806   5.560   3.762 -0.0019 -0.1285 -0.2182
17828W        W34302  14.376   1.159   1.193  0.2582  0.2179  0.5170
17829W        W34303  10.453   1.226  14.283  0.1820 -0.3746 -0.1063
17830W        W34304  17.025   3.647  11.815  0.1113  0.0018 -0.1041
17831W        W34305   1.487  16.995   5.028 -0.0665  0.1288 -0.0221
17832W        W34306   4.523   2.994  15.478  0.1208  0.3299  0.4934
17833W        W34307  10.136   5.601   6.582 -0.2030  0.0610 -0.0637
17834W        W34308   0.424  10.156  13.277  0.1459 -0.1458  0.0902
17835W        W34309  14.337   5.874  13.274  0.0401  0.0113 -0.1544
17836W        W34310   9.019   3.008   2.159  0.0912 -0.1089  0.0586
17837W        W34311   0.075   2.682  10.730 -0.2400 -0.0713 -0.0385
17838W        W34312  14.046   7.040   3.122  0.1396 -0.0586  0.0851
17839W        W34313  18.822  15.229  15.527 -0.0136  0.2415 -0.2786
17840W        W34314  15.533   3.381   2.168 -0.1855 -0.0850 -0.1790
17841W        W34315   6.183  14.027  11.813 -0.0104  0.0838  0.0065
17842W        W34316  11.066  15.555   1.702  0.1472  0.0721  0.1884
17843W        W34317   3.886   9.571   1.078 -0.1390 -0.2355 -0.2099
17844W        W34318  11.463  11.478  12.746  0.0816 -0.3356  0.1116
17845W        W34319   0.480  16.878  13.240  0.0717 -0.3834  0.3327
17846W        W34320  15.539   2.789   3.855  0.1283 -0.0166  0.3662
17847W        W34321  14.865   7.823   9.843  0.0340  0.4334  0.0644
17848W        W34322   9.411  10.203   5.195 -0.2591 -0.0180 -0.1098
17849W        W34323  17.918  12.455  13.431  0.2669  0.0756  0.3055
17850W        W34324   1.233  14.807  10.237 -0.2732  0.0621 -0.4198
17851W        W34325   2.623  16.752  14.749 -0.2104  0.0899  0.0743
17852W        W34326  15.765  14.199   3.134  0.0175  0.0746 -0.0635
17853W        W34327   6.786  13.313   0.655  0.4181  0.1067 -0.1622
17854W        W34328   3.407   0.799   0.864 -0.0861 -0.0119  0.0888
17855W        W34329  14.543   4.384   2.380 -0.0520 -0.0204  0.2646
17856W        W34330   2.370   0.142  14.364  0.2507 -0.3121  0.0100
17857W        W34331   0.215  13.957  14.490  0.2325 -0.1625  0.2595
17858W        W34332   9.604  17.171  15.002  0.2373  0.2187  0.0180
17859W        W34333   1.045   3.284  15.089 -0.0143 -0.2170 -0.0048
17860W        W34334   0.498  13.967  12.290  0.1439 -0.0247 -0.0486
17861W        W34335   0.593   6.588   2.826 -0.0867 -0.1700 -0.0119
17862W        W34336   6.200  11.999   2.922 -0.3996  0.3185 -0.2346
17863W        W34337  12.804   7.526   3.442 -0.1433  0.0821 -0.0354
17864W        W34338   8.553   3.050  14.191 -0.0434  0.4205  0.2926
17865W        W34339   0.846  15.742  10.620  0.1646 -0.0228  0.1214
17866W        W34340  10.326  10.086   4.095  0.1127  0.0377  0.0503
17867W        W34341  15.901  10.554  14.163 -0.0211 -0.0296 -0.1258
17868W        W34342  15.523  14.349  11.495 -0.1915 -0.2096 -0.2249
17869W        W34343  17.163   7.329  11.367  0.0405 -0.0141  0.2145
17870W        W34344   6.792   7.609   5.731  0.0489  0.0661  0.0478
17871W        W34345   1.123  10.779  11.034 -0.0210 -0.1514  0.2152
17872W        W34346   3.156  15.278   4.484  0.3119 -0.1995  0.1300
17873W        W34347  10.150   1.479  12.637  0.2073  0.0244  0.3146
17874W        W34348  16.182   2.608  11.696  0.0480 -0.1054 -0.1507
17875W        W34349   7.632  14.788  11.948 -0.0516  0.1676  0.1960
17876W        W34350  12.044   7.611   4.205  0.0982  0.2867  0.2242
17877W        W34351  11.450  11.531   5.735  0.2084 -0.2197 -0.1899
17878W        W34352  12.441  18.482   3.270 -0.3548  0.0743 -0.2649
17879W        W34353   2.472   9.104   0.290 -0.0397 -0.0822  0.3135
17880W        W34354  17.385  14.094  11.168 -0.2018 -0.2000  0.0804
17881W        W34355   4.791   9.593  11.500 -0.0126 -0.2556 -0.1860
17882W        W34356   4.959  11.687  14.509 -0.1541 -0.0164 -0.0888
17883W        W34357   3.169  16.393   2.167  0.1361  0.0360  0.0166
17884W        W34358   0.748   4.353  11.830  0.2367  0.1372  0.2152
17885W        W34359   0.466  17.094  11.952 -0.1168 -0.3185 -0.0327
17886W        W34360  16.456   8.460   0.438 -0.0460 -0.1010 -0.2028
17887W        W34361  17.033  10.723   1.886 -0.4771  0.3113  0.1572
17888W        W34362  10.645   7.607   5.660 -0.3950 -0.1522 -0.2598
17889W        W34363   0.562   1.677   1.078 -0.3188 -0.1240  0.2756
17890W        W34364   8.869  15.244   3.562  0.1423  0.1917 -0.1604
17891W        W34365   3.076   3.706  12.373 -0.0756 -0.3627 -0.0488
17892W        W34366  17.523  10.716  13.562 -0.0114  0.0942 -0.1860
17893W        W34367   2.965  15.870   5.745  0.0387 -0.0624 -0.0293
17894W        W34368   9.657   0.346  12.507  0.6562  0.0770 -0.0762
17895W        W34369   6.640   9.990   4.908 -0.0945 -0.0749 -0.4445
17896W        W34370   9.727   7.776   5.455 -0.3733 -0.4349  0.1267
17897W        W34371  13.368  13.241  11.805 -0.1008  0.0259  0.2440
17898W        W34372   9.199   2.257   3.015  0.1888  0.0558 -0.0873
17899W        W34373   9.128  13.403   0.389 -0.2255 -0.1711  0.3525
17900W        W34374   8.991   3.764  14.609 -0.0403  0.0084 -0.1618
17901W        W34375  15.714   6.944   3.220  0.3233 -0.4469 -0.1323
17902W        W34376  16.158   4.244  14.653 -0.0758  0.1678  0.0639
17903W        W34377   7.439  14.830   1.158 -0.0465  0.0612 -0.1952
17904W        W34378  12.005  17.038   4.053  0.6832 -0.1048 -0.3119
17905W        W34379  14.142  10.671  14.832 -0.2759 -0.2098 -0.2438
17906W        W34380  16.230  15.998  11.113 -0.0785 -0.1614  0.0367
17907W        W34381  11.261   1.873  15.338 -0.0288 -0.4305  0.0483
17908W        W34382   2.103   4.887   1.972 -0.0239 -0.0994  0.2798
17909W        W34383   2.698   4.191  11.400 -0.2679 -0.1996  0.0759
17910W        W34384   5.939   4.864   1.225 -0.2000  0.0383 -0.0886
17911W        W34385  15.848   3.834  14.529 -0.0315  0.1211  0.0887
17912W        W34386   6.306   5.945  14.563 -0.0653  0.1498 -0.3132
17913W        W34387  13.804   8.494  13.683  0.0136 -0.3117  0.0501
17914W        W34388   0.534   3.684   1.086 -0.1762 -0.3783  0.4720
17915W        W34389   9.951  10.091   4.382 -0.0472  0.3583  0.3327
17916W        W34390  10.961  18.850  12.780 -0.1538  0.0565 -0.1938
17917W        W34391   9.798  16.569   4.131 -0.1415  0.4442 -0.2200
17918W        W34392   1.892   3.966  13.632 -0.0343 -0.1287 -0.5604
17919W        W34393   2.386   7.377   1.754 -0.0552  0.1740 -0.2240
17920W        W34394   1.542  16.459   0.481  0.0428  0.1037  0.4207
17921W        W34395   0.514   5.236  12.503 -0.1709  0.1640  0.1876
17922W        W34396   4.376   4.929  13.993  0.2653  0.1408 -0.4105
17923W        W34397  18.726   7.897  11.212  0.0545 -0.1182  0.1821
17924W        W34398  11.490  12.691  14.115 -0.2222 -0.0596 -0.1105
17925W        W34399   8.887  13.346  12.622 -0.2862 -0.3784 -0.0829
17926W        W34400   2.686  12.815  12.889  0.1108  0.2542  0.0849
17927W        W34401  17.857  14.585  13.397 -0.1907 -0.0699 -0.1834
17928W        W34402   1.047   2.941  11.619 -0.1003  0.1403  0.2249
17929W        W34403   8.573   3.736  14.182  0.2062  0.2208 -0.1269
17930W        W34404  16.153   5.086  15.476  0.2571 -0.0395  0.0346
17931W        W34405  14.947  16.227   2.713 -0.1706  0.1927  0.1431
17932W        W34406  14.089   6.025   4.322 -0.0205  0.0467  0.1366
17933W        W34407   9.809   5.437  13.061  0.1892  0.2990  0.0496
17934W        W34408   8.268  12.595   4.300 -0.3104 -0.1395  0.1925
17935W        W34409   8.071   0.796  13.227  0.1082  0.0273  0.0553
17936W        W34410  17.119   4.727   0.684  0.1347 -0.2257  0.2856
17937W        W34411   0.116   9.896  11.101  0.1029  0.0785 -0.2332
17938W        W34412   6.319   6.613   1.010 -0.0626  0.1075 -0.1121
17939W        W34413  10.189   7.630  11.931 -0.2397 -0.0174 -0.1731
17940W        W34414  17.058  13.989   4.438  0.1469 -0.1590 -0.0258
17941W        W34415   6.166  13.296  15.474 -0.1883 -0.1722 -0.1017
17942W        W34416  10.604   8.753   3.641 -0.0069 -0.2809 -0.3353
17943W        W34417  14.261  17.047  15.689  0.2324 -0.3584  0.0158
17944W        W34418   0.054   8.743  15.084  0.2054  0.0980  0.0522
17945W        W34419   2.549   8.035  12.253  0.1184 -0.2234  0.1157
17946W        W34420  11.839   9.046   2.259 -0.0114  0.1212 -0.1366
17947W        W34421  18.385   5.304  15.136  0.0245  0.1768  0.0529
17948W        W34422   1.043   7.152  13.418 -0.3354 -0.3350  0.2504
17949W        W34423   5.876   8.312  11.193  0.0357 -0.0263 -0.2452
17950W        W34424   9.514   6.834  12.881  0.0157 -0.1940  0.1114
17951W        W34425  17.829  17.396  15.316  0.1437  0.1395 -0.0204
17952W        W34426   7.186   9.552   1.219  0.0513 -0.3854  0.0553
17953W        W34427   0.669   3.067   4.625  0.2062  0.1975 -0.1157
17954W        W34428   1.279  13.938   0.744  0.1350 -0.0559  0.0076
17955W        W34429  17.963   8.198  14.357 -0.0414  0.1778  0.0307
17956W        W34430   6.680  14.435  13.532 -0.0752 -0.2517  0.0253
17957W        W34431   5.239   7.463   5.800  0.2372 -0.2805  0.1201
17958W        W34432  13.786   8.042   0.354 -0.1166 -0.0226  0.2110
17959W        W34433  14.057  14.947  14.143  0.0971  0.2915 -0.2208
17960W        W34434  15.211  17.515  14.148  0.3322 -0.0175 -0.3458
17961W        W34435   4.043   0.682  13.588 -0.0796 -0.1610 -0.1290
17962W        W34436  15.896  17.436   0.539  0.1255 -0.0274 -0.0564
17963W        W34437   3.130  13.365   3.897  0.1395  0.0755 -0.2032
17964W        W34438   8.436  17.304   1.621  0.0516  0.0065  0.0439
17965W        W34439   2.534  17.167  12.386  0.1298 -0.0956 -0.1907
17966W        W34440   9.461   4.634   2.536 -0.0566  0.4960 -0.1878
17967W        W34441   6.797   0.102   4.938  0.2816  0.2119  0.0059
17968W        W34442   9.844  12.549   3.891 -0.2552  0.1291  0.0101
17969W        W34443  18.839  13.240  10.805  0.3629 -0.0743 -0.4153
17970W        W34444  17.302   9.033   0.149 -0.1592  0.0928 -0.0516
17971W        W34445  15.839  17.868   1.607  0.2805 -0.1392  0.1725
17972W        W34446  10.120  13.371   2.469 -0.5695 -0.0057 -0.0486
17973W        W34447  13.143   0.309   1.984  0.0429  0.0736 -0.3889
17974W        W34448   4.348  14.489   5.395  0.1448  0.4420  0.0417
17975W        W34449  14.871   8.597  11.830  0.1590 -0.1091 -0.0564
17976W        W34450  14.956   1.329  15.165 -0.1186  0.0809 -0.0249
17977W        W34451   6.842  13.226   0.140  0.0386 -0.1973  0.3534
17978W        W34452  10.224   2.074  12.152 -0.0840  0.1031  0.1197
17979W        W34453  17.666   1.639   3.675  0.0876  0.0158  0.2250
17980W        W34454   4.308  17.974  13.172 -0.1628 -0.0756 -0.0290
17981W        W34455   5.677   9.336   4.826 -0.2034  0.0063  0.4308
17982W        W34456  11.577   2.733   3.581 -0.1198 -0.4625  0.0217
17983W        W34457   8.818   2.516  11.877 -0.1090 -0.0762  0.2396
17984W        W34458  16.303   5.861   1.549 -0.2014 -0.1384  0.2757
17985W        W34459   0.100  15.602  13.800 -0.1852  0.0626  0.1303
17986W        W34460   2.019   0.807   1.788  0.2541 -0.1603 -0.3584
17987W        W34461  10.466   9.249   5.021 -0.1092  0.4413 -0.2280
17988W        W34462   0.122   6.782  14.243  0.3462 -0.0621 -0.3001
17989W        W34463  16.439  10.316  12.726  0.2338  0.0788 -0.0890
17990W        W34464  17.590   1.638   1.485 -0.1254 -0.0191  0.1292
17991W        W34465  11.426  13.732   2.432 -0.0481  0.3778 -0.0367
17992W        W34466   4.609  16.411  12.420  0.0991 -0.1532  0.0322
17993W        W34467   3.620  10.741   0.420 -0.0309 -0.2672  0.2341
17994W        W34468  10.340  11.751   5.181 -0.0120  0.1893 -0.1108
17995W        W34469  14.759  10.105  13.150  0.1727 -0.0076  0.1245
17996W        W34470  16.899  13.694  12.103 -0.2955 -0.0881  0.2617
17997W        W34471  15.878   5.672   1.799  0.0176  0.1279  0.0164
17998W        W34472  16.374   2.333  13.721 -0.1899 -0.2385  0.1517
17999W        W34473   5.306   5.897   0.739  0.0717  0.1311 -0.0112
18000W        W34474  18.522   1.477  11.684 -0.1432  0.0812 -0.1493
18001W        W34475  16.083  12.058   2.461  0.1768 -0.2016 -0.1377
18002W        W34476  18.437  14.879   4.757  0.1922  0.2488  0.3369
18003W        W34477  16.401  10.896  12.682  0.0500  0.2835  0.1784
18004W        W34478   6.866  16.479   5.473 -0.0224  0.0207  0.0810
18005W        W34479  12.868   3.397  10.179  0.2662 -0.1441  0.1228
18006W        W34480  12.819   5.268  12.371  0.2363 -0.1968 -0.1328
18007W        W34481   1.829  16.959   4.673  0.3382  0.0938 -0.0386
18008W        W34482  15.613   2.975  11.093  0.2652 -0.0584  0.1631
18009W        W34483  18.120   1.535   1.631  0.0148 -0.1649 -0.0538
18010W        W34484   2.298   5.453   3.508  0.5369 -0.0413 -0.0136
18011W        W34485  10.039   2.359   1.700 -0.2613  0.1452 -0.2099
18012W        W34486  10.508   3.125  13.749 -0.0426 -0.1792 -0.0416
18013W        W34487  15.690  12.478   3.751  0.3560  0.2106 -0.1542
18014W        W34488   8.688   5.315   1.776 -0.1231  0.0784 -0.0605
18015W        W34489  12.751   9.160   3.275  0.0489  0.2473 -0.1501
18016W        W34490   7.972  13.691   4.888  0.1635  0.0458 -0.3948
18017W        W34491  11.067  11.777  12.900  0.2046 -0.1851  0.4755
18018W        W34492   6.492   5.345  11.771  0.0581  0.0985  0.2401
18019W        W34493  17.485   3.172   1.248  0.0518 -0.0786 -0.1971
18020W        W34494  14.588  14.402  15.301  0.2053 -0.2197 -0.1036
18021W        W34495   8.836   4.831   1.895  0.1684  0.1868  0.1171
18022W        W34496  18.702   3.628   2.454  0.0346 -0.1959  0.0347
18023W        W34497  11.297   3.164   2.129 -0.0242  0.0167 -0.2161
18024W        W34498  10.445  14.097  12.730 -0.1849  0.0004 -0.1882
18025W        W34499   9.637   4.544   4.457 -0.3870  0.0642  0.0900
18026W        W34500  14.047   2.090  13.669 -0.2505  0.1120  0.1296
18027W        W34501   0.031  14.208  13.201  0.0998 -0.1720  0.1609
18028W        W34502  10.904   6.729  14.637 -0.0258  0.1464 -0.1070
18029W        W34503   9.213  16.754   3.655  0.3332 -0.2580  0.0588
18030W        W34504   7.032   1.407  15.623 -0.0284  0.3603 -0.3131
18031W        W34505   2.376  18.510   1.821  0.2112 -0.2614 -0.1900
18032W        W34506  12.369   8.406   0.255 -0.0430  0.1667 -0.2529
18033W        W34507   1.346  15.726   1.921 -0.0920 -0.0923 -0.2284
18034W        W34508   9.933  14.151  12.925 -0.1103  0.2740 -0.2250
18035W        W34509   9.905   3.425   3.273  0.0307 -0.0166 -0.5307
18036W        W34510  13.845  17.730   1.136  0.0781 -0.0258 -0.1910
18037W        W34511  18.053   6.168  12.803  0.0521 -0.1830  0.1962
18038W        W34512   6.518   1.954   3.716  0.0157  0.1800 -0.0987
18039W        W34513  18.528   0.246  11.039 -0.1154 -0.0598  0.2617
18040W        W34514  12.628   2.500   2.104 -0.1921 -0.0115  0.1305
18041W        W34515  15.764  16.594  13.291  0.2205  0.1616  0.0846
18042W        W34516   3.785  12.494   4.425  0.1943  0.0733  0.0010
18043W        W34517   6.980  16.129  14.970 -0.1326 -0.0585  0.1638
18044W        W34518   7.639   6.547   4.638 -0.0853 -0.0153 -0.2546
18045W        W34519   3.229  13.837   4.516  0.0475 -0.1712  0.0900
18046W        W34520  14.245  12.073   2.602 -0.0611  0.3601 -0.1271
18047W        W34521  17.804  15.932   0.094 -0.0467 -0.0584 -0.1496
18048W        W34522   7.483   8.474   3.743 -0.0977  0.1120  0.0309
18049W        W34523  14.028  13.875   4.835 -0.1988 -0.0288 -0.0099
18050W        W34524   9.972   9.657   4.096  0.3072  0.1438 -0.4105
18051W        W34525   3.708  11.730   5.172 -0.0081 -0.0419  0.2311
18052W        W34526  11.101   2.838  14.477  0.0871  0.1982 -0.0046
18053W        W34527   4.108   1.169   4.967 -0.0048  0.0463 -0.0510
18054W        W34528   6.936  14.571   4.114  0.1811 -0.1731  0.0164
18055W        W34529   6.857  15.674  15.041 -0.0630  0.0339 -0.1202
18056W        W34530   4.797   0.641  12.116 -0.2135 -0.0151  0.2778
18057W        W34531   0.328   4.003   0.725 -0.3345  0.1804 -0.0676
18058W        W34532  16.198   4.870  12.096  0.2012  0.1833 -0.0893
18059W        W34533   8.105  17.932   5.274 -0.0462 -0.1750 -0.3299
18060W        W34534   2.074   4.356   0.058  0.1755 -0.3189  0.2096
18061W        W34535  12.006   1.468   0.279  0.5729 -0.2946  0.1327
18062W        W34536   5.476   2.596  11.076 -0.1569  0.2705 -0.0790
18063W        W34537  15.188  18.544   4.284  0.0361 -0.2944  0.2045
18064W        W34538   7.377  10.648   1.998  0.1854 -0.1808 -0.1105
18065W        W34539  11.059  13.612   2.086  0.1259  0.0591 -0.0246
18066W        W34540  18.840   4.259  14.535  0.2553  0.0693 -0.2385
18067W        W34541  16.953   9.999   1.253 -0.0337  0.4048  0.0346
18068W        W34542   5.531  16.630  12.324 -0.0422 -0.1157  0.1766
18069W        W34543   6.806   4.373  13.876 -0.0975 -0.3067  0.2599
18070W        W34544   0.834   6.901   5.295 -0.0639 -0.1352  0.0797
18071W        W34545   4.975   7.055  15.380  0.1341  0.1335  0.2610
18072W        W34546  13.903  13.255  13.231 -0.1904  0.0255 -0.2628
18073W        W34547   5.398   3.205  12.423 -0.0988 -0.2718  0.5206
18074W        W34548   9.572   2.174   0.806  0.1630 -0.2964  0.1957
18075W        W34549   6.681  18.555  15.492  0.0204 -0.0734  0.2028
18076W        W34550  10.042  17.224  14.610 -0.1949  0.1338  0.2373
18077W        W34551   8.116   5.942  13.329  0.3653 -0.1285 -0.0088
18078W        W34552  16.647  15.497  11.733  0.1890 -0.0402 -0.0866
18079W        W34553   1.364   1.393   0.059  0.2651  0.0385 -0.3839
18080W        W34554   4.844  16.660  13.269  0.2069 -0.0977 -0.0415
18081W        W34555  10.791   7.058  13.102 -0.3140  0.1080 -0.1451
18082W        W34556   5.039   2.733  12.592 -0.2256  0.0836 -0.1428
18083W        W34557   5.982   2.807   3.186  0.0222  0.1580 -0.2731
18084W        W34558  17.765  11.234   2.694 -0.0312  0.3081 -0.1532
18085W        W34559   5.235   6.436   0.378 -0.1150  0.0620  0.0193
18086W        W34560   3.353  17.107  12.037 -0.2813 -0.2567 -0.2282
18087W        W34561  13.936   4.974   3.346  0.1621  0.2507 -0.0638
18088W        W34562   6.868  18.151   4.943  0.1266  0.0952  0.2529
18089W        W34563  16.539   5.356   4.628 -0.0532 -0.2156  0.1404
18090W        W34564   8.055  18.228   4.878  0.0685 -0.1480 -0.0291
18091W        W34565   0.955   5.979   3.409  0.1053  0.2374  0.0627
18092W        W34566  10.155   3.924  14.334 -0.1209 -0.1709 -0.0518
18093W        W34567   7.759   1.406  14.849 -0.1341  0.0245 -0.1160
18094W        W34568   7.800  11.211   5.518 -0.0261 -0.3157  0.0189
18095W        W34569  17.377   1.803   0.136  0.0613 -0.1511  0.1551
18096W        W34570  10.005   9.994  11.281 -0.1192 -0.3830  0.3715
18097W        W34571  18.826   9.559   3.409  0.4714 -0.2593 -0.0527
18098W        W34572  10.040  18.291   0.191 -0.0878  0.0833 -0.1115
18099W        W34573   1.969   0.933   0.809 -0.0454  0.2313  0.0259
18100W        W34574   4.188  12.796   1.188  0.0867 -0.2172  0.1199
18101W        W34575   4.547   1.000  11.903  0.0186 -0.2632 -0.0763
18102W        W34576  15.189  11.663   0.514 -0.0007  0.2344  0.2923
18103W        W34577  12.827   0.307   1.531 -0.4183  0.1070  0.1437
18104W        W34578   7.930   3.581  13.146  0.3383 -0.2365 -0.0915
18105W        W34579   6.009   2.318   2.617 -0.2768  0.3407  0.2789
18106W        W34580   2.770  15.522   1.295 -0.2569 -0.1796 -0.2843
18107W        W34581   0.645   4.949  14.250 -0.3354  0.1414  0.0620
18108W        W34582   7.927  10.800   0.601 -0.3298 -0.1452  0.0575
18109W        W34583   3.103  12.975   4.858  0.0387  0.0337  0.2873
18110W        W34584  11.483   1.326   2.960  0.0877  0.2656  0.2204
18111W        W34585  15.560  13.438   0.207 -0.0157  0.0924  0.1689
18112W        W34586  14.504   8.541   2.762 -0.0185  0.1048 -0.0109
18113W        W34587  11.832  17.064   2.765  0.1962 -0.2744 -0.1216
18114W        W34588   5.553   5.025  14.342  0.2180  0.5305  0.0880
18115W        W34589   8.846  12.039  10.923  0.1540  0.0014 -0.0312
18116W        W34590   2.217   6.064   1.187  0.2457  0.0546 -0.1932
18117W        W34591   8.622   5.778   1.612 -0.4591  0.0672  0.1703
18118W        W34592   5.464   1.660   1.411  0.2827  0.0384  0.0588
18119W        W34593   7.615  16.572  14.640 -0.1823  0.1983  0.0666
18120W        W34594  18.189   4.906   5.357 -0.2259 -0.2121  0.0259
18121W        W34595   4.821  11.824   2.659 -0.2345  0.0957  0.0218
18122W        W34596  12.231   9.712  14.467 -0.0079 -0.5059  0.0504
18123W        W34597   2.344  14.593   5.514 -0.0260  0.2087 -0.1116
18124W        W34598  14.688   1.442   4.425  0.0531  0.1842  0.2643
18125W        W34599   7.204   3.830   5.491 -0.0188 -0.3222 -0.0088
18126W        W34600  16.718  11.362  14.674 -0.3678 -0.1077  0.4409
18127W        W34601  13.586  10.588  14.738 -0.0242 -0.0801  0.1404
18128W        W34602  13.774  11.419  12.131 -0.3817  0.0908  0.2624
18129W        W34603   6.167   2.733  11.281 -0.0996  0.2557  0.0454
18130W        W34604   4.253  11.719   1.401  0.0940 -0.0674 -0.1147
18131W        W34605   0.819   9.713   0.715  0.1427 -0.1362  0.1188
18132W        W34606   9.479  16.366   4.405  0.2803  0.1978 -0.1543
18133W        W34607   6.788   5.190  12.141  0.3499  0.0957 -0.2531
18134W        W34608  18.406   9.016   4.529 -0.1462  0.0350 -0.1173
18135W        W34609  17.598   9.298  10.880 -0.2516  0.0837 -0.2660
18136W        W34610   7.627  11.140   4.634  0.0168 -0.1732 -0.2238
18137W        W34611  13.100  14.927   3.614 -0.3489 -0.2350 -0.0347
18138W        W34612  16.846   8.916   2.398  0.0765  0.1502  0.0424
18139W        W34613  16.151   2.876   2.594  0.2962 -0.1135  0.4101
18140W        W34614   4.399  14.059   3.831 -0.0596 -0.1486 -0.2472
18141W        W34615   2.806  18.716   4.123 -0.1369 -0.1413 -0.1385
18142W        W34616   7.434   8.503  14.100  0.0305  0.1847  0.0916
18143W        W34617  14.349   5.726  14.648  0.3802  0.0829  0.0640
18144W        W34618   3.014  17.036   1.983  0.5473  0.3729 -0.1041
18145W        W34619   3.171  14.376   3.514  0.2318 -0.0404 -0.0864
18146W        W34620   4.567  10.327   1.704 -0.0406  0.3336  0.1476
18147W        W34621  10.662   0.607   0.459  0.2062 -0.0728 -0.1178
18148W        W34622   7.120   8.314   4.079 -0.3430 -0.0844 -0.0248
18149W        W34623  13.172  11.671  15.579 -0.3886  0.1463 -0.0595
18150W        W34624   6.090   1.418   0.213 -0.2758 -0.0584  0.0270
18151W        W34625   2.957  14.203  10.595  0.0484 -0.0251  0.2638
18152W        W34626   6.933  10.896  14.289 -0.0679 -0.1644 -0.2451
18153W        W34627   4.866  16.654  14.494  0.1123 -0.4593  0.0797
18154W        W34628   2.915   0.791   4.523  0.2085 -0.1503 -0.0145
18155W        W34629   3.216   4.056  14.039 -0.0662 -0.2342 -0.0026
18156W        W34630  12.190   2.194   5.885 -0.1852 -0.0032  0.0356
18157W        W34631  15.895  10.701  11.767  0.0740 -0.1827 -0.3845
18158W        W34632  10.836   5.352  13.127  0.0132 -0.1195  0.2642
18159W        W34633  15.677   6.294  11.528  0.2218  0.0290  0.1563
18160W        W34634   0.775   2.228  10.425 -0.0267 -0.2222 -0.1524
18161W        W34635   7.690   4.002   2.707 -0.0132 -0.0698  0.1126
18162W        W34636  16.939  14.019  14.311 -0.0859  0.3212 -0.1009
18163W        W34637  16.085  10.216   0.895  0.0325  0.3574  0.1376
18164W        W34638   8.195   4.536  14.183  0.0773 -0.0364  0.1178
18165W        W34639  12.594   3.173   4.268 -0.0983  0.2433  0.3099
18166W        W34640  15.793   4.976   4.056  0.1082  0.2671 -0.0029
18167W        W34641   5.790   5.758   4.429 -0.2996  0.0402  0.0401
18168W        W34642   7.979   8.940   1.660 -0.4256  0.0014  0.0610
18169W        W34643   6.825   8.655   3.843  0.0564 -0.0425  0.2004
18170W        W34644   1.776   6.100   5.150 -0.0701  0.3084 -0.0234
18171W        W34645  12.171   9.134  13.073 -0.2190 -0.0868  0.2220
18172W        W34646  17.576  18.724   5.062  0.4731  0.2145  0.2464
18173W        W34647  16.926  16.640   1.041 -0.2486  0.1285 -0.1045
18174W        W34648   3.448  16.187  12.510  0.2059  0.2603 -0.0672
18175W        W34649  16.206  10.278  10.312  0.0752  0.1894 -0.0712
18176W        W34650   0.962   8.053  11.137 -0.1076  0.1321 -0.0496
18177W        W34651   8.744  15.520  11.927  0.1894 -0.0370 -0.2098
18178W        W34652   5.587  14.053   3.818  0.0811  0.0744 -0.0087
18179W        W34653  12.403   2.627  13.738  0.3938  0.0819 -0.0526
18180W        W34654  14.729  13.169  11.560  0.0146  0.1094  0.0718
18181W        W34655   5.142  10.597   1.621 -0.2050 -0.1561  0.0295
18182W        W34656   1.972  18.762  12.510  0.2604 -0.0139 -0.0774
18183W        W34657  15.250  18.747  14.464 -0.3958  0.0514 -0.0152
18184W        W34658   9.862  13.764  11.862  0.0178 -0.2703  0.3099
18185W        W34659  11.544  17.965  14.278 -0.1536 -0.1158  0.0992
18186W        W34660   2.900  10.835   4.257  0.1737 -0.0245 -0.0576
18187W        W34661   5.640  11.885  13.912 -0.0696  0.5080 -0.0030
18188W        W34662   4.394  14.210   0.556  0.0570 -0.0834  0.0469
18189W        W34663   2.750   2.423  14.233  0.0316  0.1524  0.1311
18190W        W34664  13.203  13.675   3.148 -0.0889  0.1290  0.0265
18191W        W34665   7.584   2.616   4.706 -0.0753  0.1202  0.1285
18192W        W34666  14.903   2.383   5.250  0.3407  0.0282 -0.0128
18193W        W34667  16.784  18.305   3.560  0.2891  0.0172 -0.0700
18194W        W34668   0.909   6.917  11.679 -0.0877 -0.1887  0.1244
18195W        W34669  10.897  17.413  15.250 -0.0028 -0.2854  0.2179
18196W        W34670  10.529  17.885   0.140 -0.0954  0.3133  0.0860
18197W        W34671   2.470  11.520   0.335 -0.0646  0.2274  0.3233
18198W        W34672  18.846   1.278  12.004  0.0909 -0.0998 -0.3098
18199W        W34673   5.248   5.605   3.850  0.1923 -0.0418 -0.2772
18200W        W34674  16.899  14.517  10.556 -0.1687  0.3599 -0.1743
18201W        W34675   4.971  16.496   0.424  0.0033 -0.1725 -0.1109
18202W        W34676  16.342   5.460  11.874 -0.4762 -0.0854  0.0403
18203W        W34677   8.734  17.730   4.016  0.0747  0.0252 -0.2331
18204W        W34678   6.743   6.779  11.860 -0.1984 -0.0112  0.1498
18205W        W34679   5.538  14.539   0.620  0.3789 -0.0524  0.0116
18206W        W34680   8.160   0.220   0.959 -0.0409 -0.0425  0.1921
18207W        W34681   8.879  15.748   3.271  0.2068 -0.1251 -0.0374
18208W        W34682   6.995   4.910  13.721 -0.2877 -0.1487  0.3052
18209W        W34683  12.589   3.480  14.834 -0.1052 -0.0315 -0.0120
18210W        W34684   0.870  12.422   1.009  0.0230 -0.2277 -0.0544
18211W        W34685   5.147   6.435  13.484  0.1043  0.1600  0.1923
18212W        W34686   5.857   7.704  12.768  0.0624 -0.0131  0.0113
18213W        W34687   4.394  18.081   2.233  0.0639 -0.0203 -0.2099
18214W        W34688   2.041   9.501   2.991 -0.2012 -0.3690 -0.3227
18215W        W34689   2.108   1.806   1.688  0.0782 -0.1675 -0.1228
18216W        W34690  10.969  14.267  12.092  0.3328  0.0140 -0.2892
18217W        W34691  15.707   2.966   3.413 -0.1996 -0.0768  0.1921
18218W        W34692  13.136   3.295   2.382 -0.1777 -0.1244 -0.2926
18219W        W34693  13.137   7.787   2.122  0.0181 -0.0653 -0.0345
18220W        W34694   9.830  15.186   5.663 -0.2367  0.0579  0.0077
18221W        W34695  12.015  12.324   2.249  0.0782 -0.0672  0.0487
18222W        W34696   5.593   1.101   4.721 -0.2663 -0.2215 -0.2194
18223W        W34697   1.382   0.133   4.759 -0.2645  0.3014 -0.0243
18224W        W34698   6.347  17.583  14.923  0.0741 -0.0075 -0.1296
18225W        W34699  12.052  10.064  13.663  0.2320  0.1727  0.2187
18226W        W34700   0.274   4.274  13.385  0.0434 -0.3653 -0.3541
18227W        W34701   2.440   4.439   4.010 -0.0968  0.0642  0.1045
18228W        W34702   5.899   2.785   1.289 -0.1203 -0.1898  0.3709
18229W        W34703  14.544   1.302   1.654  0.0361 -0.1537  0.0723
18230W        W34704   9.248  13.111   2.838 -0.0003 -0.4012 -0.0410
18231W        W34705  10.868  14.894   0.209 -0.1798  0.0604  0.1526
18232W        W34706  16.165   8.639  11.552 -0.1681 -0.2867 -0.1931
18233W        W34707  15.877   6.988   5.199 -0.3674  0.1676 -0.0777
18234W        W34708  16.864   1.669   0.075 -0.1258 -0.0007 -0.3990
18235W        W34709   8.027  13.547   3.477 -0.0375 -0.0116  0.2208
18236W        W34710   8.808  16.820   2.167 -0.1543  0.1981  0.0360
18237W        W34711   3.751   7.420  14.153  0.1990  0.2195  0.1476
18238W        W34712  16.617  13.203  12.159  0.0706 -0.4330  0.2722
18239W        W34713  15.384  18.350  10.329  0.0677  0.2943  0.3473
18240W        W34714  14.813  14.001   2.136 -0.1805  0.0916  0.1124
18241W        W34715   7.896   6.795  11.717 -0.1639 -0.0539  0.1824
18242W        W34716  14.749  14.493   1.795  0.0501 -0.3216 -0.0044
18243W        W34717  11.883   0.585   0.129  0.0955 -0.2099  0.1248
18244W        W34718   7.343   5.192  14.152 -0.1736 -0.0176  0.0220
18245W        W34719   0.506  12.237   0.678 -0.0697 -0.0524 -0.0116
18246W        W34720   5.892  16.332   3.320  0.3874  0.1675  0.2820
18247W        W34721  16.689   1.105   1.902  0.3442  0.1128 -0.2231
18248W        W34722   5.535   1.498  12.892 -0.0218  0.3657  0.1507
18249W        W34723   7.594   1.677   4.295  0.1260  0.0816  0.4360
18250W        W34724   9.068   5.664   0.934  0.0342  0.2241 -0.1515
18251W        W34725   8.225  17.398  14.804  0.0261 -0.1442  0.1496
18252W        W34726   1.821   7.691  15.456 -0.3239 -0.1193  0.0615
18253W        W34727  18.052  14.405  15.609 -0.1426 -0.0673  0.3012
18254W        W34728   7.508  11.729   4.648  0.4286 -0.0834 -0.0976
18255W        W34729   9.645  18.590  15.489 -0.1378 -0.0361 -0.2276
18256W        W34730  10.211   2.479  12.849 -0.1258 -0.0750  0.2165
18257W        W34731  10.952  18.642  11.476 -0.0982  0.1243 -0.1545
18258W        W34732  11.497   6.388   5.422 -0.2919  0.3351 -0.0748
18259W        W34733   8.418   2.216  11.501 -0.0705 -0.0466 -0.3641
18260W        W34734   3.468   7.201   4.992 -0.1248 -0.1524 -0.0258
18261W        W34735  16.216   4.668  14.358 -0.2823  0.0287 -0.0300
18262W        W34736   7.301  11.894  14.168 -0.3143 -0.0933 -0.2027
18263W        W34737   6.885   0.463   0.417 -0.1781 -0.0323 -0.2071
18264W        W34738   8.966   1.478   3.618 -0.1405  0.1159  0.1303
18265W        W34739  13.805  15.230  12.694  0.0283  0.0721  0.1482
18266W        W34740   0.888  16.371   1.216 -0.0399 -0.0111  0.0183
18267W        W34741   8.848  10.281   0.309 -0.1844 -0.1224  0.0958
18268W        W34742   1.730  10.521  14.995  0.2223 -0.0475  0.1347
18269W        W34743  11.217  16.012   0.722 -0.1051 -0.2558 -0.5493
18270W        W34744  12.439  16.679  11.161  0.1355 -0.0651 -0.1577
18271W        W34745   0.452  15.680   0.480 -0.0171  0.0435  0.0363
18272W        W34746   9.408   5.085  13.226  0.3886 -0.3868  0.0104
18273W        W34747  10.049   3.903  11.735 -0.3799  0.1575  0.0258
18274W        W34748   7.324  11.797   0.514  0.1295  0.0135 -0.3858
18275W        W34749  15.873   5.047   2.773 -0.2371  0.0714 -0.0272
18276W        W34750  15.767   4.613  14.500 -0.1979  0.2057  0.0383
18277W        W34751  13.847   9.153  12.749 -0.1631  0.0129  0.0877
18278W        W34752  18.388   2.635  14.509 -0.2273  0.1046 -0.0961
18279W        W34753  14.489  15.567  12.786  0.1088  0.0179  0.0255
18280W        W34754  17.483  15.727  14.838 -0.0254  0.0460 -0.0938
18281W        W34755  10.545   2.361  11.846  0.3740 -0.0288 -0.0358
18282W        W34756   0.265  15.540  11.041 -0.2412 -0.0790  0.0999
18283W        W34757  18.452   6.909  13.061  0.3018  0.0161 -0.1883
18284W        W34758   3.418  13.319  14.509  0.1992 -0.0383 -0.1067
18285W        W34759   6.004   4.805  11.254 -0.0346  0.1114 -0.3117
18286W        W34760  16.577   2.960   3.003  0.1875  0.1245  0.0621
18287W        W34761  14.751   8.790   0.242 -0.0026 -0.2006  0.1137
18288W        W34762   2.480   5.580  13.358  0.0542 -0.0144  0.2395
18289W        W34763   8.744   7.827  13.026  0.2380 -0.0135 -0.0588
18290W        W34764   9.428   1.326   3.752  0.0356 -0.1784 -0.0816
18291W        W34765   0.142   6.273  14.473 -0.0511 -0.1103  0.3960
18292W        W34766  11.735  18.360   1.155  0.3265 -0.1956  0.3174
18293W        W34767   7.592  10.481   0.957 -0.0103  0.2539 -0.0043
18294W        W34768  18.646   5.128   5.540 -0.1723  0.1683  0.1097
18295W        W34769   3.042  14.090   5.736 -0.1217 -0.2922 -0.0744
18296W        W34770  14.240  17.048  12.577 -0.0436 -0.0676 -0.0747
18297W        W34771  18.589   7.032   0.613 -0.0987 -0.0695 -0.0868
18298W        W34772   4.118  18.636   2.084 -0.2961  0.0450 -0.2664
18299W        W34773   6.386   3.915  12.689 -0.0495 -0.0505  0.2806
18300W        W34774   4.586  11.998  14.307  0.1538  0.1147 -0.0816
18301W        W34775  18.001   8.424   0.888 -0.0561 -0.1848  0.0570
18302W        W34776  18.573  18.787   9.893 -0.1418  0.3024 -0.1738
18303W        W34777  16.388   2.066  13.068  0.0135 -0.1286  0.2540
18304W        W34778  11.628  16.331  11.381 -0.1497 -0.0581  0.1978
18305W        W34779   1.189   4.351  11.565  0.0076  0.0535  0.0678
18306W        W34780   7.279  15.031  11.633 -0.0951  0.0714  0.3101
18307W        W34781   3.220  18.563  11.850  0.2431  0.0570 -0.2045
18308W        W34782   9.877   1.465   1.216 -0.0026 -0.1341 -0.0932
18309W        W34783  10.961   1.879   3.372  0.1597  0.0224 -0.1306
18310W        W34784   1.936   8.101   3.848  0.2073  0.1136 -0.0243
18311W        W34785  18.496   0.775   3.337 -0.0046 -0.0204 -0.3553
18312W        W34786   4.591  14.690   1.801  0.0800  0.1852 -0.1220
18313W        W34787  16.884  14.780   0.021  0.1062 -0.0963  0.1088
18314W        W34788  10.903   4.200   6.328 -0.4072 -0.3010 -0.1120
18315W        W34789  18.608  11.709   2.452  0.0718 -0.2062  0.0779
18316W        W34790  10.245   2.045  11.586  0.0956  0.2709 -0.1797
18317W        W34791  12.069  13.869   4.107 -0.2940 -0.0703  0.0482
18318W        W34792  17.408   9.401  13.978 -0.3860 -0.0423  0.0308
18319W        W34793  16.910   3.323  12.206 -0.3065 -0.1100  0.2525
18320W        W34794  18.785   5.787  12.401  0.2800 -0.0233  0.1427
18321W        W34795   5.514   7.536   0.898  0.0255  0.1544 -0.0134
18322W        W34796   0.883  17.695   2.059 -0.1736  0.0248  0.0624
18323W        W34797   7.921  12.847   1.366 -0.0468 -0.1381 -0.0881
18324W        W34798  17.284  18.433   9.547 -0.1394  0.1251  0.2857
18325W        W34799   3.198   4.834  13.465  0.0383  0.0080 -0.2514
18326W        W34800   5.772  11.420  14.099  0.0321  0.1837 -0.6228
18327W        W34801  16.104  14.596  11.981  0.2802  0.2414  0.1393
18328W        W34802  16.240  17.648   1.859 -0.1174  0.1706  0.1172
18329W        W34803   8.870  13.757  14.864 -0.2465 -0.2103 -0.1786
18330W        W34804  16.235  11.431   5.855  0.2228  0.2013  0.2278
18331W        W34805   5.991   1.685   4.397  0.0626 -0.1425 -0.0814
18332W        W34806   9.068  13.429  11.552  0.0888 -0.0231  0.1787
18333W        W34807  17.833  14.873   0.056  0.1385 -0.0021 -0.1802
18334W        W34808  18.231   3.229  15.207 -0.1303  0.1170 -0.0660
18335W        W34809  13.074  17.267  12.810 -0.0923  0.1743  0.0951
18336W        W34810   7.550  12.668   4.792 -0.1902 -0.1120 -0.2117
18337W        W34811   1.993   5.260   0.021 -0.3413  0.1987  0.0324
18338W        W34812   0.160   8.568   2.642 -0.2919 -0.2217  0.0710
18339W        W34813  10.975  10.306  14.735  0.0143 -0.0658 -0.0644
18340W        W34814  14.031  15.661   3.755  0.0939  0.0649  0.4351
18341W        W34815   6.340  13.474   5.455  0.6081  0.1928 -0.0325
18342W        W34816   9.169  17.114  10.413  0.0870 -0.0772  0.3785
18343W        W34817  13.218  16.047   0.583  0.3724  0.1460  0.0965
18344W        W34818  13.175  15.106  13.286 -0.1271  0.2078  0.2497
18345W        W34819   4.895   0.145   0.637 -0.0031  0.0386  0.2868
18346W        W34820   7.753   0.673   6.191 -0.0199 -0.2271  0.0337
18347W        W34821   6.113  16.287  12.274 -0.0396 -0.3773 -0.2439
18348W        W34822   5.182   2.397   1.292  0.1322  0.2185  0.1856
18349W        W34823   9.211   8.902  11.714  0.0554  0.0013 -0.0465
18350W        W34824   1.368  12.703   6.272  0.0649 -0.2233  0.0563
18351W        W34825  18.079  17.939   2.022  0.0560 -0.1027 -0.1441
18352W        W34826  15.726   1.884  14.175  0.0804 -0.1877  0.1818
18353W        W34827  10.412  11.995   4.380 -0.1832  0.2545 -0.2173
18354W        W34828  13.911  13.690  13.463 -0.0881  0.1589 -0.0093
18355W        W34829   0.466  14.879  14.952 -0.2680  0.2970 -0.1286
18356W        W34830   2.639   9.941  12.113  0.1926  0.3060  0.0530
18357W        W34831  17.022   0.491  12.150  0.3142 -0.1761 -0.3114
18358W        W34832  14.321  10.240   3.415  0.1902 -0.0158 -0.0518
18359W        W34833   1.805  18.159   3.319  0.0513 -0.0496  0.2166
18360W        W34834   9.789  18.648  11.838 -0.1075  0.1759  0.3794
18361W        W34835  14.991   6.968   4.187  0.1616  0.1126  0.2075
18362W        W34836  13.874  13.189   5.921  0.3203  0.0260  0.1561
18363W        W34837   2.001   4.223   4.762  0.3774 -0.1689 -0.1634
18364W        W34838  18.280   9.149   2.202  0.0043 -0.0209  0.0892
18365W        W34839   0.323  17.031   4.308  0.0650  0.1880 -0.0077
18366W        W34840  14.160   3.747  14.603  0.1116 -0.0293  0.0984
18367W        W34841   8.563  13.293  11.757  0.1347  0.0569 -0.1205
18368W        W34842   0.401   6.944  15.483 -0.0273 -0.0489  0.0243
18369W        W34843  10.309   6.134  12.076  0.0055 -0.0397  0.0523
18370W        W34844   8.005  18.483   1.051 -0.2386 -0.0787  0.1352
18371W        W34845  14.801   1.045   4.118 -0.1466  0.1930  0.2778
18372W        W34846   8.112   7.810   6.071  0.1093  0.2329  0.2509
18373W        W34847   7.159  12.461  11.250  0.0710  0.0052  0.2763
18374W        W34848  18.251  18.364  12.918  0.0792  0.1986 -0.2113
18375W        W34849   6.033   2.847  13.463  0.2381 -0.0878  0.2811
18376W        W34850   7.100  12.182   5.385  0.3755  0.2195 -0.1348
18377W        W34851  18.641   7.744  14.564 -0.1262  0.1565 -0.1659
18378W        W34852  15.772  16.886   3.132  0.0175 -0.1362 -0.2392
18379W        W34853  18.126  15.228  15.550  0.0598  0.3944  0.0112
18380W        W34854  15.936   5.730  14.128 -0.2992 -0.2287  0.0987
18381W        W34855  12.368  12.851   5.793 -0.0881  0.0433  0.4673
18382W        W34856   5.644  11.263   4.481 -0.0109  0.0301  0.2190
18383W        W34857  15.792   5.331  11.596  0.3057 -0.1562  0.3297
18384W        W34858   3.733  15.858   2.442  0.1270 -0.1217 -0.2181
18385W        W34859   1.689  17.160   0.836  0.3933 -0.1104  0.0737
18386W        W34860  14.385   4.694  15.014 -0.2507 -0.0500  0.1681
18387W        W34861  12.622   3.380  11.240 -0.2031 -0.0205  0.2147
18388W        W34862   4.921  11.121  13.717 -0.1905 -0.1207 -0.1677
18389W        W34863  14.057  16.181   2.498  0.1516  0.1736 -0.2319
18390W        W34864  11.314  15.442  12.259 -0.3428  0.1227 -0.5484
18391W        W34865  10.694  17.280  12.485 -0.0752 -0.2138  0.2979
18392W        W34866  13.510   6.134   1.549  0.2178  0.1175 -0.0277
18393W        W34867  18.191  10.016   0.517 -0.0123  0.3477 -0.4529
18394W        W34868   5.914   8.666   4.866  0.1145 -0.1870 -0.0434
18395W        W34869   2.865   6.415   2.003 -0.1420 -0.3379  0.1460
18396W        W34870   2.675   9.701   9.516  0.0180  0.1025 -0.2924
18397W        W34871   0.160   0.951  10.605 -0.0246  0.2421 -0.1113
18398W        W34872   7.325  17.232   0.181 -0.3649  0.1632  0.3005
18399W        W34873  13.251   4.368  13.334  0.0610 -0.1405 -0.0554
18400W        W34874   5.386   3.935  11.132  0.4477  0.0012  0.2338
18401W        W34875  16.938  16.049  12.254  0.0715  0.0999  0.1923
18402W        W34876  12.968  10.067  15.355  0.1793 -0.0638  0.0846
18403W        W34877   4.164  14.783   4.464  0.2398  0.0946  0.1484
18404W        W34878   1.795   5.522   5.179 -0.1182  0.0622 -0.1484
18405W        W34879  16.137   4.514  15.323  0.0961 -0.4627  0.2343
18406W        W34880  12.984   5.061   2.069 -0.0982  0.0967  0.1134
18407W        W34881   5.377   7.684  12.101 -0.1271  0.0176  0.4159
18408W        W34882   2.089   1.523  15.423  0.0521  0.0551  0.0586
18409W        W34883  10.106   3.165  14.798 -0.0023 -0.0497 -0.0238
18410W        W34884  15.188   7.346  12.381  0.1012  0.2319  0.0006
18411W        W34885   3.959   4.326  15.417 -0.1556  0.1247  0.3723
18412W        W34886  13.256  11.767   0.366 -0.0770  0.0673 -0.0268
18413W        W34887   9.520   0.944  14.719  0.1142 -0.3062  0.0577
18414W        W34888  17.912  10.781   1.859 -0.3477  0.0291 -0.0171
18415W        W34889   5.526   1.718  15.143 -0.0371  0.0673  0.1933
18416W        W34890   0.051  16.898  10.938 -0.2157  0.0377 -0.0942
18417W        W34891  18.610   9.256   0.970  0.2297  0.1534 -0.0005
18418W        W34892   0.344   1.788  13.309  0.0592 -0.0724 -0.1036
18419W        W34893   0.547  17.860   4.508  0.1812  0.5794 -0.2679
18420W        W34894   7.642  10.840   2.864  0.0779 -0.0650 -0.1883
18421W        W34895  16.076   6.310  14.713  0.0732  0.0218 -0.2961
18422W        W34896  17.345   0.380  13.602 -0.0233 -0.0819  0.0141
18423W        W34897  15.061   3.424   1.224  0.1759 -0.2084 -0.3989
18424W        W34898   1.033   5.845   4.523 -0.0763  0.3022 -0.2450
18425W        W34899   4.578  18.073   2.786  0.0743  0.0173 -0.2008
18426W        W34900  12.670   2.872   2.990  0.1772  0.1664 -0.1478
18427W        W34901  18.440  12.152   4.791 -0.1535 -0.2294  0.0597
18428W        W34902  17.149   3.192   1.896  0.2712  0.1138  0.1928
18429W        W34903  15.809   4.364  11.474  0.1880  0.0342 -0.1439
18430W        W34904  17.035   8.848   2.875 -0.0890 -0.0179  0.1768
18431W        W34905  10.772   0.896  11.677  0.0810 -0.0812 -0.1085
18432W        W34906   7.468   7.909  15.071  0.1272  0.0890  0.2425
18433W        W34907  14.895   1.583   1.977 -0.1612 -0.0034 -0.0736
18434W        W34908  10.812   9.500   5.420  0.1556  0.1112 -0.5689
18435W        W34909   8.594   9.675  14.528 -0.2240 -0.1636  0.1196
18436W        W34910  12.052   0.057   1.969  0.3886  0.1315 -0.0842
18437W        W34911   1.521   9.189  15.145 -0.1736 -0.2587 -0.2144
18438W        W34912  14.987  14.830   2.100 -0.2669 -0.0536 -0.1809
18439W        W34913   5.547   3.798   5.408 -0.1073  0.3331  0.1345
18440W        W34914  10.292   8.409   4.856  0.0433 -0.2106 -0.0084
18441W        W34915   6.594   1.989  13.477 -0.2218 -0.2645  0.1651
18442W        W34916  13.150  11.028  14.031  0.0697  0.0252 -0.2173
18443W        W34917   2.414   6.024  14.747  0.2623 -0.0414  0.3192
18444W        W34918  12.758   1.172   5.526 -0.4319  0.2367 -0.0471
18445W        W34919  15.595   4.576   2.648  0.0825  0.2079 -0.0228
18446W        W34920   9.560   9.541  13.946 -0.1410  0.2785  0.1204
18447W        W34921  15.073   3.043   3.082 -0.0781  0.1050  0.2808
18448W        W34922   5.629  10.773   4.346  0.1618 -0.0285 -0.1769
18449W        W34923  13.689  17.074  10.846 -0.1340  0.1964 -0.1063
18450W        W34924  18.486  18.614  11.173  0.2177  0.5495 -0.3500
18451W        W34925  15.383   1.145   4.390 -0.2663  0.4815  0.3009
18452W        W34926   1.575  15.869   4.865 -0.2109 -0.3753 -0.0044
18453W        W34927  14.053  12.900   1.154  0.1352 -0.1008  0.2537
18454W        W34928   7.214   3.072  14.300 -0.0268  0.1829  0.3288
18455W        W34929   5.975   3.640  14.459 -0.1456 -0.0709  0.0967
18456W        W34930  15.305   7.603  14.212 -0.2425 -0.2468  0.1361
18457W        W34931  18.570   4.850  11.509  0.1209 -0.0155 -0.0668
18458W        W34932   5.919   3.116   0.840  0.0876 -0.0530  0.3127
18459W        W34933  14.247   4.048  10.348  0.1537 -0.1960  0.1795
18460W        W34934  14.562  11.984   0.973  0.1182 -0.2132 -0.0749
18461W        W34935  14.600   5.338   3.766  0.1947  0.3009 -0.0981
18462W        W34936   4.253  16.406   1.737 -0.2262  0.0304  0.1582
18463W        W34937   8.918   3.549  11.400 -0.1046 -0.0450  0.1850
18464W        W34938  13.158   2.662  14.834  0.0278  0.4202 -0.0957
18465W        W34939   1.822   4.202   2.759 -0.2143  0.0531 -0.0423
18466W        W34940   0.908  11.025   0.292  0.1238 -0.2402 -0.0228
18467W        W34941  14.790  14.226  12.516 -0.2479 -0.1253  0.0692
18468W        W34942   0.688   3.346   2.552 -0.0891 -0.2565  0.1530
18469W        W34943  14.046   8.061   0.828  0.5628 -0.1256 -0.0498
18470W        W34944   2.378  12.244  12.605 -0.1077 -0.1683 -0.0955
18471W        W34945   7.578  17.102   5.561  0.0426  0.1541 -0.1947
18472W        W34946   9.152   2.304   1.073  0.0955  0.2379  0.1088
18473W        W34947  16.335  18.431   1.103 -0.0864  0.2102 -0.0240
18474W        W34948  13.134  10.939   3.163 -0.0302 -0.2044 -0.0336
18475W        W34949  18.553   4.825   3.017  0.0308 -0.0214 -0.3400
18476W        W34950  10.428   5.752   4.290  0.1562 -0.1530 -0.1609
18477W        W34951  15.344   1.206  12.400  0.2638  0.0455 -0.0281
18478W        W34952   4.734   8.492   0.674  0.0806  0.1698 -0.2543
18479W        W34953  16.902   6.321   2.238  0.0595  0.1865  0.3208
18480W        W34954   2.997  11.077  12.505 -0.0639 -0.2584 -0.0828
18481W        W34955  15.097  11.799   5.337  0.0477  0.0818  0.0339
18482W        W34956   8.775   4.997  14.127  0.0579  0.1711 -0.0252
18483W        W34957   7.176   2.566  10.321 -0.3091 -0.1084  0.0163
18484W        W34958  16.594  11.617   3.051 -0.1514 -0.0449  0.2391
18485W        W34959  18.206   1.476  12.085  0.3156 -0.2802  0.0323
18486W        W34960   1.940   3.101   0.660 -0.0134  0.2022  0.2881
18487W        W34961   0.182   7.652   2.867  0.0381  0.2727 -0.1039
18488W        W34962   4.493   0.652   3.871  0.1430  0.0593  0.3006
18489W        W34963   6.000   0.004   2.421  0.1189 -0.1094  0.3309
18490W        W34964   7.883  15.228  11.888  0.1866 -0.1306 -0.1743
18491W        W34965   0.968  15.293  10.948 -0.0074 -0.1556  0.1226
18492W        W34966  11.931  13.433   1.373 -0.1050  0.2737 -0.2079
18493W        W34967  14.090   5.674   4.686  0.0188 -0.1563  0.2454
18494W        W34968  13.747  10.224  14.408  0.0495  0.1587  0.1330
18495W        W34969  11.577   4.844   2.996 -0.0536  0.2370  0.3906
18496W        W34970   0.667   6.400   1.566  0.0517 -0.1415 -0.1861
18497W        W34971   3.091   6.693  14.122  0.1621  0.2657 -0.1432
18498W        W34972  17.318   1.212   0.761  0.0479 -0.3738 -0.2281
18499W        W34973   5.671  11.108   3.960 -0.2520 -0.0643 -0.0170
18500W        W34974  14.745  14.922   1.351 -0.2581  0.0054 -0.1900
18501W        W34975   0.929  15.500  12.525  0.0616 -0.0338 -0.1630
18502W        W34976  15.165   8.182  15.351 -0.4055  0.0573 -0.4537
18503W        W34977   9.512  11.882  11.276 -0.2720 -0.0629 -0.0807
18504W        W34978   3.224  14.381   4.319  0.0775  0.1670 -0.0339
18505W        W34979  10.134   1.644   0.413  0.3027  0.0658  0.0480
18506W        W34980   0.126   2.158  15.042  0.0483  0.0168 -0.0553
18507W        W34981  11.734   6.839  11.825 -0.1466  0.0133 -0.0814
18508W        W34982  11.585   8.710  12.137 -0.1191 -0.2700 -0.0713
18509W        W34983   8.746   6.612   2.430  0.1473 -0.1785  0.3013
18510W        W34984  18.794   9.595  15.522 -0.1785  0.0301  0.2364
18511W        W34985  15.926   0.883   0.682  0.5840 -0.0628 -0.2720
18512W        W34986  11.899  16.114   2.695  0.0607 -0.2267 -0.3121
18513W        W34987  15.484   9.673   3.550 -0.0608  0.0781 -0.2333
18514W        W34988   1.248  16.131  13.085  0.2237 -0.4381 -0.1788
18515W        W34989   3.368  17.928   2.413 -0.3200  0.0671 -0.2243
18516W        W34990   1.549  15.582   9.858 -0.0140  0.3180  0.0573
18517W        W34991   1.401   2.257   2.986  0.1760  0.0690  0.0812
18518W        W34992  17.964  16.073   0.924 -0.0616  0.1319  0.1716
18519W        W34993   3.971   5.113  14.197 -0.0516  0.2624 -0.0208
18520W        W34994   1.627   2.884  12.252  0.1920 -0.0426  0.1059
18521W        W34995  10.499   5.726   1.610 -0.0336 -0.1233  0.2260
18522W        W34996  17.467  17.875  11.937 -0.1800 -0.1756  0.1914
18523W        W34997  12.465   4.450  13.858 -0.1656  0.2479  0.2439
18524W        W34998  17.776  11.205   2.153  0.0512 -0.0563  0.0712
18525W        W34999  10.045  15.825   1.118 -0.0683  0.0946 -0.1051
18526W        W35000   7.794  16.168   2.984  0.2354  0.0123 -0.0049
18527W        W35001   9.283  18.066   1.634  0.0188 -0.0013 -0.0915
18528W        W35002   7.068  15.463  12.892 -0.2157  0.1484  0.1411
18529W        W35003  10.800  15.505  13.131 -0.2341 -0.0578 -0.4579
18530W        W35004   1.768   6.080   2.976 -0.1348 -0.2780 -0.2813
18531W        W35005  10.702   2.433   0.222  0.1135 -0.3725  0.0906
18532W        W35006   0.737   8.543   3.908  0.0011  0.1058  0.3363
18533W        W35007  12.732   5.750   2.750  0.0675  0.1305 -0.3972
18534W        W35008  14.649  17.636  11.123 -0.1725  0.0607  0.3800
18535W        W35009  11.549  13.921   4.405 -0.2328 -0.1199 -0.2193
18536W        W35010   3.345  15.598   2.697  0.1506 -0.1879  0.4071
18537W        W35011   6.021   5.863  12.236  0.3134  0.0516  0.1411
18538W        W35012  18.726  13.431   4.139  0.1949 -0.0567  0.0484
18539W        W35013   5.615   2.594   4.972  0.1620  0.2932 -0.0372
18540W        W35014  16.721  12.466  11.017  0.0533  0.0065 -0.0169
18541W        W35015  17.132   2.514   2.945  0.1782 -0.1754 -0.1565
18542W        W35016   1.704  10.202  14.075  0.0447 -0.4578 -0.0939
18543W        W35017  12.446  15.241   0.533  0.1391  0.1040 -0.1577
18544W        W35018  14.632   9.231  13.524  0.4066 -0.0795 -0.1468
18545W        W35019   3.237   1.173  11.939  0.1010  0.1170  0.2688
18546W        W35020  18.434  14.849  15.672 -0.2596  0.4113  0.0600
18547W        W35021   2.395  11.677   2.342 -0.3012 -0.1195 -0.0639
18548W        W35022  15.342   0.064   2.478 -0.2322  0.0445 -0.1598
18549W        W35023   8.054   8.608   0.455 -0.0131 -0.0018 -0.1168
18550W        W35024   5.700   8.477  13.722  0.2180  0.2458 -0.0173
18551W        W35025  17.586  13.886   1.797  0.1004 -0.1530  0.0286
18552W        W35026  16.293  15.810  11.768 -0.0742  0.4151 -0.0475
18553W        W35027  18.799   1.838  11.923 -0.1265 -0.1047 -0.1917
18554W        W35028  14.895   9.606  12.850 -0.0081  0.3817 -0.0247
18555W        W35029   0.991   8.426   4.327  0.0285  0.0605  0.0891
18556W        W35030  12.392   0.571  14.616 -0.3658  0.2439 -0.0007
18557W        W35031  15.063   2.193  15.514 -0.0559  0.1183  0.0248
18558W        W35032   6.960  14.156  14.460 -0.3852 -0.0471 -0.0128
18559W        W35033   7.826   1.762   1.795 -0.1165  0.2586 -0.0883
18560W        W35034  11.340  12.767   4.130  0.1812  0.1168 -0.0456
18561W        W35035  18.621   0.619   0.551  0.0311  0.0129  0.0197
18562W        W35036   0.110   7.205  13.972 -0.0322  0.3251  0.0199
18563W        W35037   5.630   1.342   2.227 -0.3213  0.1698  0.0045
18564W        W35038   0.923  12.640  11.508  0.0420  0.1004 -0.0330
18565W        W35039   1.833   9.366  13.825 -0.0064 -0.1202 -0.0388
18566W        W35040  17.935  12.712   2.986 -0.0727 -0.2767 -0.2168
18567W        W35041   3.544   3.870  13.702  0.1065 -0.1398  0.0217
18568W        W35042  14.436  16.742   2.204  0.0677  0.1840  0.0649
18569W        W35043   3.173   4.619   5.060  0.2099 -0.1326 -0.0709
18570W        W35044   1.409  12.932  12.793  0.0214  0.0391  0.0470
18571W        W35045   9.387   7.410  14.038 -0.1484  0.3259  0.0650
18572W        W35046   3.271  13.491   5.695  0.1731 -0.3279 -0.4253
18573W        W35047  16.981  14.135  15.381  0.2402  0.2087 -0.0746
18574W        W35048   6.085   5.180  14.226  0.0775  0.2059 -0.0531
18575W        W35049   1.173   9.344   4.247  0.3989  0.0347 -0.2043
18576W        W35050   4.478  16.940   3.275 -0.0507  0.3945 -0.2156
18577W        W35051   4.225  11.539  14.204 -0.0671 -0.0545  0.2531
18578W        W35052  12.081   8.431  12.515  0.3838  0.0327  0.2122
18579W        W35053   0.255  13.767   0.666 -0.0493  0.0907  0.0190
18580W        W35054   2.801  13.183  15.460 -0.3171 -0.1543  0.0297
18581W        W35055  12.338   4.835   0.957  0.1639 -0.0351 -0.2236
18582W        W35056   0.976  13.932  12.552 -0.0894  0.3154 -0.0440
18583W        W35057   9.207  17.792  11.794  0.0980 -0.0332  0.0340
18584W        W35058   9.293   4.440   0.382 -0.0649  0.0436  0.4466
18585W        W35059  12.021  11.687   4.427 -0.0262 -0.0178  0.1183
18586W        W35060  10.963  16.499   3.523  0.0985  0.0075 -0.1286
18587W        W35061   0.962   4.540  12.682  0.0358 -0.0733 -0.1843
18588W        W35062   4.532   6.067   4.039 -0.3168  0.2440  0.1407
18589W        W35063   7.062  11.597   3.835  0.0303  0.0934 -0.1987
18590W        W35064   0.075  16.993   0.175 -0.1306 -0.1755 -0.0596
18591W        W35065   8.912   8.110   5.088  0.1730 -0.2713  0.0531
18592W        W35066   0.947   5.240  13.864  0.1225  0.2078 -0.3358
18593W        W35067  12.901  10.010  13.127 -0.0137 -0.1089 -0.1467
18594W        W35068   2.631   8.831   0.997  0.2076 -0.2230 -0.2278
18595W        W35069   6.305   8.612  10.967 -0.1931 -0.0272  0.0935
18596W        W35070   1.376   4.500   1.395  0.1225 -0.0929 -0.0114
18597W        W35071  17.830   1.511  13.087  0.0354 -0.0711 -0.0055
18598W        W35072   2.657   7.971  11.403  0.3862 -0.1725  0.0597
18599W        W35073   8.899  17.322   1.404 -0.1382  0.0925  0.1922
18600W        W35074   1.065   3.226  13.046  0.1256  0.2871 -0.0660
18601W        W35075   9.722   2.204  12.098  0.2373  0.0839 -0.0760
18602W        W35076  13.221   2.863  12.714 -0.0821  0.0597  0.2059
18603W        W35077  10.699   9.089  13.709  0.0642 -0.4012 -0.3188
18604W        W35078  17.794  10.635   0.949 -0.4715 -0.0578 -0.0949
18605W        W35079   6.704  16.807  11.373  0.4308 -0.0960 -0.2088
18606W        W35080  10.912   5.867   0.788 -0.2798 -0.1506  0.1476
18607W        W35081  11.194   8.567   1.274  0.1745  0.2322  0.4083
18608W        W35082  12.099   3.568   1.468  0.2502  0.1875 -0.0587
18609W        W35083   8.428  11.253   2.393 -0.1695 -0.2493  0.1982
18610W        W35084   4.508  14.823   2.315 -0.0343 -0.4248 -0.0023
18611W        W35085  12.719  14.795   3.335  0.4994 -0.2432  0.0593
18612W        W35086   6.670  14.957   1.134  0.0046  0.1154 -0.2155
18613W        W35087   8.720  11.313  12.820  0.1902 -0.1060 -0.4054
18614W        W35088   3.758   3.707   5.564  0.5362 -0.1358 -0.0577
18615W        W35089   8.367  18.140   1.167  0.2931  0.1909 -0.0539
18616W        W35090   3.091  18.023   3.965 -0.1224 -0.0031 -0.0637
18617W        W35091   1.044  18.154   3.701  0.4310  0.0774 -0.1569
18618W        W35092   3.552  14.838   5.191 -0.2755 -0.0336 -0.0374
18619W        W35093  18.123   7.029  15.521  0.0874 -0.0293 -0.0604
18620W        W35094   2.756   2.468   5.331  0.0507  0.0593  0.1797
18621W        W35095  14.173  11.148  14.559 -0.0760 -0.2014  0.0777
18622W        W35096  14.341   2.952  11.549 -0.0228  0.2082  0.1161
18623W        W35097  16.775  12.624  13.389  0.0313 -0.3177  0.1241
18624W        W35098   3.792  13.915  12.906  0.0848 -0.2722 -0.3022
18625W        W35099  16.767   0.340  11.701 -0.2663 -0.2340 -0.1980
18626W        W35100  18.253   4.076   0.186 -0.2975  0.0932  0.3018
18627W        W35101   4.621   9.852  13.939  0.1080  0.2864  0.0064
18628W        W35102  17.413   2.104   2.966  0.1150 -0.1684  0.0113
18629W        W35103   0.095   0.680   3.798 -0.1214  0.0705 -0.0021
18630W        W35104  18.635   9.505   4.480  0.2026  0.1246  0.0577
18631W        W35105  18.010   4.512   4.469  0.0840  0.1165  0.0212
18632W        W35106   6.102   2.419   1.486  0.0104  0.4203 -0.1755
18633W        W35107  10.012  13.194   2.942  0.2659 -0.1713  0.1752
18634W        W35108   1.174   3.084   4.638  0.0766  0.0377  0.1760
18635W        W35109  10.479   0.749  10.159  0.0786  0.1240  0.0202
18636W        W35110   3.034  16.946   0.411 -0.0284 -0.2598  0.2394
18637W        W35111  12.733  11.126  12.831 -0.1816 -0.1918 -0.1605
18638W        W35112   9.375   2.742  14.437 -0.0853 -0.0234  0.4801
18639W        W35113  13.583  11.269  10.911  0.0421 -0.1293 -0.1914
18640W        W35114  14.833  18.725  10.996 -0.2279  0.3225 -0.0193
18641W        W35115   1.053  17.353  11.295 -0.0911 -0.1259 -0.1389
18642W        W35116   5.991  12.688   4.189 -0.0145 -0.0305 -0.3573
18643W        W35117  13.432  10.949  13.477  0.2638 -0.0095  0.0142
18644W        W35118  18.848   5.890  14.877 -0.1763 -0.3177  0.2567
18645W        W35119  18.737   4.098   0.344 -0.0700 -0.0484 -0.0730
18646W        W35120   3.087   5.690  14.040  0.3427 -0.0007 -0.1385
18647W        W35121   1.671  13.869   1.714  0.0727 -0.1727  0.2281
18648W        W35122  12.905  16.708   5.514 -0.0180  0.3647 -0.1913
18649W        W35123  10.062  12.912  13.535  0.0724 -0.0190  0.1294
18650W        W35124  18.647  14.877  12.878 -0.0510 -0.5261 -0.3077
18651W        W35125  14.020   5.601  15.164  0.1397 -0.4035  0.1606
18652W        W35126   7.089   6.341  14.873  0.0381 -0.0426 -0.1196
18653W        W35127  12.159  14.636   0.847  0.4745  0.1580 -0.0941
18654W        W35128  14.899  11.862  12.760  0.1253 -0.1617  0.2460
18655W        W35129   9.585   3.732   6.232 -0.0926 -0.0469 -0.3393
18656W        W35130  11.476   7.921   1.298  0.1327 -0.1444 -0.1236
18657W        W35131  14.979   9.357   5.153  0.4317  0.0400  0.1899
18658W        W35132  10.086   7.505   3.609 -0.2508  0.1162 -0.0109
18659W        W35133  10.568  10.265  11.502 -0.0805 -0.0480  0.0802
18660W        W35134   8.524   9.272   2.465 -0.1228  0.0310  0.1470
18661W        W35135   7.685   1.535   3.696 -0.1969  0.0048 -0.1763
18662W        W35136   0.698  13.051   1.489 -0.4017  0.1239  0.1459
18663W        W35137  15.384  14.730   2.353  0.3338 -0.2008  0.0446
18664W        W35138   2.715   2.690  13.243  0.0835  0.4030 -0.0782
18665W        W35139   6.129   8.274   1.941 -0.1596  0.0889 -0.1745
18666W        W35140  18.267   0.282  15.577  0.0579 -0.0348 -0.0132
18667W        W35141  18.431   4.464   4.175  0.1848 -0.5889 -0.0714
18668W        W35142   8.428   2.023   1.152 -0.2163 -0.0089 -0.1925
18669W        W35143  12.118   5.790  12.013  0.1278 -0.2514 -0.2257
18670W        W35144  12.191   1.415  11.095 -0.0458 -0.0277  0.0834
18671W        W35145   5.790  15.669   1.070  0.1343  0.1673  0.1258
18672W        W35146   0.474   5.282   1.849  0.0464 -0.2176  0.1394
18673W        W35147   0.654  17.096  10.929 -0.0514  0.0981  0.2203
18674W        W35148  17.341   6.576   3.903  0.0107  0.2082  0.2987
18675W        W35149   6.023   8.510   0.629  0.1184 -0.0326 -0.1346
18676W        W35150   0.094  11.512  14.223 -0.2794 -0.0618 -0.0599
18677W        W35151   4.583   6.809  15.126  0.0855  0.1296  0.0015
18678W        W35152  13.086   1.226   1.081  0.2166 -0.2530  0.0588
18679W        W35153   2.373  13.103   0.667  0.2371  0.0589  0.3291
18680W        W35154   4.248  11.142   2.890 -0.0970 -0.1466 -0.0480
18681W        W35155   9.030   9.883  11.665 -0.4088 -0.1603 -0.0936
18682W        W35156  18.400  16.970  14.837 -0.0974  0.0658  0.0291
18683W        W35157  12.745   0.593  11.852 -0.0205 -0.1085 -0.0562
18684W        W35158  12.660   7.694   5.852  0.1147  0.4941  0.1968
18685W        W35159  18.773  15.157   2.784  0.1047  0.1715 -0.1103
18686W        W35160  14.260   3.066  12.200 -0.2340 -0.0699  0.1003
18687W        W35161   4.326   0.119   2.494 -0.0503 -0.1483 -0.0120
18688W        W35162  16.388  16.925  12.204  0.1669  0.0204  0.3708
18689W        W35163  11.597   5.525   3.789 -0.0884  0.1523 -0.0368
18690W        W35164   5.106  14.706   0.972 -0.0253  0.0378 -0.0002
18691W        W35165   4.797   4.973   3.023 -0.0013 -0.0886  0.2442
18692W        W35166  11.590  17.999   4.711 -0.0112 -0.0026  0.3750
18693W        W35167  10.142   3.846   6.321 -0.1040  0.1464 -0.0158
18694W        W35168   7.429  10.711   3.403 -0.1703 -0.2436  0.2066
18695W        W35169   6.619  18.609   1.176  0.0979  0.2095  0.0520
18696W        W35170  15.553   1.809   2.545 -0.0178  0.1291 -0.0754
18697W        W35171  18.716  18.269   1.391  0.1528 -0.1423  0.0609
18698W        W35172  11.371  11.012   2.238 -0.1882 -0.0765 -0.1924
18699W        W35173   4.673   5.916  11.833  0.0609 -0.2282  0.1265
18700W        W35174  15.117   8.350  14.800 -0.3359  0.1802  0.1003
18701W        W35175   9.863  10.498   2.942  0.1684  0.4564 -0.0391
18702W        W35176   7.029  16.457  15.480 -0.1778 -0.1294 -0.3600
18703W        W35177  17.768   5.621  11.149  0.1234 -0.0542  0.0110
18704W        W35178   1.805  10.059  12.615 -0.2987 -0.0223  0.1180
18705W        W35179   5.967  18.836  13.355 -0.1060 -0.3594  0.1077
18706W        W35180  17.625  16.596   4.350 -0.1767  0.0256 -0.3246
18707W        W35181   3.626   6.823   3.826 -0.1928  0.1856 -0.2534
18708W        W35182   3.691   4.492   0.117  0.3594 -0.3506 -0.0103
18709W        W35183   1.557   0.101   2.251  0.0504  0.4864 -0.3110
18710W        W35184   4.396  17.227  11.934 -0.1239 -0.1827 -0.3266
18711W        W35185  14.907  17.759   3.130 -0.2883  0.1108  0.1130
18712W        W35186   0.627  12.033  10.674  0.1748  0.0704 -0.0847
18713W        W35187  15.602   8.528   4.724  0.0249 -0.0485 -0.3068
18714W        W35188   3.832   0.826   3.263  0.2436 -0.1175 -0.0931
18715W        W35189  16.632   6.013   4.357 -0.2401 -0.0502 -0.3207
18716W        W35190  16.838  13.847   0.121 -0.1857 -0.0596 -0.2946
18717W        W35191  14.550   2.173  11.710  0.1792  0.1493 -0.3733
18718W        W35192  18.700  18.606  11.628  0.3664  0.3176  0.0889
18719W        W35193   0.048   5.214   0.866  0.0228  0.0319  0.0953
18720W        W35194   7.414   8.194  14.571 -0.1914 -0.0603 -0.1031
18721W        W35195   7.903   3.091  12.778 -0.0458 -0.0952  0.0761
18722W        W35196   7.926  11.724   3.924 -0.2400 -0.0990 -0.1956
18723W        W35197  16.030   4.734   3.616 -0.0286  0.0925  0.0934
18724W        W35198   7.479  10.321   2.750 -0.2767  0.1115 -0.0236
18725W        W35199  17.410  11.492   2.355  0.0032  0.1244 -0.2396
18726W        W35200  13.561  15.688  12.711 -0.6995 -0.1741  0.3892
18727W        W35201  10.749   6.366   1.851 -0.0450  0.0552  0.1190
18728W        W35202   5.560   4.304  13.485  0.0723 -0.1883 -0.0727
18729W        W35203   4.578  10.329   4.275 -0.0572 -0.1631  0.0226
18730W        W35204   7.684  11.363   3.719  0.0311  0.0162 -0.0848
18731W        W35205  13.219   9.244  11.403 -0.0043  0.1850 -0.0837
18732W        W35206  17.117  10.695   2.928 -0.0133  0.1019 -0.0113
18733W        W35207   7.853   9.404  15.692  0.0540 -0.0049 -0.0621
18734W        W35208   1.615   3.562  10.913 -0.0652  0.2884 -0.0107
18735W        W35209   3.964   5.283   1.873  0.1336  0.0503  0.0065
18736W        W35210   5.362  12.561   3.000 -0.1894  0.1782  0.0499
18737W        W35211  18.060   2.234  15.463 -0.0255 -0.0966 -0.1730
18738W        W35212   8.402  14.738   1.485  0.0284  0.0433 -0.1270
18739W        W35213   0.510  17.275   4.666 -0.1703 -0.2730 -0.2261
18740W        W35214  16.449   6.230   3.053 -0.4357 -0.0843 -0.2048
18741W        W35215  12.617  13.277   2.923 -0.4108  0.2617 -0.2815
18742W        W35216   8.288  11.011  10.973 -0.2002  0.0453  0.2714
18743W        W35217   2.636  10.032   4.829 -0.0463 -0.1393 -0.0378
18744W        W35218   8.779  11.515  14.221  0.1783  0.0445 -0.1109
18745W        W35219   2.378   8.264  13.236 -0.0216  0.1706  0.0988
18746W        W35220   3.608   9.491  14.453  0.0772 -0.4052  0.1819
18747W        W35221  13.304   4.682  12.551  0.2790 -0.0516  0.0241
18748W        W35222   2.822  11.152  11.657 -0.0083 -0.1640  0.0404
18749W        W35223   2.678  15.878   5.228  0.0471 -0.0867 -0.2832
18750W        W35224  18.078   0.801  10.312  0.0528 -0.0460  0.1258
18751W        W35225   2.654   0.969  13.846  0.0872 -0.1200 -0.2374
18752W        W35226   3.687   0.166   0.783  0.0185  0.4761 -0.3294
18753W        W35227   1.424   3.368  12.423 -0.1647 -0.1765 -0.1927
18754W        W35228  13.581   0.938   4.366  0.1884 -0.0229  0.0022
18755W        W35229   1.674   1.511  11.194  0.0362 -0.1042  0.0979
18756W        W35230  10.970   8.919  15.644  0.1421 -0.1443 -0.0113
18757W        W35231   1.189  14.388  11.270 -0.2422 -0.1154 -0.0103
18758W        W35232   6.408  18.559   5.755  0.0020  0.0544 -0.1403
18759W        W35233   3.092  10.286  12.080 -0.4908  0.0143  0.0692
18760W        W35234  18.614  11.112   5.071  0.1042 -0.1553  0.2845
18761W        W35235  12.006   4.533  15.191 -0.0206 -0.1325  0.2267
18762W        W35236  16.810   8.836   0.421  0.0127  0.0661 -0.2752
18763W        W35237   9.671  13.460  15.373 -0.0214 -0.1775  0.0487
18764W        W35238   2.800   0.728   5.168  0.2312 -0.0687  0.4252
18765W        W35239  12.988  15.074   2.193 -0.1168 -0.0509  0.0072
18766W        W35240   9.187   1.284   4.547 -0.3593  0.0481  0.0107
18767W        W35241   8.147   3.233   5.669 -0.1617 -0.2357  0.0084
18768W        W35242   1.930   2.256  14.913  0.0429  0.0520  0.4265
18769W        W35243   5.636   5.512   3.093  0.0694 -0.0138  0.0589
18770W        W35244  15.321   5.666   3.569  0.1201 -0.0064  0.3352
18771W        W35245   1.952  17.434   4.778 -0.0951 -0.1527 -0.2455
18772W        W35246   4.197   1.415  10.853 -0.1056 -0.1015 -0.0922
18773W        W35247  16.052   3.260   3.646  0.0981 -0.2366  0.0335
18774W        W35248  17.662  13.512  10.237 -0.0849  0.1024  0.2731
18775W        W35249  18.770  18.007  15.474 -0.2009 -0.0216 -0.2960
18776W        W35250  11.255  10.298   3.268  0.0936 -0.0304 -0.3405
18777W        W35251  16.864   1.777  14.875  0.0543 -0.3106 -0.5783
18778W        W35252  11.456  13.463  12.057 -0.1109  0.2127 -0.2722
18779W        W35253   0.122   0.437  10.567  0.1754 -0.4974 -0.3457
18780W        W35254   8.790  11.623   5.580  0.1888  0.0181 -0.0242
18781W        W35255  10.664   1.382  12.540 -0.1955 -0.2838  0.1867
18782W        W35256   5.183  16.990  14.121 -0.0487  0.0429  0.1959
18783W        W35257  12.320   6.847   5.640 -0.0400  0.1699 -0.3760
18784W        W35258   4.036   7.955   3.097  0.0375  0.0240  0.0371
18785W        W35259  17.661  18.626  10.069 -0.0147 -0.0125  0.0553
18786W        W35260   6.919   2.212  11.203 -0.0446  0.0017  0.0453
18787W        W35261  10.464  16.287   3.617 -0.1382  0.0993 -0.3341
18788W        W35262  13.340  11.847  15.132  0.1225 -0.2195  0.0412
18789W        W35263  12.594  13.284   2.431 -0.0615  0.3438  0.0316
18790W        W35264  14.843  15.080  12.813 -0.1190  0.3008  0.2297
18791W        W35265   4.097   3.023   4.554  0.0153  0.2059 -0.0066
18792W        W35266   9.738  14.838  14.539 -0.2795  0.3222  0.0769
18793W        W35267  13.616  16.608   1.176  0.0698  0.1461  0.1096
18794W        W35268   3.161   1.836   5.269  0.0945 -0.1628 -0.0451
18795W        W35269   1.635   2.202   2.516 -0.3675 -0.0396 -0.0889
18796W        W35270   3.081  15.034  11.732 -0.0552  0.1749 -0.2503
18797W        W35271   4.749   1.067   1.006 -0.1074 -0.0249  0.2494
18798W        W35272   8.728  14.893  15.652 -0.0102  0.1671 -0.1465
18799W        W35273  18.750  13.342   1.529 -0.4747 -0.1136 -0.0201
18800W        W35274  18.700  17.513  15.559  0.0779  0.0231 -0.0932
18801W        W35275  10.814  15.400  13.786  0.4021 -0.0435  0.0626
18802W        W35276   4.450   2.527  11.351 -0.0287  0.0846  0.1619
18803W        W35277   4.897   4.962  11.257 -0.0811 -0.0495  0.2134
18804W        W35278  14.127  13.662   2.853 -0.0861  0.2753 -0.1625
18805W        W35279   2.401   1.437   4.582  0.0786 -0.2887 -0.2440
18806W        W35280   0.765  18.566  14.065  0.3335 -0.0618  0.3291
18807W        W35281  17.730   0.068   3.344 -0.0458  0.1296  0.2040
18808W        W35282   7.315  14.877   4.349 -0.0914 -0.4080 -0.1796
18809W        W35283   9.338  10.939   5.220  0.2169  0.2567 -0.1501
18810W        W35284  15.869  14.699  11.463  0.1335 -0.2226  0.0197
18811W        W35285   4.671   1.036   4.782  0.2083  0.0322  0.0075
18812W        W35286   6.994  14.450  14.843  0.2290  0.2289 -0.1730
18813W        W35287   1.372   9.383  11.027 -0.0826 -0.0657  0.0468
18814W        W35288  16.844  18.620   2.263 -0.1865  0.0084  0.0404
18815W        W35289  15.485  13.461   1.949  0.3012  0.2180  0.0422
18816W        W35290  14.397  10.466  13.620 -0.2364  0.2818  0.0658
18817W        W35291   4.891   6.806   4.606 -0.0371 -0.1774  0.0349
18818W        W35292   7.722  14.768   0.178  0.2255 -0.0526  0.1171
18819W        W35293   5.298   4.904  15.529 -0.0232  0.1600  0.1622
18820W        W35294   9.109  13.022   3.333  0.0745 -0.1817 -0.1627
18821W        W35295   8.015   0.015   5.573 -0.2053  0.2264  0.0434
18822W        W35296   9.229   4.787  14.143 -0.2526 -0.0190  0.2874
18823W        W35297   7.835   6.204  15.308  0.3021  0.1973 -0.3866
18824W        W35298  11.090   3.289   5.300  0.2022 -0.1632  0.1797
18825W        W35299  15.451   8.241   9.346 -0.0545  0.3211  0.1043
18826W        W35300  16.736   9.186   9.766  0.1168  0.1488  0.1806
18827W        W35301   5.895   4.095   1.321 -0.0700  0.0471  0.2282
18828W        W35302   6.530   9.250   0.645 -0.4123  0.0133  0.3703
18829W        W35303   7.804  12.204   3.976 -0.1573 -0.0939  0.2035
18830W        W35304   2.642  12.166   0.918  0.2019 -0.0680 -0.0359
18831W        W35305   5.936   5.702   0.240 -0.0733 -0.2237  0.2393
18832W        W35306  17.443   8.576   3.047 -0.1770 -0.0887 -0.2810
18833W        W35307  18.045   9.431  12.205 -0.1432 -0.1707  0.1167
18834W        W35308  11.871   1.971   5.467  0.1120  0.0077  0.3306
18835W        W35309   7.027   6.755  15.231 -0.2479 -0.0010 -0.1985
18836W        W35310  10.810  16.784   2.839  0.0528  0.0453 -0.1401
18837W        W35311  17.492  18.852  10.456 -0.2850 -0.1476  0.1161
18838W        W35312   4.884  17.402   1.962 -0.0707  0.1098 -0.1607
18839W        W35313   6.255   6.422   2.550 -0.0059  0.1318 -0.0416
18840W        W35314   1.921  14.287  13.714 -0.1050  0.0738  0.0108
18841W        W35315   4.651   6.141  13.892 -0.4117  0.1689  0.2365
18842W        W35316   7.870  11.997   4.416 -0.2534  0.2919  0.1257
18843W        W35317   8.995   5.368  13.399 -0.1486 -0.3514 -0.1166
18844W        W35318   6.176   7.712  14.877  0.0362 -0.2393 -0.2937
18845W        W35319  16.928   9.457  14.301 -0.1817  0.4822  0.0650
18846W        W35320   7.481   0.058   3.835  0.0301  0.1380 -0.2934
18847W        W35321   4.112  17.709   0.880 -0.1780 -0.2773  0.0513
18848W        W35322   7.691   6.287  13.283  0.0854 -0.1017 -0.0352
18849W        W35323   3.779   7.636  12.126  0.1322 -0.0345  0.0052
18850W        W35324   7.905   1.352   5.107 -0.1081 -0.2416  0.1400
18851W        W35325   4.394   1.088  12.886 -0.2096  0.0461  0.0467
18852W        W35326   9.818   4.901  11.297 -0.0783 -0.1197  0.0033
18853W        W35327   5.670  12.523  12.945  0.1916 -0.1055 -0.0663
18854W        W35328  10.738   1.278  11.295  0.0383  0.3515  0.0989
18855W        W35329  12.251   4.221  14.877 -0.0013 -0.0945  0.0464
18856W        W35330  12.087  15.781   2.324 -0.0919 -0.5319  0.2003
18857W        W35331   7.889   0.640  15.098  0.2184 -0.2024 -0.3630
18858W        W35332   3.947   1.261   1.232  0.0673  0.0567 -0.2036
18859W        W35333   3.877  12.415  12.376  0.2869 -0.1980  0.0821
18860W        W35334   1.654  14.709  12.046  0.1834 -0.2249 -0.2869
18861W        W35335   2.424   7.810  12.692  0.0641  0.2845 -0.2105
18862W        W35336  14.168  16.115   2.955  0.1081 -0.2274  0.3185
18863W        W35337   2.251  12.554  11.880  0.1538  0.1295  0.0078
18864W        W35338  10.679   6.059   4.604 -0.0686  0.3244 -0.0392
18865W        W35339  14.817  14.807  13.698 -0.0369 -0.0748 -0.3423
18866W        W35340   5.431  13.326   1.964 -0.1222  0.0941 -0.1544
18867W        W35341  11.613   4.343  14.938 -0.1787 -0.0508 -0.0257
18868W        W35342  10.740   3.367   3.490 -0.0592  0.1466  0.0211
18869W        W35343   3.422   9.710  12.751  0.2193  0.0771  0.0600
18870W        W35344  10.121  11.517   4.279 -0.0788 -0.0467  0.1853
18871W        W35345  16.751   0.473   1.584  0.0888  0.0885  0.0227
18872W        W35346   9.270  16.320  13.744 -0.2339  0.0347  0.2411
18873W        W35347   8.411   9.381   2.942 -0.1839  0.2042  0.2404
18874W        W35348   6.117  17.652   1.116  0.0762  0.3051  0.5037
18875W        W35349   5.507   9.906   1.706 -0.1973  0.0367  0.2582
18876W        W35350  11.790   7.994   3.999  0.0086 -0.0758 -0.2252
18877W        W35351   8.835   5.709   5.149  0.0292 -0.0544 -0.2930
18878W        W35352   9.579   3.932  12.478 -0.1039  0.1959  0.2868
18879W        W35353   9.401   0.395   3.045 -0.0837  0.3514 -0.3825
18880W        W35354  13.272   3.566   3.233  0.3793 -0.0187  0.1580
18881W        W35355  11.039  13.108   3.842 -0.3340  0.2311  0.2283
18882W        W35356   8.028   7.772   5.006 -0.0469 -0.0664  0.1368
18883W        W35357   9.768  15.425   3.371 -0.3883 -0.0680 -0.1283
18884W        W35358   7.613   0.540   5.097  0.1146 -0.4813 -0.0677
18885W        W35359  14.689  15.293  14.690  0.4340  0.1677 -0.0899
18886W        W35360  10.557  15.585  11.127  0.1335 -0.0657  0.2485
18887W        W35361  12.770   9.887  14.320 -0.1771  0.1414 -0.1776
18888W        W35362   4.175  14.275   4.463  0.1710 -0.2731  0.0711
18889W        W35363   2.418  13.908  14.358 -0.2056  0.0919 -0.1883
18890W        W35364  17.177   9.686   2.778  0.0635  0.2277 -0.1350
18891W        W35365   7.068  10.616  11.159 -0.1187  0.1210 -0.2501
18892W        W35366  14.264   9.898  12.785  0.0237  0.3748 -0.1136
18893W        W35367  13.341   0.857  13.365 -0.0043 -0.1485  0.4039
18894W        W35368  11.276   1.227   1.696  0.0069 -0.0603 -0.1690
18895W        W35369  10.517  13.724   5.311 -0.3437 -0.2718 -0.0857
18896W        W35370   0.997  12.172   5.311 -0.3056  0.2685 -0.2820
18897W        W35371  17.280  12.078  11.684  0.3628 -0.2035 -0.1851
18898W        W35372   3.655  14.299   5.237  0.0929  0.2179  0.2699
18899W        W35373  16.764   3.803  11.373 -0.0859 -0.1281  0.1461
18900W        W35374   4.221  10.476  12.594 -0.1884 -0.0625  0.0121
18901W        W35375   7.942  14.943   4.760 -0.1551 -0.1965 -0.1005
18902W        W35376   5.729   7.360  12.291 -0.0119 -0.2591 -0.1928
18903W        W35377   6.683   8.193   3.810 -0.0936 -0.1107  0.0141
18904W        W35378   4.514   8.421   1.193 -0.1051 -0.0660  0.1802
18905W        W35379  18.129   1.148   1.994 -0.0064  0.1149  0.2786
18906W        W35380   0.587  16.891   1.841 -0.2930  0.2885 -0.2593
18907W        W35381   5.921   1.734  14.159 -0.3229 -0.2520 -0.0720
18908W        W35382  13.100  16.213   1.937 -0.2015 -0.1850 -0.0796
18909W        W35383   8.946  12.251   3.275 -0.3320 -0.1079  0.1508
18910W        W35384   2.116   6.205  13.201  0.1013  0.4947  0.1051
18911W        W35385  14.683   9.926  11.900  0.0189  0.0625  0.0441
18912W        W35386   2.769  18.253   1.652  0.2215 -0.0952 -0.1118
18913W        W35387   6.517   2.429   4.109  0.0870 -0.1231 -0.0045
18914W        W35388   5.625  16.847   1.622  0.1928 -0.1266 -0.0176
18915W        W35389   5.448  11.113  15.556  0.1037  0.0107 -0.0564
18916W        W35390  13.047  12.812   4.204 -0.4616  0.1909  0.3231
18917W        W35391  12.815  15.234   0.797  0.5016  0.1677 -0.3130
18918W        W35392   4.150  17.999  14.331  0.2001 -0.3681  0.0053
18919W        W35393   8.120   3.137  13.264 -0.0746 -0.1956 -0.0379
18920W        W35394   1.223   3.069   2.449  0.1507 -0.0365 -0.1962
18921W        W35395  18.575   5.008  12.573  0.3576 -0.0489  0.0107
18922W        W35396   5.040  14.408  12.013  0.1258  0.3719  0.0416
18923W        W35397  12.596  17.462  11.412 -0.0996  0.0251  0.1181
18924W        W35398   9.140  10.847  14.672 -0.1528  0.2360  0.2537
18925W        W35399  13.563  13.387   4.650  0.3553  0.0474  0.1214
18926W        W35400   6.111  13.450  12.008 -0.1241 -0.0875  0.2142
18927W        W35401  12.442  17.575   3.441  0.0937 -0.1307 -0.1607
18928W        W35402  11.926   1.792  13.697  0.0809 -0.1348 -0.1386
18929W        W35403  10.034   7.955  13.289  0.0067  0.0275 -0.0558
18930W        W35404  14.078  13.282  13.741 -0.1089 -0.0837 -0.2617
18931W        W35405   7.529   9.049   4.391 -0.0860  0.0999  0.1454
18932W        W35406   5.614   4.146   1.732  0.3489  0.0018 -0.0975
18933W        W35407  10.033  16.753   2.893  0.1385  0.1592 -0.2188
18934W        W35408  16.630  13.132  13.165  0.1439  0.1726 -0.1717
18935W        W35409  13.875  15.052  12.137  0.4628  0.0244 -0.1328
18936W        W35410   5.971   0.358   2.761  0.3248 -0.2524 -0.0552
18937W        W35411   7.045   6.486  11.558 -0.0777 -0.0068  0.2364
18938W        W35412  17.252   3.400   0.332  0.0952 -0.4774 -0.1648
18939W        W35413   7.067   0.081  14.009 -0.1043  0.1437  0.0447
18940W        W35414   3.762  12.998   1.996  0.1944 -0.1977  0.4041
18941W        W35415   6.201  10.676   2.195  0.3309 -0.0561  0.0746
18942W        W35416   8.084  11.488   4.763 -0.0885  0.3336 -0.0242
18943W        W35417   4.199  14.795  11.000  0.1556  0.2618  0.0549
18944W        W35418   2.157   5.574  14.727 -0.0642 -0.2000  0.3012
18945W        W35419  17.035   1.685  11.399 -0.3226 -0.1561 -0.0389
18946W        W35420   9.288   4.294  14.316  0.0711  0.2937 -0.2190
18947W        W35421  10.635   6.256  14.277  0.3052  0.1819 -0.2399
18948W        W35422   0.996  11.075  13.381 -0.1278 -0.0342 -0.3727
18949W        W35423   4.090   3.893   4.086  0.2861  0.4933  0.2736
18950W        W35424   6.095   9.926   2.509 -0.5066 -0.2121  0.2843
18951W        W35425   3.360   1.746   3.180 -0.3157  0.0257 -0.6245
18952W        W35426  14.637   5.430   0.630 -0.0609  0.2080  0.0396
18953W        W35427   7.066  12.644  14.491 -0.2712 -0.0297 -0.0860
18954W        W35428  12.772  16.944   1.309  0.0636  0.2381 -0.1912
18955W        W35429   1.211   7.468  15.330  0.1238 -0.1461 -0.4007
18956W        W35430  11.162  15.516   4.078 -0.0340 -0.1064  0.0700
18957W        W35431   4.609  15.696  10.920 -0.1633  0.0949 -0.2361
18958W        W35432  16.675   7.111   2.668 -0.0538 -0.0358  0.0675
18959W        W35433  15.494   3.890  14.968  0.2281 -0.0216 -0.0695
18960W        W35434   7.320  14.510  15.628  0.1821  0.1092  0.0960
18961W        W35435   7.517   1.273  11.702  0.2516  0.3950 -0.2908
18962W        W35436  12.559   2.787  14.189 -0.4016 -0.3965 -0.0602
18963W        W35437   2.376   2.319  13.338  0.0711 -0.1363  0.0963
18964W        W35438   1.916  15.381   0.128 -0.1876  0.1554 -0.0310
18965W        W35439   4.731  16.427   1.667 -0.3018 -0.2874 -0.0462
18966W        W35440  16.097   2.406   4.974 -0.2480 -0.2377 -0.0519
18967W        W35441  12.742  12.443   5.995  0.0962 -0.1085  0.0288
18968W        W35442   0.360  18.178   0.321  0.0286 -0.0490 -0.1354
18969W        W35443  15.045  10.232   0.294  0.0395  0.1212  0.0966
18970W        W35444   8.251  11.693  13.311  0.0129 -0.3428  0.0980
18971W        W35445   5.654   3.585   2.955 -0.1993  0.1919  0.1035
18972W        W35446  10.623  16.690  14.214  0.0574  0.0409  0.2154
18973W        W35447   2.707  12.060   1.510  0.0542  0.0992 -0.1356
18974W        W35448  13.176   2.815  13.210  0.1834 -0.0190  0.0859
18975W        W35449   3.299  18.715   0.700  0.0356  0.1924  0.1031
18976W        W35450   5.974  16.073   1.346  0.1571 -0.0682 -0.0953
18977W        W35451  16.960   0.814  11.667  0.3009 -0.1792  0.1527
18978W        W35452   3.171  14.336   0.015 -0.0748 -0.2396 -0.0364
18979W        W35453  14.741  15.376   1.027  0.1910 -0.2960 -0.1343
18980W        W35454   3.816  12.464   2.146  0.2325 -0.0422 -0.1873
18981W        W35455  10.752   7.230   0.705 -0.2089 -0.0692 -0.1321
18982W        W35456   5.711  16.866   4.767  0.3313  0.3258 -0.0790
18983W        W35457   0.648  17.496  11.783  0.1876 -0.1069  0.2790
18984W        W35458   1.110  10.660  12.050 -0.3376  0.0430 -0.0958
18985W        W35459   4.788   7.914   3.406  0.1885  0.1330  0.1733
18986W        W35460   7.389   8.429   4.945  0.2639  0.0590 -0.0497
18987W        W35461   6.795  11.155  13.919 -0.2515  0.0758 -0.2259
18988W        W35462  12.299   8.484   3.519  0.2240  0.0230 -0.1462
18989W        W35463   4.401   7.544   5.948  0.1005 -0.0073  0.0278
18990W        W35464   9.330   9.004  13.723 -0.0062  0.1197 -0.0424
18991W        W35465   1.346  16.200   2.116 -0.2450  0.2346  0.0685
18992W        W35466  13.838   5.425  13.816  0.2682 -0.1636 -0.2288
18993W        W35467   9.803  14.477   5.029  0.3862 -0.0065 -0.0440
18994W        W35468  14.149  16.679  14.956 -0.4384 -0.0799 -0.3453
18995W        W35469  15.076   4.332   2.633  0.0936 -0.1267  0.0734
18996W        W35470  11.732  10.121   2.638  0.0071 -0.1317 -0.0715
18997W        W35471  13.799   0.012   5.630  0.0708  0.0328  0.0328
18998W        W35472  12.888   5.087  13.736 -0.1630 -0.0529  0.1061
18999W        W35473  12.892   7.725   2.600  0.5937  0.2377 -0.1503
19000W        W35474  15.947   1.022   3.046 -0.0364  0.1848 -0.1491
19001W        W35475  14.073  15.461  12.351  0.0735  0.0481  0.2475
19002W        W35476   0.975  13.262   4.860  0.0669 -0.1188  0.4008
19003W        W35477   7.051  18.672   0.988 -0.2803 -0.4207  0.1096
19004W        W35478  11.806  11.531  15.594  0.0469 -0.0039 -0.0843
19005W        W35479   1.678  17.658  10.560  0.0648  0.2317 -0.1900
19006W        W35480   0.422   1.462   2.065  0.2409 -0.0558 -0.0649
19007W        W35481   4.557   8.827   1.716  0.2149  0.3606  0.0101
19008W        W35482   5.474   4.477  11.667  0.1623  0.1077 -0.2842
19009W        W35483   4.246   1.314   2.197  0.3668 -0.3466  0.3636
19010W        W35484   5.659   7.400   2.359 -0.2082 -0.2551  0.2206
19011W        W35485  17.464   1.982  10.716  0.0286 -0.0812 -0.0897
19012W        W35486  15.187  10.951  10.500  0.2326  0.1146  0.2714
19013W        W35487  15.537  18.347   4.801  0.0976 -0.3199 -0.1236
19014W        W35488   1.436   4.255   4.584  0.2555 -0.2281 -0.1979
19015W        W35489  13.507  14.771  12.385  0.0020 -0.1221  0.1352
19016W        W35490  16.602  14.514  15.442  0.0224  0.0171  0.3427
19017W        W35491  14.650   2.726  10.879 -0.1614 -0.0622 -0.0258
19018W        W35492   7.889   4.623  12.928  0.0581  0.0826  0.4837
19019W        W35493  12.794  12.931   2.181  0.0345  0.0870 -0.3497
19020W        W35494  18.071   2.454   2.498  0.2210  0.1514  0.1078
19021W        W35495   9.727  12.282   0.541 -0.2566 -0.0083  0.2612
19022W        W35496   0.266   8.626  13.358 -0.0874  0.0027 -0.0689
19023W        W35497   4.218  13.215  14.204 -0.2468 -0.0939 -0.0166
19024W        W35498  16.834   5.299  12.432  0.0161  0.0011  0.0155
19025W        W35499  17.007   5.085  14.770  0.1059  0.2314 -0.2614
19026W        W35500  16.522  17.482   2.572 -0.3137 -0.1041 -0.0934
19027W        W35501   1.178   9.473  12.087 -0.0424 -0.3264 -0.3457
19028W        W35502  15.420  10.079  12.014  0.4239  0.0672 -0.0116
19029W        W35503  14.090   9.248  15.502  0.3138  0.1010  0.2504
19030W        W35504   8.295   1.543   4.696 -0.0972 -0.1266  0.1742
19031W        W35505   1.598  10.728   3.849  0.2245  0.2906 -0.2251
19032W        W35506  13.242   4.578   2.206 -0.2532 -0.0257 -0.0587
19033W        W35507  16.977  14.301   1.201  0.1926  0.1114  0.0331
19034W        W35508   7.302   9.388  11.775  0.2139  0.2211  0.0042
19035W        W35509   5.721   0.466   0.391 -0.2782 -0.1504 -0.1585
19036W        W35510  11.796   9.397  12.591 -0.0304  0.0923  0.0039
19037W        W35511   7.714   9.617   4.321  0.0896 -0.4023 -0.0611
19038W        W35512  14.806   4.816  14.348 -0.0340  0.2391 -0.0613
19039W        W35513  18.356  14.700  14.701 -0.1254 -0.0548  0.1076
19040W        W35514   2.468   3.442   1.402  0.2137  0.0936  0.1773
19041W        W35515  17.628   6.896   2.992  0.2576  0.2190  0.0519
19042W        W35516   5.716  15.746  14.698 -0.1969 -0.1573  0.2474
19043W        W35517  10.470   8.965  15.645 -0.1985  0.0027  0.1846
19044W        W35518  17.630   4.241   0.303 -0.1792 -0.0861 -0.3004
19045W        W35519   2.145  16.240  14.175 -0.0175  0.0707 -0.1921
19046W        W35520   2.907   9.441  15.175  0.1021  0.1044 -0.0594
19047W        W35521  12.829   5.152  15.208 -0.1695  0.0312 -0.1967
19048W        W35522  16.635  10.917   2.119  0.1045  0.0479 -0.2565
19049W        W35523  18.234   3.756   9.122  0.0974 -0.1047  0.0541
19050W        W35524   8.087  13.940   0.490 -0.0155 -0.3672 -0.1327
19051W        W35525  18.312  17.056   1.266  0.0961  0.2061 -0.0625
19052W        W35526  17.328   5.735   0.882 -0.3071 -0.0456  0.0717
19053W        W35527  15.622   5.009  12.292 -0.2451  0.1819  0.1098
19054W        W35528  17.312  15.025  13.062  0.1351  0.0690 -0.0798
19055W        W35529   9.887  16.073  13.328  0.1090 -0.1648 -0.4733
19056W        W35530  17.142  17.175   0.219 -0.0067 -0.0669  0.1224
19057W        W35531  16.297  13.760   3.095  0.0988  0.1835 -0.1876
19058W        W35532  13.718  15.496   1.840 -0.1380 -0.2549 -0.0585
19059W        W35533   6.927   6.855   0.472  0.0652 -0.1580 -0.2453
19060W        W35534   6.210   3.633  13.059 -0.2154  0.4225  0.1054
19061W        W35535   1.706  10.960   5.517 -0.2765  0.1434 -0.0062
19062W        W35536  10.257   3.437  15.204 -0.1096 -0.4741  0.2874
19063W        W35537   6.901  12.786   2.726  0.3317  0.0783  0.1159
19064W        W35538   2.304  10.281  14.853 -0.1893 -0.1337  0.1719
19065W        W35539   2.848   7.590  11.684  0.2741  0.0327  0.0587
19066W        W35540  15.637  18.400   0.693 -0.1230 -0.2531 -0.1673
19067W        W35541   3.437  13.247  12.369  0.3218  0.0781  0.0434
19068W        W35542  17.209   9.832   1.871  0.2962 -0.2902 -0.0065
19069W        W35543   7.004  13.575   5.122  0.2314 -0.0098  0.0551
19070W        W35544  11.398   0.900  15.465 -0.4573 -0.1509  0.0277
19071W        W35545   8.653   1.615  12.698 -0.1236  0.0618  0.0739
19072W        W35546   3.683  10.798   1.271 -0.0255  0.0979  0.0727
19073W        W35547   6.882   1.868   0.122 -0.0414 -0.0056 -0.0572
19074W        W35548  10.695  13.383  15.074 -0.2604  0.0604 -0.1921
19075W        W35549  17.435   9.521  14.885  0.0330 -0.1224 -0.2324
19076W        W35550   3.852  14.235  12.542 -0.0580 -0.0709 -0.2865
19077W        W35551   1.835  17.795  11.079 -0.1234  0.1519 -0.0050
19078W        W35552   0.682   7.549   2.668  0.2219  0.1194  0.0919
19079W        W35553  10.919  18.149  14.848  0.1857 -0.2930 -0.0781
19080W        W35554  16.057   4.039  15.613  0.0169  0.0289 -0.0000
19081W        W35555   1.204  17.876   0.916 -0.4480 -0.0657  0.0767
19082W        W35556  10.653   1.380   6.167  0.3590 -0.0206  0.1328
19083W        W35557  14.174  15.847  11.874  0.0873 -0.1439  0.0010
19084W        W35558  16.222  11.198   2.364  0.0221  0.0090  0.3849
19085W        W35559   1.057   3.744  13.265  0.0396 -0.0022  0.2588
19086W        W35560   3.742  15.418   1.144 -0.0430 -0.0153  0.1226
19087W        W35561   9.106   9.864   0.446 -0.0821 -0.0326  0.0698
19088W        W35562   3.961  16.605   4.984  0.0095 -0.0308  0.0617
19089W        W35563  12.578  14.002   3.369 -0.0241 -0.2948  0.1410
19090W        W35564   5.700  16.821   3.514  0.0533 -0.2260 -0.1441
19091W        W35565   3.402   1.063  15.330 -0.3252  0.4231  0.0750
19092W        W35566  17.719   1.835   9.704  0.1710 -0.0153 -0.0681
19093W        W35567   4.413  16.930   4.246  0.0938  0.4196  0.0081
19094W        W35568   4.894   7.305  12.646  0.2969 -0.1208 -0.1740
19095W        W35569   3.534  17.234   6.074  0.0258  0.0579 -0.1918
19096W        W35570   3.520   0.962   3.973  0.1074 -0.1830  0.0225
19097W        W35571   9.778   0.183  14.677  0.0842  0.2676 -0.0979
19098W        W35572   3.085   9.008  14.739  0.2750 -0.0737 -0.0888
19099W        W35573  10.832   1.991  11.035  0.1133 -0.0619  0.4187
19100W        W35574   0.430  16.430   0.721 -0.1719 -0.1740  0.0332
19101W        W35575   4.907   8.067   5.358 -0.0811  0.3856 -0.3719
19102W        W35576   3.002   8.852   2.550 -0.0302  0.3208 -0.3839
19103W        W35577   2.602  18.240   2.266  0.1112 -0.0474 -0.1915
19104W        W35578  16.010  15.335  11.609 -0.1147 -0.0302 -0.2758
19105W        W35579  15.844   8.798   3.766 -0.0997 -0.0014 -0.0422
19106W        W35580  13.254   9.024   4.859 -0.0743  0.1693 -0.1782
19107W        W35581   1.809  13.415  13.562 -0.1085 -0.0897  0.4451
19108W        W35582   7.408   3.069   2.692 -0.2344  0.0435  0.0767
19109W        W35583  18.158  12.527  10.988  0.1297  0.0335 -0.0585
19110W        W35584  15.784   9.310  15.146 -0.3548 -0.0391 -0.2046
19111W        W35585  17.562   7.134   5.106 -0.0146 -0.1048 -0.3143
19112W        W35586  10.007   5.649   4.708  0.0397 -0.2243 -0.2465
19113W        W35587  10.622   2.998   3.062 -0.2909 -0.1843  0.1681
19114W        W35588  12.127   8.683   0.827 -0.2905 -0.0577 -0.1184
19115W        W35589  13.119  13.001   4.819  0.1749 -0.0893  0.2321
19116W        W35590   8.964  15.626   4.367  0.0197  0.0602 -0.1591
19117W        W35591   4.228   6.364  10.512  0.0577  0.0613  0.2509
19118W        W35592   7.619   9.796   0.686 -0.1041 -0.0946 -0.0734
19119W        W35593   5.488  10.711   0.713  0.3899  0.2122  0.0314
19120W        W35594   4.916   5.979  13.527  0.1853 -0.0333  0.1889
19121W        W35595   8.233  17.512  11.962 -0.4201 -0.2608 -0.3173
19122W        W35596  16.243   4.502  12.840  0.1372 -0.0046 -0.1678
19123W        W35597  16.793   3.452  14.158 -0.0737 -0.0090 -0.0097
19124W        W35598   5.185   5.558   0.036  0.1333 -0.0933 -0.3623
19125W        W35599  13.939  15.662   5.197 -0.1550  0.2951  0.0170
19126W        W35600  18.248  16.136   2.112 -0.0284 -0.1977 -0.0156
19127W        W35601  12.430   0.079   3.633 -0.1227 -0.1284  0.1052
19128W        W35602   8.723  10.367  11.858  0.2991 -0.3040 -0.2607
19129W        W35603  17.275   7.064   0.467  0.0549  0.1084 -0.2715
19130W        W35604   1.979   8.791   2.503  0.1086 -0.1175  0.1111
19131W        W35605  13.744   7.926   3.699  0.0916 -0.1589  0.0977
19132W        W35606   2.510   4.844   3.707  0.1828  0.0759  0.3470
19133W        W35607  16.082   6.402   4.542 -0.5427  0.2625  0.0932
19134W        W35608  18.024   6.177   5.391  0.2593 -0.1409  0.0002
19135W        W35609  11.819  17.294  13.762  0.0800 -0.0513  0.1913
19136W        W35610   7.816   9.275   6.077  0.3667 -0.0893 -0.0392
19137W        W35611   4.862  10.178   0.791 -0.1699 -0.3145  0.2108
19138W        W35612   6.082   2.630   4.810 -0.0877  0.0307  0.1096
19139W        W35613   9.285   2.702   4.464  0.0311 -0.0586 -0.0157
19140W        W35614   7.683   1.824   5.274 -0.1425 -0.2162  0.1776
19141W        W35615   5.426   5.380   4.305 -0.0053 -0.0460 -0.0232
19142W        W35616   1.330   7.941   1.193 -0.0023  0.0208 -0.0826
19143W        W35617   0.838  10.542   5.626  0.2492 -0.1788 -0.1999
19144W        W35618  15.770  13.231  12.536 -0.0095 -0.0695 -0.0472
19145W        W35619  15.901   4.169  13.591 -0.1201  0.1548  0.1715
19146W        W35620   7.520   6.378  12.811 -0.0444 -0.0767  0.1873
19147W        W35621  15.448  12.911  10.715  0.2568  0.0687  0.1616
19148W        W35622   2.706  14.300   3.434 -0.1412  0.2150  0.2016
19149W        W35623   2.520   7.261  10.780  0.1296 -0.1308 -0.1904
19150W        W35624   1.352  18.398   3.339  0.1573  0.1607  0.0108
19151W        W35625  13.754  17.730   9.990 -0.0922  0.1871  0.1215
19152W        W35626   9.882   4.894  12.956  0.1470 -0.2990 -0.1962
19153W        W35627   8.764  16.574   3.382  0.0822  0.0539  0.0384
19154W        W35628   5.500   8.496  11.484 -0.1546  0.1112 -0.0950
19155W        W35629   2.780  18.762   3.571  0.4711 -0.1482 -0.1841
19156W        W35630  11.260  17.132   1.965  0.0387  0.2563 -0.2007
19157W        W35631  13.629  13.300   0.227  0.1235 -0.2208 -0.1686
19158W        W35632  18.328  14.521   2.117 -0.1316  0.0210 -0.0223
19159W        W35633   1.870   8.233   3.381 -0.1515  0.0649  0.1355
19160W        W35634  12.911   9.195  15.572  0.2590  0.0947  0.2222
19161W        W35635   4.590   4.103   3.797 -0.2324  0.0967 -0.1619
19162W        W35636   8.980  16.288  13.352 -0.2533  0.1677 -0.0080
19163W        W35637  12.425  11.996   2.127 -0.0060  0.1398  0.0396
19164W        W35638   0.723   8.865  13.597  0.1633  0.2323  0.1698
19165W        W35639  11.128   4.549   4.987 -0.4169 -0.0982 -0.1081
19166W        W35640   4.632  12.798  11.809 -0.0199  0.1888 -0.1698
19167W        W35641   0.433   3.317  15.042 -0.0372 -0.0186  0.1035
19168W        W35642   5.730   6.106   0.602 -0.3375 -0.1840 -0.0089
19169W        W35643  18.477  16.038  13.257  0.3124 -0.0181  0.1846
19170W        W35644   4.812  16.392   3.774 -0.0764 -0.2795 -0.2694
19171W        W35645  12.945   5.703   0.241  0.2535  0.0804  0.3675
19172W        W35646   0.131  12.793  12.764 -0.0969 -0.0076 -0.1029
19173W        W35647  11.125  12.265  14.289  0.0625  0.0715 -0.0926
19174W        W35648   6.055  16.942   2.615  0.0270  0.1067  0.0003
19175W        W35649  10.547   7.345  12.277  0.2454 -0.2852  0.0363
19176W        W35650  10.719  15.622   4.551 -0.3309 -0.1152 -0.0827
19177W        W35651  18.620   3.751   4.370  0.2147  0.1550  0.0374
19178W        W35652   2.780  13.650  11.469  0.1347 -0.1218  0.1838
19179W        W35653  11.380  13.724   0.149 -0.1156  0.2459 -0.1205
19180W        W35654   0.627  10.750   9.416  0.2477 -0.1097 -0.0754
19181W        W35655   9.579  18.540  14.906  0.0906 -0.4537  0.1662
19182W        W35656  18.264  12.225   3.827 -0.1257  0.1812  0.2143
19183W        W35657   6.855   8.727   0.180 -0.0948 -0.2693  0.3499
19184W        W35658  13.772   6.378   1.026  0.1710 -0.1446  0.0129
19185W        W35659  18.263   5.615  11.928 -0.1836 -0.2057 -0.0387
19186W        W35660   9.023  10.238  15.406 -0.1885 -0.0652 -0.3165
19187W        W35661   5.109   7.192   2.851 -0.2097  0.0773 -0.1231
19188W        W35662   5.184  13.626   0.866  0.3141  0.0649  0.0613
19189W        W35663   6.527   4.616  12.502 -0.0649  0.1673  0.0149
19190W        W35664  10.313   3.398   0.017  0.0341  0.0616 -0.1099
19191W        W35665   9.452  13.077  13.977 -0.2039  0.0513 -0.0365
19192W        W35666   6.075  17.345  10.502 -0.0350  0.2536  0.2069
19193W        W35667   2.003  17.379  10.799 -0.3694 -0.2060  0.1839
19194W        W35668  13.847  10.390   0.393  0.0861 -0.1454  0.1317
19195W        W35669  17.404  13.416  15.136 -0.0289  0.1790 -0.2468
19196W        W35670   1.223  11.057   3.044  0.0944  0.1248  0.4964
19197W        W35671   0.155  14.181   5.757  0.1904  0.1109  0.3593
19198W        W35672  12.978  14.440   3.571 -0.1419  0.0912  0.1002
19199W        W35673  14.736   6.661  14.996 -0.1975 -0.0917 -0.1864
19200W        W35674  16.418   0.612   2.516  0.1552 -0.1763  0.0215
19201W        W35675  14.825  17.871   0.387 -0.2120  0.0465 -0.0735
19202W        W35676  10.148   3.985  12.252 -0.0410  0.2763 -0.1854
19203W        W35677   7.901   8.623  13.714  0.1106 -0.1282 -0.1306
19204W        W35678   5.473   3.429  15.658  0.4154  0.1321 -0.1143
19205W        W35679   3.187   4.026   4.176  0.0971  0.2242  0.3331
19206W        W35680   7.950  13.797   2.512 -0.1562 -0.0738 -0.2345
19207W        W35681  12.060  10.788   6.014 -0.0385 -0.3754  0.2088
19208W        W35682  10.113   6.181   5.854 -0.0559  0.0663  0.0405
19209W        W35683   3.140   4.160   3.171 -0.1703  0.0145  0.1498
19210W        W35684   3.302   6.018   4.381 -0.1564  0.2520  0.1851
19211W        W35685  12.228   3.834  14.114  0.2601 -0.2652  0.0978
19212W        W35686  10.659   9.760  12.562  0.1591 -0.1153 -0.0377
19213W        W35687   4.988  17.841   2.696 -0.0155  0.1373  0.3358
19214W        W35688  10.784  17.424  11.071 -0.0663 -0.1341  0.0422
19215W        W35689   8.383  13.913   1.406  0.0425 -0.1215 -0.0486
19216W        W35690  12.029  15.018  12.672 -0.1444 -0.6938 -0.3486
19217W        W35691   8.321   3.889  13.080 -0.2704  0.2255  0.3799
19218W        W35692   3.800   6.619  10.553  0.1047  0.0300 -0.1781
19219W        W35693  17.558   6.728   3.441 -0.0395 -0.2515 -0.1389
19220W        W35694   6.277  10.446  10.582 -0.3483  0.0627 -0.2248
19221W        W35695  11.526  15.146   3.765  0.1248  0.1983 -0.0165
19222W        W35696   7.925  13.367  12.066  0.1851  0.1755 -0.3656
19223W        W35697   2.255   2.242   0.732  0.0014  0.0453 -0.1254
19224W        W35698  11.343   0.304   4.491  0.2628  0.0702 -0.1148
19225W        W35699   3.600   7.044   4.292 -0.1781  0.0327 -0.0833
19226W        W35700   7.952  13.243  14.607  0.1604  0.1135 -0.0937
19227W        W35701  18.684   3.654   0.086 -0.2790  0.1677 -0.1539
19228W        W35702  11.370   3.000   0.619 -0.1613 -0.3302 -0.0420
19229W        W35703   8.641   7.341  14.615 -0.0251 -0.0884 -0.1792
19230W        W35704   5.102   3.327   3.722 -0.2326  0.1398 -0.2554
19231W        W35705   2.529  18.653   2.604  0.0278  0.0989  0.2987
19232W        W35706  12.047   6.261   0.609  0.1260  0.2033  0.1847
19233W        W35707   2.536  17.736  14.830  0.1314  0.1981  0.0817
19234W        W35708   9.346   1.494  13.838  0.0686 -0.0132  0.0176
19235W        W35709   8.783   4.019  13.214  0.1404 -0.3588 -0.0354
19236W        W35710  14.350   1.358   2.964 -0.1183 -0.3351  0.3708
19237W        W35711  17.240  17.431  12.693 -0.1184 -0.0402  0.2771
19238W        W35712  14.839   0.288  13.855  0.0611  0.2048  0.1040
19239W        W35713  10.096   4.693  13.973  0.3239  0.1060  0.3979
19240W        W35714   8.774  10.916  14.993 -0.2193  0.0912  0.1362
19241W        W35715   7.359  14.438   1.475 -0.0403 -0.0561 -0.1238
19242W        W35716   3.380   8.024  12.762 -0.1905  0.1955  0.0302
19243W        W35717  16.587  13.643  13.068  0.2093 -0.0562 -0.0592
19244W        W35718  11.121  16.577  14.629 -0.0040  0.2011  0.2087
19245W        W35719  11.487   6.936   1.639 -0.0279  0.0220  0.4440
19246W        W35720   4.863  18.846   5.104 -0.0495 -0.0708  0.2206
19247W        W35721   2.681   3.837  13.168  0.0111  0.0351  0.0853
19248W        W35722   1.099   8.837   2.837 -0.1826  0.0096  0.0975
19249W        W35723   0.316  11.238  13.520  0.0962 -0.1529 -0.2845
19250W        W35724   8.893   7.665   4.841 -0.4153 -0.3679  0.0535
19251W        W35725  12.564  14.630  15.294  0.0292  0.2774  0.0050
19252W        W35726  16.742  11.057  15.133  0.0247 -0.1023 -0.0784
19253W        W35727  13.053  12.660   0.274 -0.1565 -0.0045  0.0290
19254W        W35728   1.792  10.564   0.739 -0.0348  0.0871  0.0353
19255W        W35729   4.361   1.483  11.901 -0.0137  0.0037  0.0667
19256W        W35730  14.870   9.738   0.610 -0.1926 -0.0315 -0.0165
19257W        W35731  11.500   0.340   3.329  0.1512  0.0715 -0.2398
19258W        W35732   4.192  11.110   4.609  0.0889 -0.0089  0.4925
19259W        W35733  16.995   4.423   1.302 -0.2287  0.0700 -0.0297
19260W        W35734  14.146   4.936   1.405 -0.1254 -0.1215 -0.1461
19261W        W35735  10.363   6.679   1.640  0.0331 -0.0543  0.2512
19262W        W35736  14.378  11.679  12.714  0.0096 -0.0860 -0.0588
19263W        W35737   9.403  12.135  11.794 -0.2945  0.1227 -0.3479
19264W        W35738  17.695  12.326   3.746  0.2828  0.1371  0.3845
19265W        W35739   0.697   0.117  12.698 -0.0360 -0.3376  0.0297
19266W        W35740  15.635  17.520   4.242  0.0869 -0.4273  0.0895
19267W        W35741   8.192   2.569   2.985  0.3002  0.2181  0.0388
19268W        W35742  16.054   7.357   4.423 -0.0643  0.0122  0.0197
19269W        W35743   5.889   1.645   4.938 -0.0072  0.0989  0.1185
19270W        W35744  11.776   3.095   3.085  0.0105  0.2654 -0.0933
19271W        W35745  12.470   9.743   1.520  0.2128  0.0465  0.0679
19272W        W35746   0.540   2.186   9.934 -0.1608 -0.0527  0.0563
19273W        W35747  12.580  15.101   2.582 -0.1168 -0.3728 -0.0211
19274W        W35748   5.774  15.730   3.811  0.3059 -0.0218  0.3276
19275W        W35749   1.350   7.574   4.829  0.0863  0.1306  0.0475
19276W        W35750  13.294  11.352  11.962  0.1837  0.0762  0.2067
19277W        W35751  14.535   2.257  12.214  0.0245 -0.1039 -0.1908
19278W        W35752  18.639   6.406  14.817  0.0372  0.0592 -0.0183
19279W        W35753   8.860   5.142   5.242 -0.0779  0.0078 -0.0112
19280W        W35754   1.048   9.538  14.363 -0.4202 -0.1095 -0.1876
19281W        W35755   5.069   4.464  13.058 -0.0491 -0.0744 -0.1606
19282W        W35756   9.547   6.040  13.640 -0.0863  0.1705  0.2713
19283W        W35757  16.205   1.827  14.120  0.3279 -0.1256  0.1246
19284W        W35758   6.120   3.706   2.847 -0.1245 -0.0557 -0.2370
19285W        W35759   8.206  11.509   2.835  0.5395 -0.3631 -0.1473
19286W        W35760   2.321  14.225   4.723 -0.0408  0.0456  0.5037
19287W        W35761  18.075  15.369  11.750 -0.0094  0.2298  0.0678
19288W        W35762   7.264  11.349  14.972 -0.2073 -0.3485  0.1379
19289W        W35763  10.883  13.922   3.743  0.1573 -0.0899 -0.0384
19290W        W35764   0.423   5.405  13.011  0.0385  0.0132  0.2260
19291W        W35765   0.287  12.363  10.772 -0.0030  0.2362 -0.3969
19292W        W35766  14.354   2.004  14.675  0.0227  0.0690  0.0264
19293W        W35767  10.117   2.612  11.957  0.0086 -0.2425  0.0693
19294W        W35768   4.520  17.921  15.184 -0.0221 -0.0808 -0.2007
19295W        W35769   9.302  16.208  12.286  0.1623 -0.0470 -0.0115
19296W        W35770   8.205  12.907  11.824 -0.3145 -0.0935  0.0220
19297W        W35771  12.720  13.782   2.909 -0.2191 -0.2251 -0.1591
19298W        W35772  14.193   4.231  12.856  0.1437 -0.0311  0.0962
19299W        W35773  12.614   7.563  13.814  0.0221 -0.1621  0.0650
19300W        W35774   0.908   3.527  13.801  0.1494  0.0349 -0.0429
19301W        W35775  17.599   4.428   4.038  0.2045 -0.2872 -0.3071
19302W        W35776   1.149  10.068   3.490  0.0716 -0.0957 -0.2117
19303W        W35777   2.392  15.743   1.739 -0.2939  0.4567 -0.2083
19304W        W35778  12.699  10.616  14.703 -0.1325 -0.0025 -0.0714
19305W        W35779   1.312   0.603   2.873  0.0412 -0.2051 -0.1226
19306W        W35780   6.625  12.653  14.740 -0.2314 -0.1281  0.1689
19307W        W35781  16.999   5.746  11.662  0.2803  0.1197  0.1615
19308W        W35782  11.818  18.730   3.351  0.2615 -0.0510  0.2386
19309W        W35783  16.896   1.238  10.506  0.1563 -0.0624 -0.3324
19310W        W35784   4.026  18.136   1.811 -0.2654 -0.1944 -0.1055
19311W        W35785   2.058  16.103   1.465 -0.0032 -0.0142 -0.2079
19312W        W35786   7.645  17.918   4.910 -0.2153 -0.0355 -0.1095
19313W        W35787   6.137  12.888  15.109 -0.0334  0.1402 -0.2869
19314W        W35788   1.268  11.707  11.535 -0.1815  0.0628 -0.1505
19315W        W35789   4.844  13.156   1.912 -0.1975  0.1219  0.3368
19316W        W35790  12.126   4.381   3.380 -0.1822 -0.0505  0.3013
19317W        W35791   1.250   5.371  14.249 -0.0252 -0.0404 -0.0046
19318W        W35792   3.026   5.716   3.386  0.3540 -0.0201 -0.1955
19319W        W35793  10.387   0.761   2.545  0.2275  0.2374 -0.1134
19320W        W35794  18.077  12.800   0.716  0.0872  0.0954 -0.1254
19321W        W35795   2.893   2.081  11.632  0.0585  0.0138  0.4609
19322W        W35796   5.667   4.957   0.766 -0.0890 -0.1528 -0.0233
19323W        W35797  17.356  15.054  11.349 -0.0038 -0.3546 -0.1352
19324W        W35798   3.888   1.284  13.484 -0.2606 -0.0633  0.0093
19325W        W35799   5.001  10.448  14.772 -0.1862 -0.2747  0.0894
19326W        W35800  11.852   6.646   1.039  0.0060 -0.1357  0.1424
19327W        W35801   6.127   1.050   1.406 -0.2551  0.4589  0.0589
19328W        W35802   1.134   0.333   2.246 -0.1650 -0.0603 -0.1515
19329W        W35803   6.400   7.614  13.067  0.2015 -0.0849  0.2133
19330W        W35804  10.734  10.054   3.355  0.0176 -0.2115  0.0392
19331W        W35805   7.025   0.116  12.229 -0.2733  0.0060 -0.1826
19332W        W35806   3.826   9.872   4.245  0.2897  0.2300  0.0847
19333W        W35807  13.952   9.146   6.118 -0.2058  0.3287 -0.0915
19334W        W35808   9.849   2.816   1.811 -0.1022 -0.0487  0.0585
19335W        W35809   3.591   5.952  10.935 -0.2307 -0.4374 -0.2336
19336W        W35810  16.040   6.947  10.947 -0.2233  0.0196  0.0928
19337W        W35811   1.627  10.356  11.970 -0.1175  0.0337 -0.1147
19338W        W35812  13.695  13.572  11.745 -0.1164 -0.1060  0.2976
19339W        W35813   4.020   2.443   2.046 -0.3707  0.4528  0.0748
19340W        W35814   1.358   5.551  15.265 -0.3912  0.3375 -0.1357
19341W        W35815  12.037  16.178   3.357  0.0972 -0.0744  0.1193
19342W        W35816   5.248  18.359   2.628 -0.1792 -0.0065  0.3178
19343W        W35817  15.500   2.339  12.444  0.1013  0.0311 -0.0297
19344W        W35818   2.824   0.437   1.353 -0.2519 -0.1013  0.2404
19345W        W35819  17.741  10.262  12.408  0.3100  0.2856 -0.1326
19346W        W35820   2.268  10.299  11.392  0.4734  0.2180 -0.3511
19347W        W35821   0.746   0.361   1.612 -0.0436 -0.2822  0.2593
19348W        W35822  17.504   2.299  15.438  0.0747 -0.2813 -0.3517
19349W        W35823   7.189   5.214   0.318  0.0101 -0.0581  0.2070
19350W        W35824  13.655   7.725   0.738  0.1886  0.1188  0.2930
19351W        W35825   3.130   8.786  10.379  0.0492  0.0657  0.0915
19352W        W35826   6.726   1.902   1.885  0.3404  0.1432 -0.2070
19353W        W35827   0.872  10.532   0.968 -0.0125 -0.1541 -0.2123
19354W        W35828   6.975  15.758  14.340  0.3618 -0.2199 -0.0580
19355W        W35829  12.423  14.404   3.630  0.1300 -0.1293  0.0215
19356W        W35830   4.487   8.693   4.021  0.0423 -0.0138  0.1648
19357W        W35831  18.115   9.569   0.257 -0.0680  0.1133 -0.1980
19358W        W35832   4.561   0.395   0.957  0.2704 -0.2842 -0.3770
19359W        W35833   6.551   4.239   2.210 -0.2121  0.2705  0.1107
19360W        W35834  13.435   3.103   1.909  0.2319  0.1149  0.1220
19361W        W35835   0.970  11.931  13.283 -0.0122  0.2726 -0.2196
19362W        W35836   2.270  15.892   5.497 -0.4779  0.0492 -0.4822
19363W        W35837  11.825  10.884  13.296 -0.0359  0.0841  0.2349
19364W        W35838  15.043  13.027   4.398 -0.1705  0.0440  0.1298
19365W        W35839  10.779  11.089   4.873  0.0066 -0.1929  0.0262
19366W        W35840   7.083   9.208   0.892 -0.3193 -0.1208  0.0780
19367W        W35841  18.685  18.332  15.096  0.2505  0.2328 -0.2030
19368W        W35842   3.823  14.683   4.858  0.3650 -0.0904  0.2309
19369W        W35843   9.128  10.417   4.370  0.2547  0.1032  0.3145
19370W        W35844   9.084   6.567   0.246  0.1380 -0.2590 -0.0531
19371W        W35845  13.632  17.105  14.290  0.3207  0.2859  0.1400
19372W        W35846   6.144  10.271  12.874  0.4141  0.1625  0.1775
19373W        W35847   4.000  16.569   1.386  0.2033 -0.2226  0.1326
19374W        W35848   6.353  11.968  14.092 -0.0588  0.2632 -0.0363
19375W        W35849   9.364   9.718  12.029  0.0987  0.1404 -0.2195
19376W        W35850  10.803  10.092   0.894  0.0724 -0.2114  0.0514
19377W        W35851   7.276  16.377   3.551  0.0678  0.5641 -0.0934
19378W        W35852   4.304   9.876   5.041 -0.1276 -0.1340 -0.0119
19379W        W35853  11.553  12.391  13.006 -0.1737  0.0683 -0.1435
19380W        W35854  15.978  13.651   1.456  0.1902  0.0829  0.2142
19381W        W35855   9.558   5.169  12.257  0.0247 -0.1307  0.0916
19382W        W35856  14.412   2.681   4.406  0.4708  0.0385  0.1768
19383W        W35857  14.414   4.101  13.763 -0.4634 -0.1946 -0.0649
19384W        W35858   3.780  13.393   5.074  0.0004 -0.0503 -0.0195
19385W        W35859   6.668   7.405   2.259 -0.1029 -0.0639 -0.1271
19386W        W35860   4.331  10.507  15.666 -0.2286  0.1110 -0.0047
19387W        W35861  18.297   7.188  11.813  0.0838 -0.0744  0.2059
19388W        W35862   9.901   4.328  15.543  0.3058  0.0107  0.0526
19389W        W35863  12.364   1.977  13.031 -0.2906  0.2276  0.1908
19390W        W35864   9.781   0.584   1.357 -0.2088  0.4070 -0.3530
19391W        W35865  13.318   9.978   3.259 -0.2193 -0.1357  0.1623
19392W        W35866   3.316   9.697  15.399  0.0203 -0.0619  0.3772
19393W        W35867  11.919   7.457  13.694  0.0115 -0.4404  0.1526
19394W        W35868   8.666   8.979  11.824  0.0899 -0.3061  0.2407
19395W        W35869   8.686   6.078   5.526 -0.0443 -0.1209  0.0632
19396W        W35870  16.802  12.800   0.867  0.0545 -0.0188  0.1941
19397W        W35871   1.586  14.203  11.979  0.1099  0.0840 -0.1409
19398W        W35872  17.898   1.590   2.135 -0.0544  0.0205  0.1240
19399W        W35873   1.692  17.178  13.014 -0.1232 -0.1399  0.3101
19400W        W35874   9.578   1.552  12.543 -0.2022 -0.1004 -0.0310
19401W        W35875  11.784   8.303   1.535 -0.2674  0.0525 -0.1275
19402W        W35876   8.033   3.146   4.053  0.0132  0.1685  0.0550
19403W        W35877  10.409   1.107   1.889  0.5089 -0.1505 -0.0375
19404W        W35878  14.659   3.005   3.384  0.0267  0.0734  0.1534
19405W        W35879   9.355   7.506   3.272  0.0788 -0.1251 -0.4189
19406W        W35880   1.506  12.165   3.920 -0.1868 -0.2513 -0.1421
19407W        W35881   9.700   9.856   1.505 -0.0689 -0.1824 -0.0168
19408W        W35882   2.518  10.390  10.341 -0.0309  0.0848 -0.1747
19409W        W35883  13.509   5.196   2.977  0.0316 -0.0263  0.1379
19410W        W35884   7.686  11.299  13.640 -0.0358  0.0700  0.1506
19411W        W35885  15.676  13.836  14.156 -0.1657  0.2443 -0.3963
19412W        W35886   7.636   8.223  13.744  0.0791 -0.1654  0.1812
19413W        W35887  13.494   3.098  12.352 -0.0957 -0.2522  0.2646
19414W        W35888  18.828   5.810   1.490  0.3929  0.0807  0.0630
19415W        W35889  11.706  16.006   0.264  0.0882 -0.2449 -0.2457
19416W        W35890   9.992   6.064   0.454 -0.1744 -0.2524  0.1177
19417W        W35891   0.285  15.473   3.051  0.2477  0.0424  0.0808
19418W        W35892   0.022   3.168  14.044 -0.4751  0.0727 -0.2155
19419W        W35893   2.786  18.475  11.043  0.1969 -0.1262  0.0574
19420W        W35894   5.537   3.752   1.357  0.0692  0.2571 -0.2308
19421W        W35895   3.754  17.476  10.951 -0.0697  0.3328 -0.0563
19422W        W35896  18.084   8.275   1.952 -0.0561 -0.1279 -0.0371
19423W        W35897  12.438   9.943  13.977  0.2014 -0.5518  0.0613
19424W        W35898   6.571  15.238  15.555  0.0331  0.2923 -0.3599
19425W        W35899   1.636   3.720  13.248  0.2635 -0.0351  0.2168
19426W        W35900  17.067  18.560  14.227 -0.1489  0.1295 -0.0238
19427W        W35901   0.478   0.546  12.462 -0.2358  0.1218 -0.0545
19428W        W35902  18.259   9.703   1.982  0.1567  0.0636 -0.2090
19429W        W35903   9.833  18.148  12.741 -0.2317  0.0654  0.0607
19430W        W35904   5.161   9.462  15.218 -0.1384 -0.3756  0.0784
19431W        W35905  14.213   5.364   0.330 -0.0913 -0.0855 -0.1889
19432W        W35906  15.390   6.887  14.798 -0.1173 -0.0263 -0.0203
19433W        W35907   6.963  17.772   3.894  0.0487 -0.1974  0.3116
19434W        W35908  17.666  10.405   2.305 -0.1238  0.0511  0.4000
19435W        W35909   6.523  13.173   1.139 -0.0508 -0.3301  0.2558
19436W        W35910   9.654  14.513  12.550 -0.0871  0.2494  0.2087
19437W        W35911   0.265   2.914  14.770 -0.2141  0.3232  0.1275
19438W        W35912   9.737  12.034  13.876 -0.0300 -0.1372 -0.2384
19439W        W35913  18.327   9.647   3.400 -0.0942 -0.0608 -0.3415
19440W        W35914  13.584  12.129  14.278  0.0027  0.0636 -0.0460
19441W        W35915   7.872  14.354   2.205 -0.3762 -0.3804 -0.2775
19442W        W35916   5.585  14.078   2.306  0.0095 -0.5629 -0.1273
19443W        W35917  11.630  10.937   3.205 -0.2360  0.4063 -0.0103
19444W        W35918  12.383  11.122   2.275 -0.3166  0.2826 -0.1819
19445W        W35919  13.545  13.967  12.676 -0.2534  0.0072  0.1737
19446W        W35920  16.272   4.321   3.443  0.1458  0.3187  0.0194
19447W        W35921   5.407   7.662  11.571  0.0621  0.1031 -0.0153
19448W        W35922   0.846  12.345   2.298  0.3269 -0.0780  0.1213
19449W        W35923   1.253   6.476  14.200  0.3347  0.0733 -0.1668
19450W        W35924  11.734   1.260   3.396 -0.0178  0.5162  0.0878
19451W        W35925  18.465  11.228   0.396 -0.0237 -0.3282 -0.1359
19452W        W35926   9.052   9.094   4.791 -0.1297 -0.0220 -0.2729
19453W        W35927  10.753  16.430  10.738  0.0995 -0.2833  0.0398
19454W        W35928   9.833  12.863  11.302  0.1731 -0.0293  0.2834
19455W        W35929  15.647   6.605   4.869  0.1788  0.0815 -0.0460
19456W        W35930   0.867   0.040   2.927  0.3649  0.0373  0.2055
19457W        W35931  11.719   6.714   2.114 -0.2407 -0.0141  0.2716
19458W        W35932   0.681   4.576   0.059  0.1220 -0.2758  0.0831
19459W        W35933  13.292  11.612  11.174  0.1523 -0.0240  0.4946
19460W        W35934   3.841  12.286  15.323  0.1412  0.1861  0.2307
19461W        W35935  15.657  11.965  14.077 -0.5362 -0.1776  0.1501
19462W        W35936  11.632   7.060  13.584 -0.2556  0.1703 -0.0099
19463W        W35937  15.136  18.352   1.499 -0.0568  0.0431  0.0096
19464W        W35938  12.842   1.684   4.502 -0.4241 -0.1712  0.0748
19465W        W35939   7.113   2.117   3.483  0.1661 -0.0333  0.2214
19466W        W35940  14.422   0.920  13.121  0.0054  0.1111  0.2906
19467W        W35941   1.341  15.113  12.239 -0.3013 -0.1700  0.4644
19468W        W35942  16.449   6.822  11.117 -0.0945 -0.0165 -0.0932
19469W        W35943  14.262   3.299  12.894 -0.0163  0.1921 -0.1123
19470W        W35944   2.316  12.007  11.126 -0.0978 -0.1860 -0.0754
19471W        W35945  16.411  16.925   1.180  0.1405  0.4856 -0.0919
19472W        W35946  16.121   3.779  12.090  0.0181  0.1065  0.1271
19473W        W35947  16.967  12.422  12.003  0.1507 -0.1894  0.2449
19474W        W35948   2.945   8.210   5.561  0.0001  0.2849 -0.0104
19475W        W35949  17.279  12.152   3.067  0.0219 -0.0932 -0.2147
19476W        W35950  11.995   7.805   5.888 -0.1270  0.0545 -0.1157
19477W        W35951   2.397   2.966  14.088 -0.0400 -0.0812  0.0274
19478W        W35952   2.462   3.156   3.831  0.2343 -0.1930 -0.0355
19479W        W35953   1.781   4.348  13.030  0.3153  0.2204  0.3187
19480W        W35954   8.220   0.528   5.762  0.0380  0.1658  0.1627
19481W        W35955   3.954  17.194   4.706 -0.2673  0.0330  0.0300
19482W        W35956  14.066   2.843   3.015  0.1307 -0.0742 -0.0649
19483W        W35957   0.415   2.324  10.885 -0.0724  0.0353  0.0180
19484W        W35958   6.458  11.145   0.619 -0.2388 -0.0437 -0.2700
19485W        W35959   0.292   1.429  11.279  0.2011  0.0217 -0.1038
19486W        W35960  11.329  12.110  12.012  0.0589  0.1453  0.2195
19487W        W35961  10.165   8.958   0.416 -0.0211 -0.0856 -0.3912
19488W        W35962  13.124   6.902  11.548 -0.1115 -0.3537 -0.2163
19489W        W35963   9.389   7.373   5.552  0.1578 -0.0568  0.0379
19490W        W35964  18.158   9.866  11.902 -0.0751 -0.0541 -0.1982
19491W        W35965   8.324   8.909  12.307 -0.2442 -0.0907  0.0715
19492W        W35966   9.961  13.007   5.870  0.0299 -0.5387 -0.0857
19493W        W35967  14.222   3.930  15.677  0.3248 -0.0675  0.1586
19494W        W35968  15.989  10.564   9.941  0.1808 -0.0175 -0.1425
19495W        W35969   9.950  12.766   4.473  0.0438 -0.0595  0.1474
19496W        W35970  10.941   8.195   2.752  0.1366  0.1683  0.0066
19497W        W35971   5.458   3.894   0.418  0.1359  0.3242  0.0124
19498W        W35972   6.481  16.815  11.859 -0.3243  0.1318 -0.0332
19499W        W35973   9.775  17.396   0.190 -0.1119  0.0444  0.0038
19500W        W35974   8.277   6.958  12.095 -0.0754 -0.1482 -0.1799
19501W        W35975  17.114   7.504  12.727  0.4582  0.1942 -0.2070
19502W        W35976   8.732   3.363  10.405 -0.2158 -0.1005 -0.4708
19503W        W35977  14.008  13.645   1.686 -0.2290 -0.1891  0.3874
19504W        W35978   8.999  12.429   0.933  0.1474  0.1467  0.1160
19505W        W35979   6.422   8.380  14.276 -0.0365 -0.1833  0.1311
19506W        W35980   5.065   0.084   1.611  0.3616  0.0682  0.3851
19507W        W35981  18.223   7.362   0.338 -0.0234  0.1509 -0.3389
19508W        W35982   9.109  11.536  11.800  0.5105  0.0620  0.0397
19509W        W35983   6.837  11.022   0.130  0.0231 -0.1228 -0.1273
19510W        W35984   4.412  17.705   1.920 -0.0356  0.0680  0.0079
19511W        W35985   7.917   2.494   2.551 -0.1766 -0.1483 -0.2502
19512W        W35986   0.279  12.596   5.967 -0.0320  0.3833  0.1475
19513W        W35987   0.299  14.396  13.555 -0.2962  0.0348  0.1204
19514W        W35988   5.111  11.696   0.336 -0.2746  0.2113 -0.0924
19515W        W35989  16.298  11.498   0.522  0.5355 -0.1942 -0.0329
19516W        W35990  13.065   2.950  11.340  0.2939 -0.0317  0.0673
19517W        W35991  13.444  18.766  12.873  0.0403 -0.1827 -0.2188
19518W        W35992  18.674   9.080   1.860  0.1771  0.0297 -0.3164
19519W        W35993  16.520   9.799  11.533 -0.3081 -0.0492  0.1091
19520W        W35994  14.895  14.842  15.454  0.2611  0.0146  0.0907
19521W        W35995   1.425   6.297  13.729 -0.0913 -0.2266 -0.3315
19522W        W35996   4.098  11.459  13.699  0.1406  0.1499  0.1691
19523W        W35997   3.728  12.946  15.374 -0.1121  0.1090 -0.0418
19524W        W35998  12.348   8.935   4.548 -0.0483 -0.1296 -0.1332
19525W        W35999   5.098   0.715  12.774  0.3006 -0.0194  0.0099
19526W        W36000   9.974   6.642  13.031  0.1530 -0.1884  0.0159
19527W        W36001   1.416   2.472   5.999  0.0537 -0.2969 -0.2051
19528W        W36002   2.182   7.911  11.878 -0.0668 -0.2130 -0.2112
19529W        W36003  10.382  14.789  15.660 -0.2558  0.0410 -0.1838
19530W        W36004   8.505   1.156   0.778  0.1758 -0.0243 -0.1820
19531W        W36005  13.104   2.716  14.330 -0.0128 -0.1075 -0.1628
19532W        W36006  14.220   4.748   5.132  0.0890  0.4727  0.1397
19533W        W36007   4.789  18.660  14.478 -0.1719  0.1388 -0.0636
19534W        W36008   3.058   7.134  12.547  0.0331 -0.1114  0.1516
19535W        W36009   2.961   7.566   3.900 -0.0722 -0.0583  0.0476
19536W        W36010   0.052   0.986   2.996 -0.0598 -0.0895  0.1892
19537W        W36011  12.547   8.821  13.264 -0.3358  0.1009 -0.1583
19538W        W36012  10.279   8.878  14.013 -0.0454  0.2236 -0.2601
19539W        W36013   3.074   6.562  15.420  0.1759  0.4637  0.1853
19540W        W36014   5.334  14.959  12.800 -0.1237  0.2678  0.1195
19541W        W36015  14.499  17.626  14.839 -0.0755 -0.0089 -0.1967
19542W        W36016   5.227   8.865   3.309  0.5214  0.0868 -0.2169
19543W        W36017  17.468  12.386  15.241 -0.3550 -0.0526 -0.2940
19544W        W36018  18.572  14.943   1.998  0.1951 -0.2825 -0.0044
19545W        W36019   7.770  10.673  14.255 -0.2407  0.4601  0.0866
19546W        W36020   2.028   1.884   3.792  0.0085 -0.0653 -0.2614
19547W        W36021   7.323   5.584   3.045  0.3689 -0.1343  0.1155
19548W        W36022  17.373  18.792   3.033 -0.2249  0.1243  0.2785
19549W        W36023   5.274  12.623  11.411 -0.1884 -0.1239 -0.0957
19550W        W36024  17.032  17.722  10.813 -0.1199  0.1862  0.0392
19551W        W36025   5.523   6.621   1.930  0.0770  0.0110 -0.0156
19552W        W36026   1.585  15.467   3.830  0.0643 -0.4482  0.2293
19553W        W36027   4.541   3.817  15.630  0.0707  0.0545 -0.1549
19554W        W36028   9.922   5.946   0.938 -0.0248 -0.2205  0.1297
19555W        W36029  16.291  12.919   3.577  0.1060  0.0808  0.0427
19556W        W36030   0.519   4.403   1.352  0.1034  0.2304 -0.2106
19557W        W36031  11.229  17.344   1.066  0.1575  0.0473 -0.3817
19558W        W36032  18.190   7.666  13.634 -0.1668 -0.1515 -0.0064
19559W        W36033  15.216   9.438   0.916 -0.4305 -0.0200  0.2745
19560W        W36034  17.376  17.719   2.250  0.0147  0.1506 -0.2168
19561W        W36035   9.357  10.898   1.485  0.1727  0.0909 -0.3858
19562W        W36036   6.114   0.712  13.180  0.1040  0.1987  0.1274
19563W        W36037  11.844  15.851   1.877  0.2411  0.2387  0.2185
19564W        W36038  17.904   4.722  10.778 -0.3754  0.0747 -0.0364
19565W        W36039   9.595  11.970  15.238  0.2618  0.0144  0.2331
19566W        W36040  14.964   8.554   1.585  0.0233 -0.1870 -0.0126
19567W        W36041   0.837   8.175   0.948 -0.1004 -0.0608  0.2370
19568W        W36042   1.514  18.573   0.484  0.1948  0.3671  0.2679
19569W        W36043  15.622  10.220  10.539 -0.3112  0.0804 -0.0232
19570W        W36044   5.042  14.174   1.066  0.2581 -0.2795  0.2043
19571W        W36045  18.643   1.543   1.695 -0.2553  0.0180 -0.1945
19572W        W36046  18.352   3.251  13.906 -0.2735 -0.0658  0.1575
19573W        W36047   1.900   2.488   1.516  0.1695 -0.0054  0.0914
19574W        W36048  16.306  16.721  13.048  0.0027 -0.0891 -0.0458
19575W        W36049   2.227   5.932  12.164  0.0447 -0.1877 -0.0883
19576W        W36050   3.616  16.850  11.414 -0.0073  0.1414 -0.0134
19577W        W36051   1.039  15.530   5.437  0.0886  0.2446 -0.1603
19578W        W36052   4.338   0.805   1.371  0.0405  0.1469  0.0270
19579W        W36053   1.355   0.260   0.760 -0.0116 -0.1133 -0.3242
19580W        W36054  18.296  10.869  14.737  0.1083 -0.1908 -0.2244
19581W        W36055  14.072  15.994   4.180 -0.1842  0.0547  0.3923
19582W        W36056  18.388  10.738   1.918  0.2175  0.0674 -0.1393
19583W        W36057  17.811   6.636  15.277  0.0485  0.3695  0.1129
19584W        W36058  13.542  12.271  15.191 -0.2265 -0.0385  0.0405
19585W        W36059   8.815  17.567   4.487  0.0100  0.1585 -0.0870
19586W        W36060   9.183   7.285  11.883  0.3898 -0.1895 -0.1761
19587W        W36061  11.065   8.496   5.007 -0.2606  0.3732 -0.3702
19588W        W36062   9.006   4.589   3.199 -0.2615  0.0372 -0.0259
19589W        W36063   6.420  13.935  12.902 -0.0969 -0.0859  0.0846
19590W        W36064   6.955  10.641  11.731  0.0023  0.2278 -0.1989
19591W        W36065   0.430   9.387  15.521 -0.0760 -0.0611 -0.0244
19592W        W36066   0.556  10.072  12.788  0.1564  0.2195 -0.2551
19593W        W36067  10.394   3.521  14.507 -0.0248 -0.0589 -0.1369
19594W        W36068   9.471  13.668   0.082  0.0720  0.0146  0.0078
19595W        W36069  17.417   3.900  11.485 -0.0613 -0.2127  0.1589
19596W        W36070  18.145   2.608  15.061 -0.0871 -0.2918 -0.1321
19597W        W36071   4.215  17.790   5.737 -0.0531 -0.0078  0.1694
19598W        W36072  10.789  12.757  13.000 -0.1289 -0.0593  0.0421
19599W        W36073   4.068   6.979   4.044  0.0409  0.3155  0.0198
19600W        W36074   4.149  13.496   5.402  0.0872  0.0835  0.1039
19601W        W36075   8.321  16.768  12.527 -0.1010  0.0264 -0.0210
19602W        W36076   4.825   1.065   5.692  0.0635  0.4469  0.2335
19603W        W36077   3.712   7.295  11.745 -0.3459  0.1197  0.0240
19604W        W36078   8.120  10.628   2.900 -0.2015  0.3350  0.2283
19605W        W36079  18.156   3.038   1.992 -0.0846 -0.1564 -0.0181
19606W        W36080   3.536  10.290   4.471 -0.1523  0.0440 -0.0133
19607W        W36081   5.926  18.054  15.050 -0.0272 -0.2748 -0.0348
19608W        W36082   7.257  10.186  13.827 -0.1003 -0.0520 -0.4483
19609W        W36083   0.026   0.912   4.202  0.0175 -0.5018  0.0899
19610W        W36084  13.170  10.292   4.805 -0.4613  0.1752 -0.0621
19611W        W36085  18.095   4.259  12.825 -0.1146 -0.3417  0.0862
19612W        W36086   6.425   6.509  13.678  0.1749 -0.0239 -0.4672
19613W        W36087   8.597   4.431   5.690  0.2207  0.1940 -0.1174
19614W        W36088   5.102   9.112  14.446 -0.0896 -0.0665 -0.0857
19615W        W36089  18.335  10.728  13.898 -0.2353  0.3925  0.1461
19616W        W36090   3.010   2.315  13.524  0.0211 -0.0502  0.1828
19617W        W36091  11.286   3.271  13.306  0.2400 -0.2619 -0.2647
19618W        W36092   1.234  14.460  14.385 -0.0571  0.1557 -0.2057
19619W        W36093   7.211  18.577  12.640  0.1059 -0.0040  0.0279
19620W        W36094   1.119  11.996   3.237 -0.3049 -0.0144 -0.1935
19621W        W36095  11.121  14.261  15.109  0.0357  0.0421 -0.3127
19622W        W36096   6.137   7.254  11.965 -0.1345 -0.1159 -0.0083
19623W        W36097   4.153  17.076  14.045  0.2092  0.0887  0.0969
19624W        W36098   3.815  14.061   3.847  0.1594  0.0783 -0.1225
19625W        W36099  14.730  14.199   5.746  0.0781  0.0940 -0.0102
19626W        W36100   6.729   4.539   1.815 -0.0162  0.1174 -0.2260
19627W        W36101   1.390  12.340   1.492 -0.1135 -0.0793  0.0061
19628W        W36102  16.829  12.344   2.249 -0.1920  0.3038 -0.2461
19629W        W36103   1.689   5.652   2.690 -0.0884 -0.2589  0.0076
19630W        W36104  13.616  11.359   5.103  0.0516 -0.0815 -0.1851
19631W        W36105   4.237  10.525   3.284 -0.0769 -0.1121  0.3287
19632W        W36106   9.295  14.424  14.500  0.4191  0.4094  0.0836
19633W        W36107   4.957  16.712  11.462 -0.0307  0.1484  0.4743
19634W        W36108   5.006   9.950   4.332  0.1230  0.1622  0.0253
19635W        W36109  16.275  14.846  15.032 -0.1380 -0.1426  0.1112
19636W        W36110   3.223   5.576  11.950  0.2040  0.2041  0.0139
19637W        W36111  13.582   6.754  11.685 -0.3748 -0.0446  0.0044
19638W        W36112  10.149   4.598   0.760 -0.0153 -0.4316  0.1788
19639W        W36113   0.049  18.259   3.667 -0.0334 -0.0097 -0.1391
19640W        W36114  16.451   1.326  14.699 -0.2625 -0.0204  0.0946
19641W        W36115   1.473   9.470   2.857  0.0564  0.2010 -0.0827
19642W        W36116  14.593   3.475   3.381  0.1228  0.0094 -0.0689
19643W        W36117  11.806   6.755  13.161 -0.0368  0.0737  0.0761
19644W        W36118   6.076   7.250  11.061 -0.1448  0.1708  0.2531
19645W        W36119  16.719  13.356  11.689  0.2768  0.2565  0.2463
19646W        W36120  16.103  15.291   2.819  0.0898  0.1120 -0.2241
19647W        W36121   0.341   1.392  12.985 -0.2654  0.2008 -0.2549
19648W        W36122  16.878   6.207   0.067 -0.0680  0.0269 -0.2247
19649W        W36123   0.866   1.814  10.755 -0.1696  0.2095 -0.1223
19650W        W36124  18.807   1.113  11.477  0.0283 -0.1799 -0.0792
19651W        W36125  15.080   2.519   2.183  0.1287 -0.2153  0.0118
19652W        W36126  14.717   2.771   0.054 -0.2344 -0.1425  0.1080
19653W        W36127   7.779   3.350   3.080 -0.2189 -0.2955  0.0166
19654W        W36128  18.141  18.249  10.483 -0.2321  0.0912 -0.3011
19655W        W36129   2.326   3.614   3.101  0.1295  0.1545  0.0227
19656W        W36130   3.509  13.170  11.633 -0.1833 -0.0915 -0.0410
19657W        W36131   9.393   0.854  12.688  0.1550  0.0017  0.1359
19658W        W36132   0.309   3.129  10.908 -0.0187  0.0364 -0.0132
19659W        W36133   0.806  14.471   4.287  0.0635 -0.2517  0.0998
19660W        W36134   9.615   4.918  13.740  0.1201  0.3662  0.0898
19661W        W36135   7.716   3.420   2.478 -0.2179  0.5064  0.2204
19662W        W36136  11.386  10.230  12.216 -0.0124 -0.1138  0.1301
19663W        W36137  12.629  18.771   5.051 -0.0204  0.1049  0.0621
19664W        W36138   1.518  10.719  10.754 -0.1438 -0.2493 -0.2504
19665W        W36139   3.073   5.227   4.939  0.4111 -0.0068 -0.1903
19666W        W36140  10.343   5.415  12.625 -0.2386 -0.1176 -0.2674
19667W        W36141   6.799   5.632   4.738 -0.0617 -0.0561  0.0272
19668W        W36142  10.761  11.426   2.199 -0.1426  0.0023  0.2556
19669W        W36143   3.236   4.376  13.248 -0.2502  0.3043  0.0075
19670W        W36144  12.614   8.183  12.492 -0.0757  0.3912 -0.2187
19671W        W36145   0.225  16.497  13.149 -0.1578  0.0483  0.1841
19672W        W36146   2.484  12.901  15.251  0.2148  0.2330 -0.1713
19673W        W36147   0.123   5.275  10.752  0.0197  0.3445  0.1728
19674W        W36148   0.211   5.984   2.971 -0.3086 -0.0658  0.1461
19675W        W36149  10.389  15.314  13.292  0.0678 -0.1993  0.0061
19676W        W36150   3.892   1.091   4.382  0.1665 -0.2597 -0.3509
19677W        W36151   9.273   7.756  15.287  0.0398 -0.1932  0.0708
19678W        W36152   2.040  10.469   5.473 -0.0541  0.3160  0.0459
19679W        W36153   7.410   3.843   4.915  0.2246  0.0670  0.3015
19680W        W36154  13.552  10.248   2.927  0.0843 -0.1138 -0.0950
19681W        W36155  17.514  13.448   0.984  0.0492 -0.3342  0.0458
19682W        W36156   9.149   8.081   2.669  0.0691  0.0169 -0.0427
19683W        W36157   9.054  10.001  14.178 -0.2760 -0.2723 -0.1349
19684W        W36158   6.166  12.094   0.594 -0.2158 -0.0045 -0.0539
19685W        W36159   8.321  18.638   4.034 -0.1313 -0.3007  0.1627
19686W        W36160  16.609   0.623   1.048  0.1410  0.1138  0.1217
19687W        W36161   5.434  14.054   2.802 -0.0130  0.2660 -0.2082
19688W        W36162  18.575   5.235  14.082  0.0185 -0.2811 -0.1417
19689W        W36163  13.078   9.925  12.518 -0.2192  0.5559  0.0580
19690W        W36164   7.870   0.379   2.383  0.3067  0.0969 -0.3379
19691W        W36165   0.374   9.222  12.611 -0.1865 -0.2197 -0.0198
19692W        W36166   6.384   0.818   4.958 -0.0795  0.1043 -0.1027
19693W        W36167  15.045   8.568   4.856 -0.1655 -0.2420 -0.3261
19694W        W36168   5.043   7.084  11.502 -0.2971 -0.2664 -0.3906
19695W        W36169  15.091   4.282  11.886  0.0580  0.0020  0.0821
19696W        W36170   4.427   4.518  11.634  0.3435 -0.5051 -0.1873
19697W        W36171   5.493  12.011   3.743 -0.1142  0.1242 -0.1304
19698W        W36172   6.511   0.729  14.532 -0.3714 -0.1814  0.2210
19699W        W36173   7.867  18.543  15.255  0.0064  0.1165 -0.0420
19700W        W36174  16.563  18.055  10.858  0.1424  0.2269 -0.2022
19701W        W36175  13.252   7.153  15.066 -0.2512 -0.1077 -0.2771
19702W        W36176  12.321   6.709  13.081  0.1530 -0.1495  0.0721
19703W        W36177   1.334   4.037   5.042  0.0890  0.1037  0.1846
19704W        W36178  14.536   3.543   2.600 -0.1797  0.2529  0.0053
19705W        W36179   1.234   6.502   1.242  0.1458 -0.2198 -0.1579
19706W        W36180   3.087  14.869  12.488  0.0345 -0.0729  0.0081
19707W        W36181   8.372   2.711  11.620 -0.1161  0.1824 -0.0629
19708W        W36182  18.614   8.862   4.943 -0.1113  0.1795 -0.3599
19709W        W36183  16.744   9.731   1.670  0.0198 -0.0827  0.1750
19710W        W36184  14.160  14.691  13.664 -0.0690  0.0868 -0.1517
19711W        W36185   3.634  16.333   2.404  0.1352  0.2664 -0.1306
19712W        W36186  12.963   8.207   2.384  0.2766 -0.1644 -0.2833
19713W        W36187   0.300  13.821  10.235 -0.1735 -0.1714  0.2645
19714W        W36188   5.729   6.870  14.257  0.1162 -0.2702  0.3169
19715W        W36189  14.793  10.220   2.229 -0.0976 -0.0049 -0.2081
19716W        W36190   5.243  16.685   4.391  0.0602  0.1459  0.0824
19717W        W36191   2.235   9.660  13.708 -0.2396 -0.1827 -0.3686
19718W        W36192   0.446   9.293  13.572 -0.1769  0.0782  0.1425
19719W        W36193  18.376  17.431  12.647 -0.4162  0.1138  0.3244
19720W        W36194   6.085  16.673   4.311  0.0223 -0.1048  0.0138
19721W        W36195   9.971  18.235  12.268 -0.0704  0.0932  0.3048
19722W        W36196   0.379  15.987  14.028  0.0991  0.1106 -0.0616
19723W        W36197  18.721   1.903   3.740 -0.1972  0.0580 -0.1356
19724W        W36198   9.306   8.475   3.555  0.0510 -0.1016 -0.0959
19725W        W36199   4.602   5.257   3.473 -0.0210  0.0150 -0.0384
19726W        W36200  16.089  17.585   2.335  0.1140  0.3622 -0.2379
19727W        W36201   6.101  15.656  13.096 -0.2039  0.0589  0.0018
19728W        W36202   8.663   4.584   3.924 -0.0949  0.0765 -0.0761
19729W        W36203   5.243   1.689  10.981 -0.3708  0.0573 -0.3339
19730W        W36204   4.781  12.495   5.159  0.3848  0.1001  0.1753
19731W        W36205   0.566   9.262   0.750  0.1034 -0.1932 -0.0893
19732W        W36206  16.147   8.116   0.154  0.0414 -0.1031  0.2898
19733W        W36207   0.498  12.936  11.586 -0.1060  0.2045  0.0778
19734W        W36208   5.992   5.182  14.712 -0.1865 -0.0654  0.0063
19735W        W36209  14.416  18.514   5.584 -0.1077 -0.4545  0.1306
19736W        W36210   4.484  16.044  11.797 -0.0728  0.1480  0.1158
19737W        W36211  18.552   4.612   2.431 -0.4893 -0.0027 -0.1159
19738W        W36212   8.812  13.331  13.904 -0.0841 -0.3514  0.1438
19739W        W36213   2.656  11.267  14.570 -0.0207  0.0957  0.0416
19740W        W36214  13.276  14.105  13.132  0.3874  0.0731 -0.0821
19741W        W36215   3.367   2.319   1.548 -0.1703  0.2236 -0.1027
19742W        W36216   5.584  11.805   3.219  0.0025  0.0449 -0.0668
19743W        W36217  13.465   5.444  14.210 -0.0695 -0.3948 -0.1966
19744W        W36218   3.936  14.454  11.969 -0.1321  0.1386 -0.1473
19745W        W36219   1.183   8.101  14.111 -0.0484 -0.2711  0.0696
19746W        W36220   1.239  13.931  14.343 -0.0607 -0.0973 -0.1070
19747W        W36221  18.824  14.009   5.295  0.0333 -0.0569 -0.0020
19748W        W36222   4.818  15.569  14.507  0.3563  0.1638  0.1968
19749W        W36223   7.993   9.410  15.173  0.0806 -0.0802 -0.4110
19750W        W36224   4.659   9.503  14.349 -0.0729  0.1872 -0.0276
19751W        W36225  17.056  14.048   3.903 -0.0841  0.0482 -0.0584
19752W        W36226   4.146   7.544  15.527  0.3004 -0.2944  0.0199
19753W        W36227  16.996   7.993  14.194  0.0521 -0.1010 -0.2056
19754W        W36228  15.183  10.944   1.287 -0.1345 -0.0522  0.0944
19755W        W36229   2.983  10.647  12.894  0.0496 -0.2139 -0.1696
19756W        W36230   2.561   1.698   1.167 -0.0978 -0.2438 -0.1875
19757W        W36231   0.375  18.106  13.367  0.0907  0.0086  0.0130
19758W        W36232   9.470   1.780   1.205  0.4517 -0.0653 -0.0883
19759W        W36233   8.868  18.520  15.611 -0.1746  0.2671  0.4556
19760W        W36234   9.685   6.476   5.720  0.2395 -0.0149  0.1126
19761W        W36235   0.552  10.713  10.744  0.0874  0.1280  0.3181
19762W        W36236   2.757   3.131   2.950 -0.0432  0.1740  0.1213
19763W        W36237   5.364  11.812  12.894  0.0459  0.6477  0.3378
19764W        W36238  14.422   9.997   0.693 -0.0612 -0.0472  0.0825
19765W        W36239   4.200   5.584   3.447  0.1640 -0.0601  0.0467
19766W        W36240  10.988  12.899  13.473 -0.0251 -0.1801 -0.3964
19767W        W36241   0.650   8.719  11.936  0.1657 -0.0751 -0.1342
19768W        W36242   0.266   0.831  15.000 -0.2915 -0.1598 -0.5535
19769W        W36243  15.007  13.536   1.711  0.0063 -0.0001 -0.2567
19770W        W36244   5.408   6.161   1.174 -0.0860 -0.1393 -0.0446
19771W        W36245   8.175  11.456   1.239  0.0975 -0.0672 -0.2459
19772W        W36246  12.509  10.910   4.608 -0.1606  0.0225 -0.1871
19773W        W36247  14.971   3.580  11.138 -0.6388 -0.1948  0.2362
19774W        W36248  15.985   6.272   2.689  0.1487 -0.1161 -0.1228
19775W        W36249   6.188   6.886  14.522 -0.2517 -0.1267  0.1789
19776W        W36250  16.779  12.101  10.506  0.0483 -0.1151 -0.1592
19777W        W36251  12.750   0.841  14.973 -0.3297 -0.1222  0.1155
19778W        W36252   3.983  17.057   5.202 -0.0829 -0.1414 -0.0689
19779W        W36253  15.074  10.842  14.525 -0.1098  0.0817 -0.0978
19780W        W36254   2.244  18.534   1.035 -0.1620 -0.0299  0.3877
19781W        W36255   1.926  12.045   4.959 -0.1308  0.1736  0.2954
19782W        W36256   7.748  11.828   1.342  0.1287  0.0769 -0.1569
19783W        W36257  16.635   2.525   2.061  0.0576 -0.0206 -0.3026
19784W        W36258  12.727   3.771  14.233  0.0510  0.2609  0.0978
19785W        W36259  18.786  12.320   3.132 -0.0816  0.1957 -0.2834
19786W        W36260  18.505  14.787   2.478 -0.0727  0.1919 -0.2763
19787W        W36261  18.128  16.611   4.481  0.3042  0.0457 -0.2449
19788W        W36262   7.975  10.418  13.380 -0.3227 -0.0341  0.1708
19789W        W36263  18.354   4.112   4.520  0.1819  0.2201  0.0326
19790W        W36264  15.811  15.368   4.095 -0.3403  0.2920  0.1313
19791W        W36265   6.632  13.852   0.391 -0.0195  0.2419  0.0312
19792W        W36266  12.732   2.559  13.351 -0.0675  0.4758 -0.0362
19793W        W36267   4.587  16.962  14.191 -0.1106 -0.4674  0.1300
19794W        W36268  18.649   9.517   3.923 -0.0981  0.1291 -0.1401
19795W        W36269   2.314  15.713   2.229 -0.0575  0.0887 -0.4668
19796W        W36270   7.197   9.982   0.790  0.1518  0.1872  0.1297
19797W        W36271   5.876   7.799   1.367  0.0301 -0.1717 -0.1890
19798W        W36272  17.278   7.948   4.726 -0.0288  0.0919 -0.5372
19799W        W36273   7.065  17.336   1.927 -0.0888  0.0290  0.2544
19800W        W36274   5.046  15.177   2.367  0.0067  0.0573  0.1234
19801W        W36275  10.089  12.236  13.564  0.0711 -0.0580 -0.2341
19802W        W36276   3.957   7.272  11.260 -0.1181 -0.2899  0.1567
19803W        W36277  10.594   6.344  11.705  0.2274  0.1346 -0.1574
19804W        W36278   2.219   0.431   3.036  0.0252  0.1453  0.2363
19805W        W36279   2.104   2.004   2.371  0.2174 -0.1997 -0.3176
19806W        W36280   3.632  16.101  12.943 -0.0598  0.1627  0.0997
19807W        W36281   4.686  17.951   3.219 -0.1114  0.0961  0.0833
19808W        W36282  10.701   4.987  15.246  0.0798  0.3876  0.1606
19809W        W36283   7.900  14.148   3.652  0.0042 -0.3304  0.2009
19810W        W36284   7.487   5.141  11.992 -0.1670 -0.3964 -0.2758
19811W        W36285  17.068   6.704   0.222  0.0045  0.0531  0.0616
19812W        W36286  13.758   2.292  13.990  0.0769  0.3565 -0.3286
19813W        W36287   6.912   4.563  13.231 -0.2925 -0.1516  0.3975
19814W        W36288  17.743   5.955  13.225  0.0767 -0.1313 -0.0944
19815W        W36289   9.475   0.981  15.252 -0.1909 -0.1066 -0.3321
19816W        W36290  10.001   0.665  13.986  0.2640 -0.1175 -0.1080
19817W        W36291  10.302   5.078  13.796  0.1532 -0.3781  0.2502
19818W        W36292  13.720  14.479   3.156  0.3175 -0.2002 -0.0287
19819W        W36293   9.251   4.589   5.013  0.1208  0.1926 -0.1815
19820W        W36294   3.558  16.057  14.663  0.0332 -0.0208  0.2008
19821W        W36295   8.222  12.699   6.002  0.0233 -0.3580  0.1585
19822W        W36296   3.092  16.878   3.221 -0.0286 -0.1194  0.1384
19823W        W36297   3.272  12.714  12.555 -0.1461 -0.1331  0.2740
19824W        W36298   7.254   6.241   1.266  0.1761  0.2397 -0.1606
19825W        W36299   1.345  14.999  10.699 -0.1098  0.1120 -0.1577
19826W        W36300   9.709   6.251   1.388 -0.1745  0.0593 -0.1715
19827W        W36301   7.847   3.663   1.216  0.0675  0.1990 -0.0137
19828W        W36302   3.767  18.808   2.468 -0.0216 -0.1089  0.0017
19829W        W36303  16.706   7.987   0.483  0.1175  0.1158  0.3900
19830W        W36304  18.477  16.140   0.995  0.2111  0.1450  0.2216
19831W        W36305   6.354   4.951   4.814 -0.1241 -0.0927 -0.2613
19832W        W36306  18.668   3.732   3.265  0.0969 -0.2862 -0.2004
19833W        W36307   4.167  12.092   4.458  0.3492 -0.1476  0.1440
19834W        W36308   9.562   4.320   2.957  0.0602 -0.0331 -0.0993
19835W        W36309   1.807  10.091  13.565  0.0570 -0.1206 -0.0015
19836W        W36310  17.541  14.538   4.336  0.0010  0.0997 -0.3272
19837W        W36311   7.748   6.784  12.207 -0.2901  0.0905 -0.4620
19838W        W36312   3.894   0.211  14.466  0.0916  0.1094 -0.3853
19839W        W36313  16.298   6.944   3.334 -0.0935  0.1583 -0.0109
19840W        W36314   2.162  16.952  14.963 -0.3820  0.1329  0.0381
19841W        W36315   4.280  15.465   3.782  0.0614  0.2756 -0.2916
19842W        W36316   0.648  14.915   0.262  0.0484 -0.1439  0.2379
19843W        W36317   2.327   1.451   5.668 -0.2282  0.0132 -0.1269
19844W        W36318   1.768  16.779  12.492 -0.1296  0.1174  0.2744
19845W        W36319   1.135   5.394  15.657  0.2207  0.0201 -0.0273
19846W        W36320   3.355  11.317   2.581 -0.0481 -0.0758 -0.3287
19847W        W36321   5.795  15.927  15.177  0.2055  0.0815 -0.2165
19848W        W36322   8.665  17.391   2.120 -0.1242 -0.0420 -0.0087
19849W        W36323  11.259  14.074   2.978 -0.0603 -0.1365 -0.0712
19850W        W36324  14.563   1.914  13.608  0.2045  0.1211 -0.0187
19851W        W36325   4.404   6.606   0.018  0.1210  0.3567 -0.2862
19852W        W36326   0.027   5.182   4.344  0.0596 -0.0628 -0.3151
19853W        W36327   5.748   7.123  15.682 -0.1079 -0.2554  0.1487
19854W        W36328  13.282   2.917   4.456  0.0410 -0.0138  0.0684
19855W        W36329   3.139   7.524  14.847  0.2411  0.2440  0.1259
19856W        W36330   0.583   4.450   0.787  0.0048  0.3939 -0.2355
19857W        W36331  10.698   8.231  14.956  0.0191 -0.3781  0.1655
19858W        W36332   0.584   3.660  11.157  0.2012  0.1955 -0.1521
19859W        W36333   9.813   3.563   5.679  0.0969 -0.1878 -0.3332
19860W        W36334  17.699   7.226   3.437  0.1694 -0.0698 -0.0078
19861W        W36335   6.347   7.165   3.118 -0.0169 -0.2967  0.0507
19862W        W36336   5.716   9.712   0.877  0.2679 -0.2695  0.2516
19863W        W36337  16.035   0.618  15.179 -0.0334 -0.2787 -0.0447
19864W        W36338   4.763   9.171  14.850  0.2984 -0.1405  0.0046
19865W        W36339   8.125   7.747  10.207 -0.1969 -0.2021 -0.4552
19866W        W36340   3.511   2.164   3.592 -0.2399 -0.0648  0.0822
19867W        W36341   0.628  16.801  13.785 -0.1978 -0.4016 -0.1593
19868W        W36342  12.060  12.328   1.666  0.0526  0.0879  0.0057
19869W        W36343   9.355   9.489   0.760  0.2629 -0.0501  0.2151
19870W        W36344  11.524   3.908  14.661 -0.0344  0.1397 -0.3387
19871W        W36345   9.932   2.825   2.305 -0.3587 -0.1744 -0.2139
19872W        W36346   7.903   2.918   2.294 -0.2137 -0.0330  0.3007
19873W        W36347  15.136   6.965   2.538  0.0879  0.1095  0.0142
19874W        W36348  17.177   7.526   1.211 -0.0597  0.1144 -0.5714
19875W        W36349   6.131  17.186   0.902  0.4394 -0.0133  0.2706
19876W        W36350   1.850  15.309  11.918 -0.0478  0.0299 -0.0367
19877W        W36351  14.613  11.059   5.104  0.0070  0.1446 -0.2328
19878W        W36352   2.665  11.670  10.923  0.1695  0.0963 -0.1749
19879W        W36353  15.527  16.432   0.279  0.2469 -0.2943  0.1817
19880W        W36354   9.985   3.916   4.901  0.0949 -0.1979 -0.1011
19881W        W36355  14.467   2.198   1.343  0.0478 -0.0798 -0.0494
19882W        W36356  18.698  18.717  13.854 -0.1072 -0.0849  0.0234
19883W        W36357  11.932   0.324  14.431  0.0265 -0.0575 -0.0909
19884W        W36358  14.114  14.231   2.982  0.3230 -0.0452  0.2873
19885W        W36359   8.351   4.430   3.212 -0.1288  0.1331 -0.3316
19886W        W36360  15.469  14.088  15.037  0.0122 -0.2630 -0.0487
19887W        W36361   4.783   5.727  11.086 -0.0986 -0.1487 -0.0409
19888W        W36362  11.985  16.696  12.925 -0.0156  0.3105 -0.2013
19889W        W36363   8.021  18.182  11.663  0.3956 -0.0700  0.0184
19890W        W36364  16.170   9.007  15.347  0.0809 -0.3279 -0.3951
19891W        W36365   3.201   8.395  14.838 -0.0315 -0.0859  0.4130
19892W        W36366   5.236  10.473  11.590  0.0264  0.1950  0.1855
19893W        W36367   7.490   6.102   4.750 -0.2433  0.3910  0.2636
19894W        W36368   3.965   5.954  15.213 -0.0105  0.1197 -0.3531
19895W        W36369  18.557  17.864   0.197  0.0495  0.1332 -0.0705
19896W        W36370  10.071  10.315  11.693  0.1867  0.0091 -0.0065
19897W        W36371   7.836   9.776   3.828 -0.1816 -0.1884 -0.1796
19898W        W36372   5.395  16.926  12.660 -0.0781  0.2471 -0.0664
19899W        W36373  10.481  17.501   1.055  0.4295  0.0245  0.0267
19900W        W36374  12.414  10.858  12.476  0.0100  0.0400  0.2767
19901W        W36375   0.698  12.698  11.995 -0.0734  0.1640 -0.3738
19902W        W36376   6.729  16.589  13.761 -0.1655  0.0876 -0.0158
19903W        W36377   2.150   1.370   1.981  0.3606 -0.2762  0.3770
19904W        W36378   6.548  16.936   0.892 -0.0833  0.0514 -0.0847
19905W        W36379  11.343   8.584  10.851 -0.1924  0.0784  0.0504
19906W        W36380   2.422   9.443  14.947 -0.1608 -0.0441 -0.1641
19907W        W36381   4.658   1.775   4.506  0.1833 -0.1172  0.0877
19908W        W36382   3.478  15.138  12.747 -0.0793  0.2387  0.2197
19909W        W36383  13.405  10.090  11.145 -0.1094 -0.1928  0.0382
19910W        W36384   4.782   3.182   0.680  0.1899  0.2298  0.2185
19911W        W36385   2.466  17.906   1.915 -0.0749 -0.0709  0.0277
19912W        W36386   6.086   7.946  13.172  0.0711 -0.2069  0.0063
19913W        W36387   7.629   6.652   3.654  0.0419  0.0765 -0.0713
19914W        W36388   8.543   1.972   4.830  0.1095 -0.0316  0.0540
19915W        W36389   9.327   6.329   4.073  0.0037 -0.3412 -0.2355
19916W        W36390   0.068  14.662   2.731 -0.0563 -0.5617 -0.1322
19917W        W36391  17.628  14.884   1.316  0.0402  0.1331  0.1744
19918W        W36392   7.572   7.007   0.924 -0.0534  0.0588  0.1996
19919W        W36393   6.863  18.290  15.104 -0.0325  0.0274 -0.0789
19920W        W36394  13.404  13.022   3.369  0.1593  0.1871  0.0046
19921W        W36395   4.810  13.679  11.624 -0.2363 -0.1886 -0.3239
19922W        W36396   1.675  11.101  15.001  0.2256  0.0470  0.0797
19923W        W36397   3.088   6.182  13.241 -0.2934  0.3776 -0.2225
19924W        W36398   3.088   9.521   4.344 -0.2079 -0.0178 -0.1834
19925W        W36399   5.281   5.109   4.908 -0.1888  0.0306  0.2294
19926W        W36400  16.593  11.912   2.627  0.4039  0.0071  0.0733
19927W        W36401   3.678   8.296  13.080 -0.1431  0.3471  0.3654
19928W        W36402  12.153  17.020   3.162  0.2719  0.3511  0.1691
19929W        W36403  13.203  16.233   4.305  0.2322  0.1814  0.0746
19930W        W36404   3.328  10.697  14.727 -0.2679  0.0641  0.0256
19931W        W36405  17.038   7.052  12.514 -0.1579 -0.2914  0.1519
19932W        W36406  10.243  14.217   4.987 -0.0430 -0.0412 -0.0195
19933W        W36407  15.752   0.518  10.748 -0.1150 -0.0014  0.0814
19934W        W36408   7.846  11.225  12.646  0.3054  0.0033 -0.0740
19935W        W36409  15.846   3.636  12.455 -0.3555 -0.0828  0.0647
19936W        W36410   9.284  11.452   2.193  0.2839 -0.0093 -0.0014
19937W        W36411  16.826  10.288   3.204  0.3264 -0.1574  0.2442
19938W        W36412  11.720   2.885   4.788 -0.0104  0.1340  0.1176
19939W        W36413   4.656  17.991  10.951  0.2333 -0.2151  0.1960
19940W        W36414   6.899   2.217  15.409  0.2205  0.0141  0.1345
19941W        W36415  17.270  10.672  13.984 -0.0321  0.1169 -0.0509
19942W        W36416  13.571   8.560   4.715  0.0817  0.2191  0.1197
19943W        W36417  16.168   1.511  12.527  0.1558  0.1728  0.3809
19944W        W36418  15.497   7.053   0.614  0.2210 -0.1798 -0.1648
19945W        W36419  13.058  16.437  14.376  0.0070  0.4306  0.1110
19946W        W36420   7.632  14.792   2.102 -0.0331  0.1113  0.1990
19947W        W36421  18.043   7.405   3.705  0.2831  0.3203  0.3317
19948W        W36422  14.720  16.078  15.503 -0.2795  0.0361  0.0093
19949W        W36423   7.574   4.939   0.229 -0.4178 -0.3225  0.0294
19950W        W36424  10.489   0.682   4.403  0.2123  0.0295 -0.0791
19951W        W36425   0.220  16.633  15.421 -0.2625 -0.1955  0.0259
19952W        W36426  18.225  17.436  12.053 -0.1453  0.1986  0.1607
19953W        W36427   2.941   0.861   1.598  0.0522 -0.0766  0.2500
19954W        W36428  17.409  14.590   2.526  0.0632 -0.2455  0.2498
19955W        W36429   9.838   6.348   3.930  0.1638 -0.2203 -0.0411
19956W        W36430  18.841  15.880   1.246 -0.1753 -0.0060 -0.1315
19957W        W36431  16.483   9.792  12.871 -0.3542 -0.0990 -0.1921
19958W        W36432   3.160   7.543  15.346 -0.3146  0.2721 -0.0651
19959W        W36433  13.574   4.859  11.292  0.0671  0.1760 -0.1813
19960W        W36434   5.487   4.041   3.601  0.2027 -0.0056 -0.2030
19961W        W36435  13.454  13.885  13.491 -0.2037 -0.1563  0.1886
19962W        W36436   4.541   3.019  14.004  0.2291  0.0403  0.0795
19963W        W36437   4.527   0.537   2.383  0.0731  0.0426  0.0797
19964W        W36438   7.940  16.268   1.403 -0.0041  0.2513 -0.1651
19965W        W36439  15.830   8.897   2.686 -0.1305  0.2685  0.2143
19966W        W36440  14.639   5.672  12.167  0.0769 -0.2354  0.0394
19967W        W36441  11.544   1.318   4.851 -0.1270 -0.3473  0.0970
19968W        W36442   6.099  16.189  13.978  0.0826 -0.0132  0.0632
19969W        W36443  15.904  18.248  13.871 -0.0280 -0.1240 -0.1414
19970W        W36444   5.729  17.090  13.019 -0.1506 -0.1350 -0.0297
19971W        W36445  17.774   2.378   0.582 -0.1979 -0.1589 -0.1456
19972W        W36446  16.876   0.570  13.785  0.1197 -0.1314  0.0897
19973W        W36447   4.588  15.933  15.616  0.2675  0.1734  0.1745
19974W        W36448  17.962  11.476   9.234 -0.0933 -0.3137 -0.0890
19975W        W36449   3.913   8.288   4.967  0.0454 -0.0287  0.0897
19976W        W36450  13.433  15.323   4.372 -0.1065 -0.0556  0.0776
19977W        W36451   8.731  15.238   4.065 -0.3086 -0.1657  0.0838
19978W        W36452   7.534  10.640   0.119  0.0476 -0.0408  0.0618
19979W        W36453  15.840  16.440   1.255  0.1259  0.1299 -0.1912
19980W        W36454   9.643   0.506   4.053  0.0221 -0.1737  0.1315
19981W        W36455   6.292   9.239   2.795 -0.0083  0.2142 -0.2883
19982W        W36456   9.642  17.817  14.379  0.2690  0.1365  0.1187
19983W        W36457  10.746   1.117   3.605  0.0388  0.4778  0.0433
19984W        W36458  14.689   6.177   2.532 -0.0499  0.0089  0.0072
19985W        W36459  11.138  14.515  15.618  0.1423  0.4170 -0.1541
19986W        W36460  10.607   1.102  13.432 -0.1176  0.1064  0.0562
19987W        W36461   2.839   4.460  15.073 -0.1159 -0.0400  0.0798
19988W        W36462   6.484   1.067  10.884 -0.1024  0.1324  0.1289
19989W        W36463  11.099   3.457  11.387  0.0116 -0.4253  0.1452
19990W        W36464  11.893   7.050   3.362  0.1365  0.2982  0.0479
19991W        W36465  17.199   1.312   3.280  0.1259  0.1044  0.0655
19992W        W36466  16.996   2.942  11.194 -0.1590 -0.0271  0.2698
19993W        W36467   3.925  13.320  11.934  0.0175  0.0321  0.1061
19994W        W36468   3.031  15.633  10.629 -0.1957 -0.0533 -0.0379
19995W        W36469   4.639   0.192  15.253  0.0448 -0.1765  0.3468
19996W        W36470  15.408   0.884   1.510  0.3144  0.3143 -0.1379
19997W        W36471   4.906   3.762  10.609  0.1686  0.2254 -0.0236
19998W        W36472  11.097   6.281   3.868 -0.0903 -0.1137 -0.1116
19999W        W36473  10.258   8.346   3.351  0.3553 -0.0667  0.3103
20000W        W36474  13.751  14.744   2.280  0.1317 -0.2247 -0.1441
20001W        W36475  10.949   7.937  11.256 -0.1358 -0.0708  0.3736
20002W        W36476  11.838   2.908   0.230  0.1990 -0.1973  0.0855
20003W        W36477  12.794   8.097   1.876  0.1583  0.0442  0.0052
20004W        W36478   2.416  14.086  15.319  0.3461  0.1456 -0.0470
20005W        W36479  11.896  18.537  11.774 -0.1440 -0.0609  0.0635
20006W        W36480   9.639  11.741   1.795  0.2051  0.2759 -0.1076
20007W        W36481   4.770  16.470  11.958  0.0142 -0.4421  0.1339
20008W        W36482   9.613  16.050   2.033  0.2083  0.1454 -0.0626
20009W        W36483  13.831   3.617   3.220 -0.5151  0.0149  0.3440
20010W        W36484   4.729  15.518  13.570 -0.0626 -0.0112 -0.1007
20011W        W36485   7.271   1.964   4.526  0.0832  0.1988  0.0470
20012W        W36486  18.470  10.596   5.548 -0.3402  0.2940  0.1122
20013W        W36487   6.956   9.202  12.289 -0.0232 -0.1130 -0.2810
20014W        W36488  14.414   1.770   3.711  0.1683 -0.2881 -0.0249
20015W        W36489   3.144  14.268  14.164 -0.0610  0.5330  0.4304
20016W        W36490   4.010  14.293  11.029 -0.0088  0.1911  0.0777
20017W        W36491   1.466   5.950  12.469  0.0949 -0.2756  0.2037
20018W        W36492  13.056   6.084   2.456 -0.0513 -0.1065 -0.0546
20019W        W36493  13.099  10.201   2.485 -0.1629  0.1387 -0.0001
20020W        W36494   3.834   6.722  13.793  0.4522 -0.1167  0.1382
20021W        W36495  12.120  15.221   4.587  0.2533 -0.1666  0.1197
20022W        W36496   1.656   4.905  13.061  0.0900 -0.1842  0.1112
20023W        W36497   3.498  10.841  15.588 -0.2504  0.0074  0.2135
20024W        W36498   6.132  13.922   0.127  0.1216  0.1160 -0.3510
20025W        W36499   3.767   7.802   1.954 -0.4622 -0.0783  0.1129
20026W        W36500   2.221  17.132  14.349 -0.1292  0.1266 -0.0357
20027W        W36501   5.141   2.364   0.269  0.2592  0.0250  0.2550
20028W        W36502   0.864   8.188  11.963  0.3528 -0.0638 -0.0160
20029W        W36503  14.018  11.588   0.648  0.0286 -0.0460  0.2689
20030W        W36504   7.028  11.138   0.627 -0.2304 -0.0149 -0.0224
20031W        W36505   4.155   7.766  11.140  0.1450 -0.0579 -0.0417
20032W        W36506   2.067  10.916  14.104 -0.3704  0.3688  0.0963
20033W        W36507  17.453   3.089   4.286 -0.1547 -0.0734  0.1054
20034W        W36508   1.503   3.954  11.582 -0.1233  0.1637 -0.1068
20035W        W36509   3.157  13.795   1.758  0.0589  0.0513  0.3535
20036W        W36510   8.319   1.548   5.297  0.0413 -0.1974  0.0943
20037W        W36511   2.421   2.643   3.652 -0.0216 -0.0292 -0.1769
20038W        W36512   4.117   4.344   2.129 -0.0391 -0.2644  0.1031
20039W        W36513   1.831  17.458  14.450 -0.0924 -0.2109 -0.0494
20040W        W36514   6.618  16.820   3.244  0.4249  0.0858  0.4563
20041W        W36515  14.181   7.416  10.285  0.0260 -0.4327 -0.2899
20042W        W36516   4.835   2.668   1.521  0.0925 -0.1165 -0.0847
20043W        W36517   6.856  15.134   0.308  0.2689 -0.2508  0.1872
20044W        W36518   7.396  16.180   4.493  0.0751 -0.1594  0.1248
20045W        W36519   9.850   7.610  10.491 -0.2184  0.1279  0.3365
20046W        W36520   3.377   0.246  15.458 -0.1102  0.0767  0.1160
20047W        W36521  15.911  13.060  10.738 -0.1379  0.2056 -0.2013
20048W        W36522   2.154   6.713  14.065 -0.2317  0.2822 -0.1421
20049W        W36523   3.902   4.123   1.169 -0.1472  0.1932  0.3039
20050W        W36524  18.469   7.835   2.575 -0.0437 -0.0761 -0.1337
20051W        W36525  16.611  10.006   3.881  0.2612  0.4098  0.0443
20052W        W36526   4.893  10.685   3.493  0.1713  0.0083 -0.1764
20053W        W36527   2.189   8.987  10.869  0.1990 -0.0386  0.0946
20054W        W36528   1.044  12.359   3.760 -0.0435 -0.2890  0.0258
20055W        W36529   0.396   5.752  13.495  0.0489  0.0992 -0.0718
20056W        W36530  12.262  12.845   1.886  0.0496 -0.2697  0.2409
20057W        W36531   2.940   5.199   0.035 -0.1196 -0.0701  0.1353
20058W        W36532   1.219   4.062  11.978  0.0691 -0.1973 -0.1531
20059W        W36533   0.467  11.286   1.063  0.1898 -0.0531  0.1593
20060W        W36534   7.510   3.926   4.435 -0.1859 -0.0693 -0.2461
20061W        W36535   6.609   1.774   5.234  0.1609 -0.1259 -0.1638
20062W        W36536  15.764   8.547   1.801 -0.1702 -0.2142 -0.4635
20063W        W36537  17.030  15.580  12.019  0.0017  0.1282 -0.2218
20064W        W36538  15.159   8.841   1.051  0.4443 -0.0161 -0.0132
20065W        W36539   3.956   5.466  14.967  0.0424  0.0915  0.2303
20066W        W36540   0.156   1.109   5.254 -0.2019  0.0506  0.0140
20067W        W36541   9.350   7.831   2.223  0.0119  0.3089  0.1192
20068W        W36542  14.013   8.438   0.046  0.2441  0.1734 -0.2033
20069W        W36543  16.150   6.256  15.299 -0.0220 -0.1352 -0.1239
20070W        W36544  18.267   8.795  11.243 -0.2182  0.3913  0.1105
20071W        W36545   0.379  10.139  13.982  0.2044  0.0551 -0.0937
20072W        W36546   1.168   8.547  14.475  0.3764 -0.1875  0.3348
20073W        W36547   4.725  13.415   2.784  0.1614  0.1061 -0.2748
20074W        W36548  17.512   9.863   2.329 -0.1049 -0.0409  0.0704
20075W        W36549  11.884   5.768   5.044 -0.0252 -0.0532 -0.1464
20076W        W36550   1.009   2.486  13.573  0.2070  0.0452 -0.1161
20077W        W36551  13.719  14.638  15.492 -0.0601 -0.0915  0.4350
20078W        W36552   7.567  16.354  11.627  0.0357 -0.0420 -0.1657
20079W        W36553   0.165   4.383  13.881  0.2232 -0.2405 -0.1240
20080W        W36554  17.284  14.386  13.936 -0.0648  0.1364 -0.1695
20081W        W36555  18.593  15.009  10.531  0.0329 -0.2468 -0.0191
20082W        W36556   5.724   9.754   2.151 -0.0546  0.0175 -0.2432
20083W        W36557   6.550   1.549   1.489 -0.0662  0.0183  0.0140
20084W        W36558  15.422   3.638   2.610  0.0855  0.1862 -0.0208
20085W        W36559  11.697  11.483   3.891  0.0567 -0.4695 -0.1896
20086W        W36560  13.312   6.166  15.010 -0.1355 -0.3085  0.1047
20087W        W36561  16.808   2.502   0.064 -0.1317  0.0331  0.2099
20088W        W36562  10.036   9.079   1.277  0.2683  0.3645 -0.1689
20089W        W36563  16.303  12.167   3.069  0.2282  0.1732  0.1158
20090W        W36564   3.490  13.906  10.729  0.1348 -0.0141 -0.1302
20091W        W36565   5.519   4.677   5.057  0.1598  0.0797  0.0052
20092W        W36566   2.369  10.531  13.172  0.0704 -0.0624  0.0330
20093W        W36567  15.591   6.335   3.088  0.0374  0.2640 -0.2562
20094W        W36568  11.605  14.194   4.863  0.1890 -0.0311 -0.0222
20095W        W36569   7.486  10.610   1.478  0.1187  0.0338  0.0412
20096W        W36570  16.418  18.530   4.471  0.1387  0.2028  0.0070
20097W        W36571  10.612  12.908  11.807  0.1077  0.2880 -0.2164
20098W        W36572  13.579   5.492  15.073  0.4177  0.0639 -0.0330
20099W        W36573   0.082  18.273   5.754 -0.0175  0.0692 -0.2932
20100W        W36574  16.503   1.927  14.514 -0.1547  0.0005  0.0850
20101W        W36575  11.042  12.308  14.863  0.1857  0.0440  0.0392
20102W        W36576   6.590   3.271   0.589  0.1714 -0.0336  0.0273
20103W        W36577   1.937  18.679  14.457 -0.2182 -0.0466 -0.1282
20104W        W36578   4.315   8.193  12.397  0.2654 -0.0189  0.1646
20105W        W36579  16.454   4.232  15.093 -0.0011  0.2438  0.3295
20106W        W36580   8.706   2.583  13.605 -0.0478  0.1051  0.1382
20107W        W36581   2.314  14.348  11.463  0.0076  0.0758 -0.3748
20108W        W36582   1.413   9.002  12.163 -0.2272  0.0848  0.0613
20109W        W36583   6.550  10.933   4.467  0.1525 -0.0405 -0.0594
20110W        W36584  12.721   9.593  12.537 -0.0536  0.1938 -0.0585
20111W        W36585  11.046  12.973  12.201 -0.3218 -0.0358 -0.1254
20112W        W36586   0.691   4.566   5.619 -0.1140 -0.0801  0.2693
20113W        W36587   7.637  14.817  11.415  0.0836  0.0645 -0.2046
20114W        W36588   8.074  15.159   2.278  0.0688  0.0471  0.0434
20115W        W36589  10.651  10.301  12.419 -0.0784  0.1067 -0.1911
20116W        W36590   3.718   2.995   2.436  0.3595 -0.2655  0.2221
20117W        W36591   5.615   8.338  13.285 -0.0002 -0.1711 -0.1296
20118W        W36592   2.741  11.086   0.251  0.0485 -0.0952 -0.1499
20119W        W36593  15.973  10.482  12.627 -0.1282 -0.2148 -0.0563
20120W        W36594  10.247  15.902  15.666  0.1769 -0.1839 -0.5149
20121W        W36595   7.119  11.261   3.391 -0.1171  0.3447  0.0002
20122W        W36596   4.422   0.066  14.702  0.1552  0.1773 -0.3205
20123W        W36597  14.106   7.444  14.804 -0.0675 -0.0962  0.0559
20124W        W36598  14.105   7.591   1.665  0.0550 -0.0544  0.1839
20125W        W36599  11.651  14.799  15.604 -0.0317  0.0580  0.1442
20126W        W36600   5.364  18.327  15.368  0.1144  0.0897 -0.0138
20127W        W36601   6.271   1.356   1.887 -0.1754 -0.2036  0.0336
20128W        W36602  13.271   2.771   3.586  0.2182  0.1815 -0.1466
20129W        W36603   7.224   2.866  11.066  0.1536 -0.3569  0.1373
20130W        W36604   7.631   3.243  14.077  0.1673 -0.1947 -0.0675
20131W        W36605  13.304  12.156  11.299 -0.1223 -0.2220  0.0680
20132W        W36606  18.067  11.866  13.412 -0.2206  0.4374 -0.0687
20133W        W36607  12.381   1.182  13.604 -0.1750 -0.2333 -0.3408
20134W        W36608   8.052   0.330  11.199  0.2078 -0.0033 -0.3316
20135W        W36609  14.056  13.551  14.624  0.0415  0.1769  0.2248
20136W        W36610   3.171   7.057  14.979  0.1684 -0.0485 -0.2062
20137W        W36611  14.072   7.790   4.968  0.1457  0.0001  0.3038
20138W        W36612   6.385   7.615   1.327 -0.2906 -0.0038 -0.1249
20139W        W36613   8.424  17.860   4.604 -0.1271  0.1947 -0.0233
20140W        W36614   2.571   6.748   1.754  0.1023  0.1300  0.1207
20141W        W36615   6.508   9.682   3.086 -0.1232 -0.1438  0.0796
20142W        W36616   0.681   9.363  12.245 -0.3445 -0.3258  0.1279
20143W        W36617  13.175   9.750  11.656  0.1546 -0.0909 -0.1019
20144W        W36618   6.238  15.663   4.658  0.0495 -0.1088 -0.0607
20145W        W36619   2.403  11.689   1.736 -0.0305  0.0195 -0.0553
20146W        W36620  16.970  14.200  12.311 -0.0795 -0.1458 -0.0324
20147W        W36621  18.230   7.227   4.749 -0.0402  0.0198 -0.1757
20148W        W36622  15.189   2.878  11.984 -0.0159 -0.1528  0.2743
20149W        W36623   3.993  11.147   1.640 -0.0058 -0.0106 -0.2082
20150W        W36624  10.838   8.915   4.165  0.1457 -0.1206  0.0781
20151W        W36625  17.507  17.524   1.340  0.1615  0.1245  0.1497
20152W        W36626  15.665   6.863   1.919 -0.0687 -0.1886 -0.1799
20153W        W36627  10.255   7.743   3.161  0.1828  0.2735  0.1496
20154W        W36628  16.136  12.896  15.273 -0.1772  0.0543  0.0141
20155W        W36629   5.638  17.912  11.936 -0.0759 -0.0524 -0.2005
20156W        W36630   4.049   1.509  14.390  0.1147  0.1983  0.2084
20157W        W36631  17.411   0.475   0.667 -0.0718  0.1058 -0.0338
20158W        W36632   0.548  15.133  12.139 -0.3377  0.0139  0.1410
20159W        W36633  18.495  17.364   2.920  0.0309 -0.0436  0.2189
20160W        W36634   3.679  10.846  10.787  0.2756  0.2694 -0.2575
20161W        W36635   0.799   3.357   3.346 -0.1427 -0.1403  0.0292
20162W        W36636   3.324  14.400   0.919 -0.1661 -0.2257  0.2312
20163W        W36637  16.012  10.961  10.932  0.2946 -0.2402  0.0017
20164W        W36638  12.170   1.418  14.482  0.0788 -0.0299  0.2118
20165W        W36639  13.525  15.147   3.203  0.2595  0.2338 -0.3044
20166W        W36640   2.687  10.582   1.303 -0.0658 -0.2219 -0.3132
20167W        W36641   4.849  15.584   1.623  0.0149  0.0363  0.0557
20168W        W36642   5.719  17.665   3.925  0.0333  0.1647  0.3115
20169W        W36643  15.824  16.593  15.141  0.1435  0.0504  0.0876
20170W        W36644   9.806  15.589   3.844  0.2372  0.0224  0.2557
20171W        W36645   3.673  15.393   2.157 -0.0689  0.2765 -0.1356
20172W        W36646  16.013  16.333  11.497 -0.1521  0.2367 -0.1118
20173W        W36647   9.123  11.892   0.081 -0.0442  0.0463 -0.2575
20174W        W36648  11.548  10.767  14.151  0.0111  0.0754 -0.2905
20175W        W36649   8.941   9.948   1.441  0.2202 -0.2696  0.0968
20176W        W36650   6.816   9.256   1.355  0.1705 -0.2924 -0.0722
20177W        W36651  16.415   9.970   1.373  0.0470  0.1486 -0.0567
20178W        W36652  17.381  11.485   2.991  0.1576  0.0684  0.1868
20179W        W36653   1.457  12.521  11.497 -0.0802  0.1010 -0.0552
20180W        W36654   9.267   2.545  12.454  0.1309 -0.0614  0.0829
20181W        W36655  11.316   9.974   1.271  0.2847 -0.0001  0.1109
20182W        W36656  14.539  14.378  14.750 -0.1296  0.1788 -0.1882
20183W        W36657  14.118   6.757  13.018 -0.3607  0.3508 -0.3498
20184W        W36658   2.890   4.335   1.179 -0.0155  0.1333  0.2181
20185W        W36659  16.850  16.278   3.755 -0.3721 -0.2464  0.2101
20186W        W36660  12.694  18.843  11.550 -0.0834 -0.2730  0.0910
20187W        W36661  17.146  10.083   4.109  0.0158 -0.0689 -0.0636
20188W        W36662  11.496  15.931  12.316  0.1554 -0.3202  0.2352
20189W        W36663  15.257  17.614   4.726 -0.0227  0.2014 -0.2427
20190W        W36664   3.977   9.907  14.634  0.2327 -0.1444  0.1542
20191W        W36665   8.675  15.873  10.234 -0.2186 -0.4084  0.2493
20192W        W36666   0.594   3.998   1.616  0.1074  0.2420  0.0757
20193W        W36667  18.691   3.051  13.550 -0.1218 -0.1410 -0.3308
20194W        W36668   4.404   6.048  10.822 -0.1697  0.3118 -0.1630
20195W        W36669   8.788  12.225  14.922  0.1468 -0.4645 -0.1126
20196W        W36670   4.027  15.198  13.719 -0.1646  0.1710  0.1057
20197W        W36671  18.445   7.176  12.319 -0.2963 -0.0264 -0.2833
20198W        W36672   3.235   8.599  15.535  0.2213 -0.2550  0.0541
20199W        W36673   7.505   2.076   2.501 -0.2371 -0.1953  0.3737
20200W        W36674  17.996  15.798  14.159 -0.4787 -0.3812 -0.0131
20201W        W36675  13.187   8.593   2.631 -0.0141 -0.1482  0.1237
20202W        W36676   6.588   4.826  14.338 -0.0259  0.0081  0.1492
20203W        W36677  10.896   0.333  14.261 -0.1067  0.0377 -0.3982
20204W        W36678  17.491   1.859  12.472 -0.2799 -0.3673  0.2766
20205W        W36679   9.324  17.055   1.425 -0.4070  0.1786  0.0597
20206W        W36680   2.521  15.233   1.614  0.0869 -0.0104 -0.2378
20207W        W36681   6.694   4.238  11.516 -0.0161 -0.0908 -0.3656
20208W        W36682   3.325   2.656  15.184 -0.4589  0.0312  0.0456
20209W        W36683  11.237   4.520  11.565 -0.0936 -0.1428  0.3365
20210W        W36684  12.160  11.441   0.815  0.1375  0.2824 -0.1268
20211W        W36685  13.897  17.315   2.056  0.1596  0.1597 -0.3681
20212W        W36686  11.597  12.055   2.383 -0.4084  0.3985 -0.0386
20213W        W36687   1.887  13.298  11.131 -0.0721  0.0292  0.2168
20214W        W36688   5.257  16.807   1.287 -0.2536 -0.1760  0.2860
20215W        W36689   5.499   2.961   4.566 -0.1829 -0.0125 -0.0486
20216W        W36690  12.981   6.247  12.586  0.2905  0.2638 -0.0464
20217W        W36691   0.842  17.189   3.593 -0.1133 -0.3700 -0.0059
20218W        W36692  13.483   4.971  10.777  0.4975 -0.2855 -0.4222
20219W        W36693  17.057   2.943  10.707  0.2407 -0.0935 -0.1585
20220W        W36694  17.457   8.807  10.964  0.1844 -0.0165 -0.1651
20221W        W36695  11.303  11.660   0.149 -0.0147 -0.4250  0.3450
20222W        W36696   1.907  12.653   3.045 -0.2939  0.0110  0.0078
20223W        W36697   9.152   4.566  15.166 -0.3967 -0.3230 -0.2126
20224W        W36698  17.557   8.214  13.576 -0.1448 -0.0800 -0.1768
20225W        W36699   0.418   6.891  12.597  0.4022 -0.2588 -0.0344
20226W        W36700   9.208   0.808   2.872 -0.1485 -0.2648  0.4863
20227W        W36701  12.616   2.300  14.111 -0.1326  0.3183 -0.1397
20228W        W36702   7.969   2.192   2.111  0.0329 -0.2180 -0.0682
20229W        W36703   4.625   9.574   5.344  0.2347 -0.1000 -0.0198
20230W        W36704   1.768  14.427   1.819 -0.1106  0.0996 -0.1190
20231W        W36705  14.411  11.993   4.358  0.0194 -0.1466  0.1598
20232W        W36706  16.946  12.922  10.942 -0.2597 -0.1725  0.1034
20233W        W36707   4.411  15.200   4.763  0.0495  0.1282 -0.1164
20234W        W36708   9.365   7.323   3.955 -0.0971  0.3071  0.0823
20235W        W36709   9.791   2.299  11.631  0.1034  0.2239 -0.1450
20236W        W36710  10.744   5.207   4.365 -0.0305 -0.3095 -0.3655
20237W        W36711  15.249  12.637  14.808  0.0955 -0.1403  0.4380
20238W        W36712  15.924  11.037   4.483 -0.1605 -0.1809 -0.0443
20239W        W36713   3.115  18.560   5.907  0.4384 -0.1083 -0.0227
20240W        W36714   6.354  18.698  15.151 -0.1740 -0.0508  0.0843
20241W        W36715   3.879   1.626   2.391 -0.1104  0.1324  0.1078
20242W        W36716   1.630  17.330  11.936 -0.0519 -0.3095 -0.2484
20243W        W36717  11.780  12.612  11.748 -0.0791 -0.0434 -0.1634
20244W        W36718   3.902  10.165   0.539  0.0573 -0.1081 -0.1858
20245W        W36719   9.308  17.252  11.757  0.0374  0.1168  0.0861
20246W        W36720  13.688   0.214   3.759  0.1869 -0.0617 -0.1194
20247W        W36721  13.562  14.874   9.916 -0.1492 -0.3459 -0.0685
20248W        W36722   4.207  18.440  13.353 -0.0140  0.1193  0.0550
20249W        W36723   9.781   2.354  12.727  0.1603  0.2355 -0.3558
20250W        W36724   5.700  14.617  14.145  0.2271  0.1323  0.0890
20251W        W36725   4.605   4.701  13.233 -0.1685  0.0008  0.3224
20252W        W36726   4.535  14.850   3.187  0.0112  0.4284  0.0563
20253W        W36727  14.295  14.316   0.220  0.1165  0.1567  0.3752
20254W        W36728   0.593   7.814   0.678 -0.0160  0.0929 -0.4192
20255W        W36729   7.555  15.760   0.404  0.0258 -0.3752  0.5054
20256W        W36730   5.039  16.724  12.297 -0.1607 -0.1816 -0.0252
20257W        W36731   5.369   8.088   5.508 -0.1054 -0.1870  0.1860
20258W        W36732   7.728   8.398   2.735 -0.2224  0.3905  0.0072
20259W        W36733   1.484  11.992  13.458  0.3067 -0.0065  0.0554
20260W        W36734   8.970   8.995  14.208 -0.1118 -0.0408 -0.4668
20261W        W36735   4.671   9.592  12.640 -0.1417 -0.0611  0.1039
20262W        W36736  10.044   4.764   0.010  0.2681  0.4008  0.1374
20263W        W36737   3.239  10.558  12.474  0.2918  0.2655 -0.4302
20264W        W36738   4.301  12.008   3.296 -0.0424  0.0206 -0.0660
20265W        W36739  13.987   9.149   1.824  0.1337  0.2534  0.1805
20266W        W36740  10.768   9.606  14.576 -0.0885  0.2467 -0.1573
20267W        W36741   2.360  12.019  10.592 -0.3880 -0.0078 -0.1553
20268W        W36742  13.628   0.308  11.148  0.3710 -0.0947  0.1789
20269W        W36743   4.813  17.183  13.373  0.1202  0.1891  0.5856
20270W        W36744   6.487   2.926  11.608  0.1451 -0.1259 -0.1193
20271W        W36745   5.246  17.618   0.679  0.0177 -0.2720  0.0800
20272W        W36746  17.151   5.863  15.455  0.0440 -0.0693 -0.0473
20273W        W36747  15.510   9.661   1.334  0.0754 -0.1403  0.0341
20274W        W36748  17.832  18.158  10.115  0.0169 -0.2463  0.3604
20275W        W36749  12.329   8.928   3.193  0.0882 -0.1848 -0.2606
20276W        W36750  11.636  15.962  12.794  0.1779  0.1190 -0.1424
20277W        W36751   2.094  15.084  14.394 -0.0079 -0.0412 -0.0204
20278W        W36752   8.664   4.667   2.828 -0.2393 -0.0966 -0.0390
20279W        W36753  15.338   8.691  11.703 -0.0107  0.0613 -0.2923
20280W        W36754  16.508  12.902  14.922 -0.3130  0.0400  0.4409
20281W        W36755  17.162  18.380  10.478 -0.0724  0.3591 -0.3112
20282W        W36756   1.398   3.217   4.231  0.0557  0.0839 -0.1423
20283W        W36757  10.342  10.298   0.769  0.0177 -0.0819  0.0846
20284W        W36758   3.739   3.518  15.430 -0.0034 -0.1426 -0.2621
20285W        W36759  12.123   2.067   3.225  0.1122 -0.1189  0.3223
20286W        W36760   4.715   8.099  13.927 -0.0423  0.1184  0.0673
20287W        W36761   5.334   4.839   0.297  0.5258  0.0630  0.0913
20288W        W36762  15.127  12.506   4.674 -0.1102  0.2892  0.2320
20289W        W36763   1.137   4.130   5.876 -0.0562  0.1816 -0.0137
20290W        W36764   2.636   7.467  13.603  0.3027  0.3223  0.0719
20291W        W36765   1.064  17.668  15.122 -0.3853 -0.0126 -0.3580
20292W        W36766  12.725   0.696   5.711 -0.0533 -0.0553 -0.0153
20293W        W36767   2.173  14.862   1.869  0.1494 -0.4385  0.2447
20294W        W36768  10.552  11.995   1.076 -0.2357 -0.4460 -0.0976
20295W        W36769  18.585   9.837   1.657  0.1584 -0.2148  0.0812
20296W        W36770  12.672   8.312   5.059  0.2101  0.3035  0.1623
20297W        W36771   7.239   1.574  11.362  0.2617  0.1499 -0.2312
20298W        W36772  17.559   3.390   5.305  0.3107  0.1992 -0.2343
20299W        W36773  16.646   2.654  12.780 -0.2993  0.1314 -0.1526
20300W        W36774  14.814   7.079   1.279 -0.2149 -0.0980 -0.1325
20301W        W36775   9.643   0.181   5.144  0.0608 -0.0579  0.3764
20302W        W36776   7.591  16.955  15.019 -0.2669 -0.0530  0.0306
20303W        W36777   9.067   1.920   2.145 -0.4278 -0.1125  0.0132
20304W        W36778   4.152   9.385   5.228  0.1338 -0.2131 -0.0798
20305W        W36779   6.918   7.640  11.706 -0.2137 -0.1429 -0.2817
20306W        W36780  15.661   1.404  12.096 -0.1424  0.3557  0.0555
20307W        W36781   1.058   3.433   2.919 -0.2265 -0.0260  0.3590
20308W        W36782   1.664   7.246  14.198  0.0349 -0.0179  0.0175
20309W        W36783   3.279  12.056   2.978 -0.1231  0.1270  0.2789
20310W        W36784   9.933  10.866   2.064  0.0206 -0.0486  0.2835
20311W        W36785  16.498   6.972  11.965  0.2409  0.0191 -0.0725
20312W        W36786   9.201  10.207  12.052  0.0289  0.0073 -0.0494
20313W        W36787   4.024  13.814   5.972 -0.1025 -0.2168  0.2259
20314W        W36788   9.031   7.110   1.697  0.1688 -0.0026  0.4511
20315W        W36789  12.487  18.190   1.701  0.1819 -0.0021 -0.1220
20316W        W36790   5.421  16.459   0.772  0.2225  0.1401  0.0477
20317W        W36791  16.979   0.281   1.186 -0.0440  0.0439  0.0193
20318W        W36792  13.549  13.972   4.565  0.0706  0.0167 -0.1570
20319W        W36793   1.993  14.706  11.694 -0.0231  0.2360  0.2589
20320W        W36794  15.221   6.291  12.558 -0.2358  0.1263 -0.2043
20321W        W36795   3.168  11.120   2.098 -0.2694  0.4692 -0.1915
20322W        W36796  13.991   9.516  11.481 -0.2366  0.2091  0.3156
20323W        W36797   0.021   7.985   1.890  0.0448 -0.1552 -0.2713
20324W        W36798  13.146  10.129   0.125  0.0170  0.0391 -0.1310
20325W        W36799   2.995  14.329   0.548 -0.3356  0.2284  0.1483
20326W        W36800   6.826  12.508   4.657  0.0110  0.1718 -0.0662
20327W        W36801  13.937   6.936  15.021  0.2393 -0.1427 -0.3655
20328W        W36802  15.778  15.685   3.688  0.3863 -0.1443  0.1024
20329W        W36803  14.457   3.458   4.580 -0.4161 -0.0600  0.0768
20330W        W36804   3.318   0.679   1.346  0.0640  0.2750  0.0404
20331W        W36805  14.760   8.550   0.770 -0.1726 -0.1825  0.0404
20332W        W36806   3.659   4.581   5.753 -0.0842  0.1032  0.1909
20333W        W36807   6.960   4.309  14.418 -0.2542  0.1547  0.4293
20334W        W36808   0.946  13.091  11.218 -0.0603 -0.0516 -0.0365
20335W        W36809  17.723   8.547  13.892 -0.2505  0.1565  0.4229
20336W        W36810   2.711   3.056  14.527  0.3080  0.0903 -0.0035
20337W        W36811  14.687  14.404   2.996 -0.1426 -0.1526  0.2750
20338W        W36812   8.227   0.172  15.321  0.1178 -0.1866  0.1673
20339W        W36813  14.425   3.604  15.146 -0.1570 -0.1411 -0.0512
20340W        W36814  16.070   8.509  13.970  0.3069  0.0561 -0.1579
20341W        W36815  12.414  16.429  13.842  0.2693  0.2593  0.1501
20342W        W36816  15.935   3.738   2.659  0.0453  0.0217 -0.0164
20343W        W36817  14.560   4.284  13.322  0.1986  0.0582 -0.0982
20344W        W36818   6.399  10.674  12.685 -0.1062  0.0681 -0.1520
20345W        W36819   7.463  18.318   4.362  0.3313 -0.1947 -0.1054
20346W        W36820  11.833  16.548   0.258  0.0936  0.1983 -0.1123
20347W        W36821  16.761   7.941   4.650  0.0338  0.0586 -0.1823
20348W        W36822  15.263  12.930   0.988 -0.4262 -0.1929 -0.1129
20349W        W36823  16.963   7.457  13.461 -0.1455 -0.1026 -0.1052
20350W        W36824   6.392  14.446   0.909  0.2759 -0.0374  0.1410
20351W        W36825   6.196  17.642   2.030  0.0297  0.3659  0.2188
20352W        W36826  10.969   9.392   4.102 -0.0025  0.2428  0.1616
20353W        W36827   7.548  13.526   3.237  0.0800 -0.2614 -0.0639
20354W        W36828  17.885   2.215   2.909  0.2781 -0.0377 -0.2703
20355W        W36829  13.438  15.249   0.395 -0.3421  0.0378 -0.2739
20356W        W36830   2.804   0.230   2.386 -0.1715 -0.3914 -0.6272
20357W        W36831   3.623   8.972  11.878  0.0838 -0.2356 -0.1535
20358W        W36832  11.402  14.303  13.673 -0.1824 -0.0807  0.2844
20359W        W36833  15.552  18.782  10.690 -0.1352 -0.0300 -0.4330
20360W        W36834   7.206   4.732   0.433  0.3400  0.2594 -0.0217
20361W        W36835   9.630  14.332  12.068  0.2361 -0.1248  0.0329
20362W        W36836  15.963   6.920   4.658  0.1618  0.1941 -0.1624
20363W        W36837   3.559   9.004   1.226  0.0263  0.2553 -0.0085
20364W        W36838  13.810   4.896  12.114 -0.0098 -0.0767 -0.1236
20365W        W36839  17.479  14.084  14.550  0.2792  0.0076 -0.0851
20366W        W36840   1.310   8.622  11.014  0.1387 -0.4116  0.1231
20367W        W36841  10.354   6.777   6.173 -0.2087  0.2077  0.0558
20368W        W36842   7.628   8.327   0.264 -0.1364  0.1240  0.1949
20369W        W36843  10.201  17.311  13.206  0.1053 -0.0213  0.0380
20370W        W36844   4.518   1.856   1.159 -0.0352  0.0685  0.1275
20371W        W36845   0.510  18.212  11.683  0.0830 -0.0628 -0.2991
20372W        W36846   2.021  14.074   0.468  0.3717 -0.0969  0.0084
20373W        W36847   6.313  17.298   2.873 -0.0024 -0.3413  0.0403
20374W        W36848   9.915   6.126   3.549  0.2359  0.3219 -0.1525
20375W        W36849   9.012   4.745   1.377  0.0724  0.0977 -0.0996
20376W        W36850  10.714  11.046   4.236 -0.2608 -0.1824  0.3809
20377W        W36851  13.750   2.535   4.845  0.2991  0.1193 -0.2095
20378W        W36852  17.907   0.662   0.516  0.0787 -0.0144  0.0086
20379W        W36853   0.258  18.511  11.327 -0.2149  0.0869 -0.0394
20380W        W36854  15.303  12.800  15.498  0.2043 -0.2547 -0.2675
20381W        W36855   5.682   2.375   1.154 -0.1012 -0.0419  0.1109
20382W        W36856  10.358  11.288   3.864 -0.3049  0.0792 -0.0822
20383W        W36857   9.371  11.376   2.693  0.0779 -0.1299 -0.1941
20384W        W36858   5.021  11.539   4.703 -0.2112  0.1043 -0.0905
20385W        W36859   5.152  17.549  10.866  0.2496 -0.0036  0.2676
20386W        W36860   1.067   1.945  12.628  0.0131 -0.0877  0.2401
20387W        W36861  11.603  17.737   1.162 -0.1762  0.1455  0.0089
20388W        W36862   2.046   4.656  11.796 -0.1771  0.3189 -0.0767
20389W        W36863   6.447  18.416   0.228 -0.3675  0.3499  0.0450
20390W        W36864   8.518   3.349   3.989 -0.0761 -0.1298  0.2446
20391W        W36865  15.818   9.706   0.034  0.1412 -0.1951 -0.0974
20392W        W36866   8.796   7.239  13.138  0.0153  0.1675  0.0269
20393W        W36867  14.033   3.117  13.723  0.3287 -0.0288  0.1645
20394W        W36868   0.024  10.498  10.725 -0.0286 -0.1362 -0.0996
20395W        W36869  14.986   7.987   1.570 -0.1117  0.1498  0.4148
20396W        W36870   0.044   3.612   1.006 -0.4511 -0.1628 -0.1359
20397W        W36871   6.837  10.118  15.645 -0.2583  0.0503 -0.1001
20398W        W36872   0.324  13.290   4.039  0.1416 -0.0585 -0.1356
20399W        W36873  10.886   0.649  12.104  0.3953  0.1651 -0.2379
20400W        W36874   8.868  10.285   1.799 -0.4651 -0.0367  0.0419
20401W        W36875  18.279  14.309  10.747  0.0516 -0.0235  0.2043
20402W        W36876   8.355   0.510  14.774 -0.2763  0.1713 -0.0190
20403W        W36877   0.383   7.790   0.222 -0.0235  0.1777  0.0966
20404W        W36878   7.663   9.963   3.358  0.1731 -0.1041  0.0677
20405W        W36879   9.323   0.264   0.541 -0.1877  0.2452 -0.0917
20406W        W36880   3.064   3.142  13.625 -0.2410  0.0141 -0.2969
20407W        W36881   5.656  11.642   1.693 -0.1283  0.2384  0.1269
20408W        W36882  17.126  16.023  15.165 -0.2307  0.2044  0.2719
20409W        W36883  13.650   2.303   2.482  0.1173 -0.4179 -0.1361
20410W        W36884   8.883   1.136   0.159  0.0623 -0.0137  0.0654
20411W        W36885   9.911  10.055   3.750 -0.4240 -0.1325 -0.4020
20412W        W36886  14.280  14.046   2.020  0.0298 -0.0701 -0.1041
20413W        W36887   3.786   3.087  15.690  0.1191 -0.4446  0.1324
20414W        W36888   6.164  15.506   1.551 -0.0270  0.2492  0.0104
20415W        W36889  16.647  11.432   2.132 -0.3015 -0.2485  0.0033
20416W        W36890  11.778  11.863   3.490  0.1440  0.1393 -0.2097
20417W        W36891   3.273  10.241  11.533 -0.1501 -0.1248  0.0583
20418W        W36892  18.370   8.258   3.451  0.3743 -0.0125 -0.3732
20419W        W36893   8.175   6.771   4.351  0.0339 -0.1656 -0.2290
20420W        W36894  16.510  12.970  13.590 -0.3177  0.0242  0.0524
20421W        W36895  10.144  12.232   0.317  0.0244 -0.0522  0.1596
20422W        W36896   4.792  12.844  12.804  0.2674 -0.2497  0.1428
20423W        W36897  13.997  11.550  15.568  0.1023  0.0132 -0.1544
20424W        W36898   8.265  11.777   3.516 -0.3105  0.2749 -0.0075
20425W        W36899   8.435   9.053   4.889 -0.1431  0.0793  0.0370
20426W        W36900  18.570  16.060   3.736 -0.0407 -0.0497  0.2539
20427W        W36901  17.613  12.034  13.483 -0.3105 -0.0626  0.0912
20428W        W36902  18.383   7.659  12.180 -0.2014 -0.2387 -0.0151
20429W        W36903  14.741   0.462  14.852  0.2057 -0.1273 -0.0429
20430W        W36904   3.487   4.662  12.878  0.0595 -0.2260  0.2343
20431W        W36905   5.673  17.904   0.945 -0.0492  0.0763 -0.1242
20432W        W36906   3.633   7.308  13.022 -0.1110  0.0143  0.0496
20433W        W36907  10.279  17.358   0.321 -0.1266 -0.0420  0.0704
20434W        W36908  11.334   6.783   4.563  0.0168 -0.0298  0.0006
20435W        W36909  12.150   3.808   5.584 -0.0493  0.3110  0.0186
20436W        W36910   7.523   5.064  15.456  0.1714 -0.1639 -0.2731
20437W        W36911   4.759  18.772  13.924  0.0623 -0.1008  0.3285
20438W        W36912   1.102  13.604   5.853  0.3876 -0.4031  0.1421
20439W        W36913   3.140   0.045  15.040 -0.3573 -0.0561  0.2897
20440W        W36914   2.305   7.920   1.950 -0.3680  0.0311  0.2192
20441W        W36915   8.634   4.220   6.132  0.0799 -0.0039  0.1776
20442W        W36916  14.432  11.569   2.733  0.1902 -0.0257 -0.1322
20443W        W36917  13.126   9.479   3.092  0.1392  0.0763  0.2812
20444W        W36918   8.037  18.037  12.669 -0.0573 -0.0946 -0.2905
20445W        W36919   8.552  17.916   3.410 -0.0747  0.5521 -0.0781
20446W        W36920  16.867  14.055  12.907  0.1020 -0.4555 -0.3230
20447W        W36921  11.163   4.034  11.344  0.2544 -0.0434 -0.0443
20448W        W36922   4.499  15.258  10.962  0.2063  0.0498  0.0506
20449W        W36923  11.401  12.925   1.607 -0.0138  0.1024 -0.1287
20450W        W36924  16.216   5.812  14.523 -0.2628  0.2609  0.0398
20451W        W36925   2.844  17.649   9.814  0.1856  0.0936  0.2978
20452W        W36926   9.436   2.224   5.990 -0.0854  0.0953  0.1991
20453W        W36927  10.500  18.068   2.297  0.0823 -0.0052  0.4108
20454W        W36928  17.305   0.695   4.017 -0.0605 -0.4024  0.3101
20455W        W36929   1.328  10.129  12.375  0.0604  0.0438  0.2820
20456W        W36930   7.692  13.187   1.076  0.3405  0.1099 -0.0149
20457W        W36931   6.876  16.293   4.480  0.1507 -0.0956  0.1937
20458W        W36932   5.253  17.562  15.262  0.1092 -0.1763 -0.1126
20459W        W36933   0.313   0.233   1.400 -0.2464 -0.1847  0.1120
20460W        W36934  11.646   8.552  15.285  0.2060  0.0316  0.2091
20461W        W36935  15.100  14.522   4.199 -0.1480  0.0323 -0.2438
20462W        W36936   7.379  18.430  11.148  0.2635  0.0961  0.0648
20463W        W36937  15.907  13.592  11.187  0.0518  0.2618  0.1330
20464W        W36938  13.243   7.961  15.204 -0.0200 -0.1717 -0.0025
20465W        W36939  12.688   5.577  14.995  0.1284 -0.2148 -0.1233
20466W        W36940   6.595  12.641  12.893  0.1838  0.1725 -0.3115
20467W        W36941  15.114   5.887   0.177 -0.2722  0.2529  0.0440
20468W        W36942   9.814  16.792   1.075  0.1331  0.0567  0.0834
20469W        W36943   4.752  13.656   2.333 -0.0659 -0.2155 -0.1726
20470W        W36944  18.811  17.869   2.718 -0.0876 -0.3021  0.0471
20471W        W36945   1.842   6.058  10.785 -0.1151 -0.2271  0.0957
20472W        W36946   1.599   1.456  13.202 -0.2165 -0.0855  0.0516
20473W        W36947   4.550  12.070   0.742 -0.0425 -0.0442 -0.2500
20474W        W36948   4.434   0.572   0.025 -0.2448 -0.0302 -0.2890
20475W        W36949  14.605  17.515  11.647  0.0662  0.0072  0.2104
20476W        W36950  10.413   4.511  13.651  0.0909 -0.1899  0.2798
20477W        W36951   5.662  15.619  13.255 -0.0094 -0.1266 -0.1116
20478W        W36952  15.895   4.251  10.670 -0.2116 -0.4104 -0.2734
20479W        W36953  14.264  15.345  14.377 -0.3709  0.1903  0.2912
20480W        W36954   7.654   5.869  11.120  0.3373  0.0464  0.0416
20481W        W36955  16.960   7.978   1.317 -0.1057 -0.0039  0.4814
20482W        W36956  13.276   0.560   3.144  0.2103  0.2130  0.0100
20483W        W36957   6.436  11.961  13.571  0.1717 -0.4231 -0.3624
20484W        W36958   9.812   9.315   5.032  0.0377  0.1929  0.3260
20485W        W36959   2.074   1.371   3.969 -0.0160  0.0867  0.1461
20486W        W36960  13.641  11.896  15.546 -0.0427 -0.0812  0.0541
20487W        W36961   9.102  13.857   3.864 -0.2343 -0.5518  0.2451
20488W        W36962   6.371   9.813  12.903 -0.0793 -0.0336  0.1713
20489W        W36963  12.909  16.879   0.477 -0.0285  0.1669  0.3360
20490W        W36964   4.527  17.598   2.837 -0.2174 -0.0814  0.1132
20491W        W36965  13.316   5.723   0.660  0.0116 -0.1290 -0.0042
20492W        W36966   5.209   1.841  14.763 -0.1742  0.0532 -0.1962
20493W        W36967  15.370   6.223  10.795  0.4418 -0.1778  0.1325
20494W        W36968  15.133  12.285  11.632  0.0069  0.1652 -0.3770
20495W        W36969   1.425   6.042   2.591  0.4380  0.0156  0.1408
20496W        W36970  17.413  10.324   1.082 -0.1045 -0.0771 -0.2173
20497W        W36971   9.067   1.246   5.033 -0.1748  0.2897  0.1086
20498W        W36972   8.642  17.533  14.435  0.3036 -0.2183 -0.0604
20499W        W36973  15.254   8.548  11.114  0.2499 -0.1692  0.0387
20500W        W36974   8.189  12.852  14.822 -0.0871  0.1685 -0.0928
20501W        W36975   6.658   4.743  15.299 -0.1377  0.1673 -0.0809
20502W        W36976   3.423   1.130   1.580 -0.0406  0.1743 -0.0773
20503W        W36977   7.416  10.961  14.109  0.0880  0.0708  0.0754
20504W        W36978  13.169  17.197   4.646 -0.0784 -0.1819  0.2756
20505W        W36979  11.830  16.894  13.437 -0.0510 -0.1117  0.0327
20506W        W36980  13.104   3.407   4.448 -0.1676  0.2326  0.0864
20507W        W36981  17.549  15.951   3.215  0.1211  0.2992  0.0305
20508W        W36982  16.915  16.145   1.044  0.0065  0.0523 -0.1881
20509W        W36983   5.310  13.585   3.592  0.0184 -0.1969  0.2680
20510W        W36984   7.739   9.778  15.432  0.0676  0.1493  0.0076
20511W        W36985  12.218   4.865   2.419 -0.0900 -0.0919 -0.0331
20512W        W36986  14.056   8.606   1.980 -0.0261 -0.0898  0.3764
20513W        W36987   7.559  10.925   5.188  0.1378 -0.2182 -0.2148
20514W        W36988  18.558  15.612  11.983  0.2442 -0.1734 -0.2427
20515W        W36989   3.191   0.644  14.571  0.2043 -0.0213  0.2384
20516W        W36990   2.271   3.922   0.017 -0.1447  0.1878  0.0336
20517W        W36991   3.796  11.157  12.665 -0.3081  0.1299 -0.2632
20518W        W36992   7.223   8.002  13.181 -0.3407 -0.2113  0.1867
20519W        W36993   2.324  18.427  12.605  0.0822  0.0772 -0.0018
20520W        W36994   5.427   6.637   5.468 -0.1702  0.1632  0.1057
20521W        W36995   5.890  13.697   2.250 -0.2465 -0.3653  0.0597
20522W        W36996  18.031   4.062   4.960 -0.2013  0.0622  0.2604
20523W        W36997  18.071   6.716   4.593 -0.0316  0.1864  0.3098
20524W        W36998   5.569   9.284  11.863  0.0436  0.0995  0.0797
20525W        W36999  16.057   5.036  13.661  0.1253  0.0800  0.1542
20526W        W37000   3.307  18.573  10.871 -0.1398  0.1103 -0.0651
20527W        W37001   6.769   3.505   5.558 -0.1319  0.1197  0.1584
20528W        W37002  18.685   6.475   2.203  0.2029  0.1738 -0.1841
20529W        W37003   5.350  15.323   5.360  0.3744 -0.1803  0.5040
20530W        W37004   5.509  16.064   1.122  0.0213 -0.1875 -0.0282
20531W        W37005  17.132   6.041   1.712  0.0708 -0.1011  0.2970
20532W        W37006  11.797   4.988   5.506 -0.0359 -0.1492  0.2070
20533W        W37007   9.455  12.196   5.271  0.1147 -0.2193  0.1753
20534W        W37008   1.153  17.134  15.253  0.0958 -0.0836 -0.1424
20535W        W37009  15.745   9.887   3.165 -0.0096 -0.0063  0.0662
20536W        W37010   8.334   5.505   3.806 -0.3252  0.1148  0.1013
20537W        W37011  14.490  17.412  13.591  0.1028 -0.0428  0.1177
20538W        W37012  12.545   2.010   2.401 -0.1462  0.3486 -0.1373
20539W        W37013   6.572  17.996  11.725  0.1435  0.0279  0.0152
20540W        W37014   5.507  14.367   1.101  0.6338  0.0531 -0.0908
20541W        W37015  14.032   8.303  14.907 -0.0380  0.0035 -0.0659
20542W        W37016   3.676   3.048  11.567  0.1734  0.0960  0.0427
20543W        W37017   2.226  17.774   5.007  0.0412  0.0633  0.1179
20544W        W37018   0.128  14.282  15.415 -0.2289 -0.0010 -0.1124
20545W        W37019   7.719   2.692   3.826 -0.1785 -0.0240  0.1840
20546W        W37020  10.953   8.617   5.693  0.0883  0.1517  0.0659
20547W        W37021   4.298   5.910   3.047 -0.4436  0.0635 -0.2393
20548W        W37022   4.908  18.222   2.318  0.1241 -0.1755  0.0384
20549W        W37023   0.416  10.919  14.203  0.0174  0.1017  0.0219
20550W        W37024  12.370   0.778  10.854  0.2027 -0.1374 -0.0044
20551W        W37025  14.214   7.628   0.618 -0.2070 -0.0809  0.1091
20552W        W37026   6.586   0.247   2.853 -0.0976  0.3963 -0.0264
20553W        W37027  16.216  14.985  15.564 -0.0300 -0.0209  0.0558
20554W        W37028  17.432   0.849  14.677  0.2461  0.0131 -0.1375
20555W        W37029  10.444   1.123   5.133  0.1263  0.0119  0.0018
20556W        W37030   4.729   5.511   1.358  0.0004  0.0147 -0.3243
20557W        W37031   6.311  13.747   2.030  0.0852 -0.2205  0.0045
20558W        W37032  12.461   7.222   2.033 -0.1981  0.0473  0.0982
20559W        W37033   6.564  17.593  11.124  0.3007  0.2102  0.0933
20560W        W37034   7.836   4.328   3.089 -0.0088  0.1497 -0.0814
20561W        W37035   1.195   2.947  15.484 -0.0768  0.2758 -0.1118
20562W        W37036  18.537   6.033   4.609 -0.3717 -0.0854 -0.0677
20563W        W37037  14.499   6.428  14.126  0.0649  0.0916 -0.0435
20564W        W37038   5.334   7.067  11.105  0.1049  0.0938 -0.2790
20565W        W37039   3.312   1.707  12.879  0.4739 -0.0208  0.1045
20566W        W37040   0.285   3.488   3.433  0.3388 -0.0373 -0.1210
20567W        W37041  14.408  17.124  14.795 -0.0466  0.1434 -0.0082
20568W        W37042   7.823   4.587   5.009  0.2625  0.2513 -0.0643
20569W        W37043  10.931   0.271   0.174  0.0064  0.0092 -0.1992
20570W        W37044   1.929  12.543  12.318  0.2105  0.4497  0.2223
20571W        W37045   2.540  16.651  10.968  0.2073  0.0553  0.1972
20572W        W37046  14.711   3.209  14.212 -0.0435 -0.0669 -0.0012
20573W        W37047   5.853  13.788   2.818  0.0766 -0.2124  0.0924
20574W        W37048   5.602  12.848   0.200  0.4429 -0.1147  0.0133
20575W        W37049   3.532   4.185  11.564 -0.0615 -0.1010  0.0204
20576W        W37050   6.051  17.673  15.363 -0.1224  0.1957  0.0483
20577W        W37051  12.820  13.450   3.922  0.4244 -0.1951  0.0268
20578W        W37052  15.300   4.935   2.767 -0.0134 -0.0601 -0.2577
20579W        W37053   5.826   7.640   3.212 -0.0508 -0.0791 -0.1553
20580W        W37054   3.731  14.553   4.399  0.3228  0.0808 -0.0052
20581W        W37055   1.458   6.499  10.362  0.0074 -0.1601 -0.0732
20582W        W37056  15.042  17.989   5.010 -0.3257 -0.1698  0.1082
20583W        W37057  18.329   9.957  10.596 -0.0502  0.1149 -0.1346
20584W        W37058  12.663   2.082   0.764  0.1232  0.1948  0.2498
20585W        W37059   2.240  16.403   1.118  0.1692 -0.3310 -0.2648
20586W        W37060  10.438  16.976   5.922  0.2203 -0.0926  0.3660
20587W        W37061  17.232  17.404  12.172 -0.0146  0.2660 -0.1332
20588W        W37062  13.282   8.709  13.423 -0.1288 -0.1524 -0.1283
20589W        W37063  11.768  16.946   4.505 -0.1323  0.3211  0.3787
20590W        W37064  13.741  14.902  15.030  0.1125 -0.2183 -0.1526
20591W        W37065   4.794   5.288  12.524  0.2151 -0.1487 -0.0297
20592W        W37066  10.323   1.925   1.842  0.1709  0.0090  0.0322
20593W        W37067  15.170   6.097   2.211 -0.1274 -0.0966 -0.3920
20594W        W37068   0.695   3.293   5.550  0.0303 -0.0427  0.0323
20595W        W37069  18.569   9.579   0.610  0.4687  0.0203 -0.3147
20596W        W37070  16.255   4.706  11.564  0.0682 -0.1428  0.2266
20597W        W37071   0.210  13.500  12.276 -0.0676 -0.0246 -0.1859
20598W        W37072  10.656  15.263  15.604  0.0570  0.2486 -0.0107
20599W        W37073   7.571   4.452   1.630 -0.2378 -0.0051  0.2043
20600W        W37074  15.232   6.617   2.918  0.4039  0.1584 -0.3051
20601W        W37075   4.894  15.416   4.730  0.0058  0.1067 -0.2561
20602W        W37076  15.635   0.766   4.181  0.1668 -0.1675  0.0026
20603W        W37077   9.048  11.930  15.265  0.2045  0.3103  0.0192
20604W        W37078  14.312   7.900  14.807  0.1011  0.0567  0.0295
20605W        W37079  16.870   1.556   4.031 -0.2620  0.0560 -0.3448
20606W        W37080  16.947  15.152   3.317  0.0927 -0.0731 -0.2143
20607W        W37081   2.433  17.193  10.898 -0.0538 -0.3653 -0.3498
20608W        W37082   2.262  18.074   3.627 -0.1653 -0.0026  0.1027
20609W        W37083   0.933  12.056  12.480 -0.2991 -0.1896 -0.0467
20610W        W37084   6.461   8.232   4.711  0.0439  0.0382 -0.1573
20611W        W37085   1.057  10.032   0.988 -0.0695 -0.0814 -0.1947
20612W        W37086  17.082  11.186   2.134 -0.2133  0.0510  0.1091
20613W        W37087  15.116  10.604  12.313  0.0299  0.2546 -0.1586
20614W        W37088   1.356   3.703   1.925 -0.1802  0.2937 -0.0471
20615W        W37089   8.571   9.204  14.127 -0.0761  0.3644  0.0929
20616W        W37090  14.883  13.987   3.284 -0.2030 -0.2614  0.3220
20617W        W37091   1.789  17.075  11.134 -0.4529  0.1139 -0.1231
20618W        W37092   2.189  12.420   4.771 -0.1736  0.3972 -0.0183
20619W        W37093   4.294  17.690   3.391  0.0662 -0.0981  0.0860
20620W        W37094   5.895   6.466   2.226  0.0714 -0.0261 -0.1004
20621W        W37095   7.183   9.814   4.467 -0.2646 -0.1655  0.3957
20622W        W37096   6.083  15.490   4.184 -0.0250  0.4867  0.2285
20623W        W37097   3.305   9.504   0.550  0.1666  0.0540  0.2244
20624W        W37098   6.778  17.366  14.620 -0.2724 -0.0454  0.0798
20625W        W37099   6.400  11.850   0.986 -0.1241 -0.0480  0.0100
20626W        W37100  14.146  12.209   4.798  0.2989  0.0712  0.0840
20627W        W37101   6.760  16.573   1.198 -0.1319  0.2166 -0.0706
20628W        W37102   3.479  17.173   3.791 -0.0626  0.1746 -0.1185
20629W        W37103  11.541   3.853   0.072  0.3402  0.1902 -0.1704
20630W        W37104   4.550  16.435  15.502  0.1458 -0.1281  0.0527
20631W        W37105  15.710  10.291  14.952  0.0698  0.0874 -0.0379
20632W        W37106  11.427  11.974   4.709 -0.0463 -0.0575  0.0872
20633W        W37107  16.811   6.654   1.203 -0.0678  0.0960 -0.2224
20634W        W37108  14.829  17.388   9.971  0.3475 -0.1519  0.0523
20635W        W37109  14.171  16.449  14.225 -0.1190 -0.1204  0.0277
20636W        W37110   4.870  15.711   2.192  0.0189 -0.2007  0.0098
20637W        W37111   2.745  18.553  15.048 -0.3540 -0.1412 -0.1606
20638W        W37112  14.808   7.134  12.586 -0.2652  0.1657 -0.0793
20639W        W37113   2.506  16.947   2.163  0.0723 -0.0378 -0.0276
20640W        W37114  10.199   8.724  11.475  0.1709  0.3201 -0.2034
20641W        W37115  14.746   6.382  12.725 -0.2792  0.0381 -0.4672
20642W        W37116   0.363   5.430  15.553 -0.0407  0.0561  0.0362
20643W        W37117  12.327  13.841   2.518 -0.0186  0.0915  0.0540
20644W        W37118  16.237  13.517   3.548 -0.1100 -0.1833  0.0972
20645W        W37119  17.206  17.219  11.176  0.1156 -0.0576  0.0487
20646W        W37120  10.306  10.792  12.680  0.1517  0.0510  0.1615
20647W        W37121  18.792  10.442  14.017 -0.0050  0.0964  0.0031
20648W        W37122   8.476   4.800  14.445  0.0764  0.2130 -0.4964
20649W        W37123  17.283  12.146   2.573  0.1174 -0.0182 -0.1791
20650W        W37124  16.053   3.667   4.513  0.1481  0.3598  0.1713
20651W        W37125   1.325  13.556  11.130  0.0602 -0.1834 -0.2263
20652W        W37126  12.169  11.909   2.598 -0.3096 -0.3272 -0.1628
20653W        W37127  18.595  12.865   0.361 -0.1595 -0.0924 -0.0138
20654W        W37128  10.147  14.761  14.271 -0.0472  0.0349  0.0578
20655W        W37129  16.192   4.099   4.294  0.1165 -0.0450  0.1229
20656W        W37130  13.257   6.291  13.006 -0.0082  0.3076 -0.0994
20657W        W37131   6.199   9.697   0.621  0.0562 -0.2406 -0.0227
20658W        W37132  11.986   7.957  12.112 -0.0521  0.3270  0.1057
20659W        W37133   3.820   8.317   4.348 -0.3427  0.0238 -0.2652
20660W        W37134  16.815  15.478  10.601 -0.0672  0.1554  0.0647
20661W        W37135  18.137   9.810   1.497 -0.0514 -0.1567  0.0297
20662W        W37136   3.480  15.049  14.491  0.0425  0.0019 -0.2030
20663W        W37137   9.111   2.929  13.898 -0.0486  0.0205  0.0975
20664W        W37138  11.232  10.765   1.672  0.2182 -0.0991 -0.2420
20665W        W37139  10.434   3.258   2.074  0.1420 -0.0142 -0.1773
20666W        W37140  17.349   2.479  14.847 -0.0921 -0.3518  0.2251
20667W        W37141   5.033  16.152   0.888 -0.1669  0.3588  0.0102
20668W        W37142   7.530  14.680   3.288 -0.2507  0.0552 -0.4638
20669W        W37143  15.339   7.592  13.342  0.0283 -0.0597 -0.0618
20670W        W37144   9.678   2.857   4.702 -0.0043 -0.1741  0.0393
20671W        W37145   1.890   8.994   3.047 -0.0908 -0.1089 -0.2439
20672W        W37146  12.746  10.987   2.828 -0.2507  0.0671 -0.1051
20673W        W37147   8.993   0.542   1.392  0.0382  0.4716 -0.0190
20674W        W37148   5.938  11.590  12.857  0.4872  0.0254 -0.1027
20675W        W37149   9.869   3.123  15.610 -0.0028  0.1346  0.1205
20676W        W37150  15.473   8.541   1.338  0.4786  0.0797 -0.1239
20677W        W37151  17.893   0.645  11.630  0.1669  0.0288 -0.1926
20678W        W37152   4.861   6.530   4.143  0.1384 -0.1178  0.0378
20679W        W37153   0.153   8.260  13.825 -0.0332 -0.0168 -0.0227
20680W        W37154   8.350  15.893  11.324  0.0346  0.1770  0.0736
20681W        W37155  18.016   1.878   1.263 -0.6371 -0.4495 -0.0902
20682W        W37156   8.118   9.748  12.749  0.1152 -0.0122  0.0297
20683W        W37157   6.345  13.995   5.426 -0.2116  0.1174 -0.4000
20684W        W37158   1.499   4.718  11.124 -0.0259 -0.1374 -0.1885
20685W        W37159  12.118   1.664   2.428 -0.2548  0.0024  0.0190
20686W        W37160   7.472  12.640   0.057 -0.2861 -0.1543  0.1191
20687W        W37161   0.083  17.329  11.225  0.2941 -0.3370 -0.1693
20688W        W37162  15.077   5.733   2.511 -0.2526 -0.2593  0.0450
20689W        W37163   9.659  13.456   1.297  0.2124  0.1547  0.1596
20690W        W37164   6.113  12.415  15.153  0.1112 -0.2479 -0.2002
20691W        W37165   2.721   3.208  12.295  0.2770 -0.0186 -0.0091
20692W        W37166   7.825  11.883  13.955  0.0640 -0.1687 -0.2266
20693W        W37167   3.899   8.661  13.589 -0.0032  0.0367  0.0610
20694W        W37168   6.456   1.082  13.171 -0.0561 -0.1182 -0.3068
20695W        W37169  18.001   9.896   9.628  0.1248 -0.3567 -0.2264
20696W        W37170  17.447   4.723   0.243 -0.0949 -0.1157  0.1174
20697W        W37171   0.838  10.454   0.418 -0.3755  0.2349  0.1424
20698W        W37172   9.094  17.064  15.183 -0.0950  0.1238  0.3355
20699W        W37173   3.118  12.961  11.299 -0.1251  0.0703 -0.2948
20700W        W37174   7.855  16.532   0.423  0.3002  0.2883  0.0422
20701W        W37175   3.222   4.524   5.571  0.1251 -0.2949 -0.2870
20702W        W37176  17.646  11.559  10.965 -0.0480 -0.1473  0.0645
20703W        W37177   3.633   8.789   4.199 -0.2110  0.0143  0.2361
20704W        W37178   9.826   9.064   5.487  0.0897  0.1764  0.4031
20705W        W37179   9.712   8.702  11.575  0.2201 -0.0708  0.2350
20706W        W37180   6.790  12.075  11.040  0.3111  0.0941 -0.5315
20707W        W37181   9.450   1.814   3.848 -0.3482 -0.0779  0.4184
20708W        W37182  13.636  12.952  11.027  0.0192 -0.1054  0.1565
20709W        W37183  13.590  12.241  13.116  0.1999 -0.0450 -0.1238
20710W        W37184  15.818  11.458   0.734 -0.1184  0.1871 -0.1228
20711W        W37185   8.349  12.148  13.682 -0.0495  0.1237  0.1154
20712W        W37186   3.192   3.094   4.595  0.0769 -0.0106 -0.1571
20713W        W37187  13.197   9.466  12.272 -0.4238 -0.0028 -0.1012
20714W        W37188   6.436   8.796  11.492 -0.1521  0.1756 -0.0975
20715W        W37189  15.149   9.292  11.200 -0.1619  0.0533  0.1917
20716W        W37190   4.773  17.734   1.180 -0.0937 -0.2078  0.2858
20717W        W37191   2.277  10.178  11.870  0.1074 -0.1525  0.2547
20718W        W37192  13.084   4.876   0.407  0.4335 -0.5632  0.0665
20719W        W37193  18.384   3.701  15.328 -0.2330 -0.0618  0.1029
20720W        W37194   1.402  10.856   4.293 -0.0603  0.2305  0.1957
20721W        W37195   6.191  18.124  14.658  0.1702 -0.1692 -0.0948
20722W        W37196   4.751   9.700   0.952 -0.1859 -0.2695 -0.2481
20723W        W37197  14.447   0.326   2.677  0.0026 -0.0829  0.2609
20724W        W37198   7.278  18.531  12.014  0.0105 -0.2865  0.0021
20725W        W37199  16.228  12.272  14.594 -0.3771  0.0903 -0.1837
20726W        W37200   1.409   7.905  15.145 -0.2286 -0.1471  0.2794
20727W        W37201  10.312  10.698   1.668  0.0579 -0.0204 -0.0851
20728W        W37202   5.232  16.345   4.028 -0.1728 -0.3397  0.2073
20729W        W37203  16.892   5.152  14.250  0.0280  0.1331 -0.1279
20730W        W37204   1.913  13.688   2.088 -0.0060  0.0433  0.0252
20731W        W37205   2.576   7.358   5.497  0.2748  0.0493  0.1800
20732W        W37206  16.013   4.351  11.981  0.2370  0.2566  0.3756
20733W        W37207  10.951   7.274  14.785  0.3191 -0.1826  0.0501
20734W        W37208  12.699   9.323   1.284  0.3642  0.0430 -0.0204
20735W        W37209  13.790  14.234   4.099  0.1682  0.0100  0.0624
20736W        W37210  10.585  11.070   1.857 -0.1851  0.1484  0.1040
20737W        W37211  15.663   2.149  13.310 -0.5018  0.0585 -0.0768
20738W        W37212  13.015  14.159  11.130  0.1120 -0.2011 -0.2744
20739W        W37213  17.673   2.827  10.638  0.2481  0.0156 -0.2214
20740W        W37214  10.343   8.504   0.157 -0.0625 -0.2029 -0.1410
20741W        W37215   2.337   7.212  14.741 -0.2174  0.2364  0.2893
20742W        W37216   1.466   6.235  13.182 -0.1275  0.1617  0.2150
20743W        W37217   5.609  13.108  15.140 -0.0751  0.1224 -0.2225
20744W        W37218  10.491  11.136   1.106  0.2549 -0.0934  0.2898
20745W        W37219  17.656   0.390   4.328  0.4924 -0.2816 -0.1856
20746W        W37220  13.467  13.556  15.243 -0.1158 -0.0032  0.4834
20747W        W37221   0.565  14.908   2.029  0.3512 -0.0895  0.0791
20748W        W37222  15.185  10.077   3.891  0.1360  0.2936  0.1405
20749W        W37223   0.969  14.224  11.713 -0.3047 -0.0528  0.0671
20750W        W37224   6.921   9.726   1.574  0.2008 -0.2138 -0.2715
20751W        W37225   9.818  11.799  14.354 -0.1671 -0.0749 -0.0808
20752W        W37226   6.721   5.862  12.112  0.0500 -0.3229 -0.1922
20753W        W37227  10.388  17.386  14.976 -0.1312  0.3417  0.2184
20754W        W37228   8.298  18.817  12.305 -0.4845  0.0726  0.1125
20755W        W37229  13.916  15.847   0.424  0.0380  0.0105 -0.0159
20756W        W37230   2.103   6.031  12.647  0.0146  0.0877  0.0752
20757W        W37231  12.214   6.175   4.480 -0.0631 -0.3809 -0.2786
20758W        W37232   3.460  17.115  13.145 -0.1052 -0.1077  0.2183
20759W        W37233   4.315   2.339  11.765 -0.0454  0.1587  0.1868
20760W        W37234  16.437   3.373   2.762  0.0893 -0.0443 -0.0319
20761W        W37235  17.208  10.951   0.486  0.3057 -0.2517 -0.1107
20762W        W37236   7.206  10.985   3.771 -0.0733 -0.0995  0.1655
20763W        W37237   8.140   9.622   0.414 -0.2482  0.0870  0.0920
20764W        W37238  16.353  12.152   1.039  0.0786 -0.0522 -0.2755
20765W        W37239  10.124  14.096   2.089 -0.0164 -0.3137 -0.0929
20766W        W37240  10.785   8.723  13.317  0.0383 -0.1100  0.0041
20767W        W37241   4.399  15.512   1.992 -0.0249  0.1760  0.1796
20768W        W37242  11.725   2.399   5.178 -0.2317 -0.0307 -0.2267
20769W        W37243   1.144  10.468   4.005 -0.1079  0.3256 -0.1787
20770W        W37244   8.692  12.358   5.213  0.2679 -0.1258  0.2551
20771W        W37245   9.761   5.485  11.009 -0.1771 -0.0600 -0.1432
20772W        W37246  12.014   1.527   4.184  0.1753  0.0306 -0.1373
20773W        W37247   9.129  15.268  15.040  0.2086  0.0141 -0.0670
20774W        W37248   8.155   3.112   2.730  0.1786  0.2112  0.3335
20775W        W37249   5.714   1.080   3.289  0.2532  0.1767 -0.1191
20776W        W37250   2.051  15.966  13.771  0.0399  0.1068 -0.3820
20777W        W37251   8.839   2.743   6.045  0.1575 -0.0378  0.0500
20778W        W37252  11.701   6.003   4.604 -0.0409 -0.0290  0.3245
20779W        W37253  13.576  17.962   0.804  0.0919 -0.0583 -0.0463
20780W        W37254   5.309  11.887  12.300 -0.0838 -0.0568  0.1199
20781W        W37255  15.121  16.026  15.160  0.3316 -0.1764 -0.0050
20782W        W37256   9.850   1.337   3.432 -0.3519  0.3625 -0.1759
20783W        W37257  17.337   1.539  14.721  0.1255 -0.0404 -0.2045
20784W        W37258  13.188   4.132  12.871 -0.0314  0.1809 -0.2423
20785W        W37259   9.372   8.504  12.458  0.3513  0.2384  0.0757
20786W        W37260  18.279   4.017  11.351  0.1873 -0.2765  0.0438
20787W        W37261  15.765   7.572  11.285 -0.1271 -0.0015 -0.0431
20788W        W37262  18.336   5.900  14.945  0.1073  0.1089  0.2860
20789W        W37263   9.981   8.072   4.546 -0.0380 -0.1518  0.0130
20790W        W37264  15.496   1.928  15.322 -0.0268  0.2587  0.3593
20791W        W37265  13.911  11.970   4.361 -0.1116  0.0461 -0.0859
20792W        W37266   1.650   2.397   4.320 -0.0973  0.3436  0.0394
20793W        W37267   4.784  15.326   2.900  0.1237  0.1449  0.2387
20794W        W37268   1.658  11.549   4.199  0.0643  0.0969  0.0816
20795W        W37269  16.874   4.350  12.418  0.4697  0.1866 -0.0204
20796W        W37270  13.283  18.330  13.195  0.1866  0.1570  0.0073
20797W        W37271   3.288  14.480   1.853  0.2400 -0.1213 -0.0450
20798W        W37272   0.069  10.934  11.007 -0.0180  0.0257 -0.0631
20799W        W37273   9.093   5.619   6.515 -0.0861 -0.1640 -0.1208
20800W        W37274   4.510   7.931  11.490 -0.0796  0.1341  0.2096
20801W        W37275   8.799   0.234   4.082  0.1864  0.0221  0.3720
20802W        W37276  12.728   7.064   0.734 -0.1259 -0.1675  0.2501
20803W        W37277  16.478  12.361   3.548 -0.1336  0.1973  0.1854
20804W        W37278   7.967  18.070  15.319  0.2935  0.2498  0.0686
20805W        W37279  14.393   6.579  14.639  0.2948  0.1319 -0.0821
20806W        W37280  12.742   2.955  15.593 -0.0026  0.3422 -0.2481
20807W        W37281  11.294   2.234   3.366  0.0816  0.0477 -0.0655
20808W        W37282  13.651   6.048   3.334  0.0091  0.0316 -0.0604
20809W        W37283   4.684   6.450   3.520  0.0296 -0.2044 -0.1052
20810W        W37284  16.098   7.363  14.551 -0.2621  0.0185 -0.0599
20811W        W37285  13.989  17.915  12.762  0.0031  0.1662  0.1565
20812W        W37286   1.782   3.965  12.641  0.1216 -0.2894 -0.1576
20813W        W37287   9.863   9.909   2.345  0.2346 -0.6140  0.2812
20814W        W37288   5.886  18.518  14.164 -0.0772 -0.0032 -0.0893
20815W        W37289  12.152  15.421  15.346 -0.2411 -0.1337  0.0881
20816W        W37290  16.489  17.462   3.102 -0.0849 -0.0667 -0.0869
20817W        W37291   1.481   6.716  13.534 -0.1358  0.0716 -0.0409
20818W        W37292  12.213   9.507  11.552  0.3253 -0.3515 -0.1414
20819W        W37293   6.966  16.960  14.542 -0.3355  0.0057  0.0502
20820W        W37294   4.437   6.458   4.605  0.3248 -0.0552  0.0995
20821W        W37295  17.546  17.614  14.949  0.0674 -0.1062 -0.1606
20822W        W37296   7.778   7.790   1.546 -0.0086 -0.1179  0.1885
20823W        W37297  17.665  11.598   4.887  0.2456  0.4083  0.1379
20824W        W37298  10.933   0.197   3.271 -0.0474 -0.0532 -0.1704
20825W        W37299  15.188   3.073  15.512 -0.0964 -0.0280  0.1493
20826W        W37300  11.324   2.735   2.354 -0.1275  0.0081 -0.0368
20827W        W37301  18.165   6.860  14.093 -0.1534  0.1303  0.0045
20828W        W37302  14.232   6.836   1.592  0.0647  0.1059 -0.2465
20829W        W37303  10.949   4.092   5.250 -0.2245 -0.4597 -0.2169
20830W        W37304   9.467   0.958  13.859  0.1628 -0.0519 -0.0872
20831W        W37305   4.173   4.200   0.667 -0.0764  0.3832 -0.0010
20832W        W37306   4.254  17.201   1.952  0.3597  0.0145 -0.2149
20833W        W37307   4.775   1.441   4.159 -0.1817 -0.5524  0.1918
20834W        W37308  10.956   4.992   2.197 -0.1471  0.0954 -0.0561
20835W        W37309  13.838  14.211  13.229 -0.2129 -0.0127  0.0193
20836W        W37310  18.806   7.538   2.407 -0.1153 -0.0146 -0.1382
20837W        W37311   7.934   0.031   1.934 -0.3122 -0.2655  0.0060
20838W        W37312  11.607  12.421   3.963 -0.1502 -0.0222  0.0198
20839W        W37313  12.580   1.071  14.558 -0.1254 -0.2225  0.2145
20840W        W37314  14.792   9.186   1.030  0.1489  0.2087  0.1598
20841W        W37315  14.837   2.764  14.365  0.0166 -0.2669  0.0499
20842W        W37316   1.870   3.312   1.781  0.2271  0.0988  0.2206
20843W        W37317  18.231   5.527  11.429 -0.0529 -0.2090 -0.1163
20844W        W37318  18.119  10.364   2.670  0.1276 -0.0198  0.1347
20845W        W37319   9.003   8.551   1.521 -0.1994  0.0370 -0.2722
20846W        W37320  10.369  18.205  13.253  0.1704  0.0082 -0.0179
20847W        W37321  16.325  13.206   3.143 -0.0088 -0.0864 -0.0104
20848W        W37322  14.574   5.466  13.093  0.0123  0.0576 -0.0866
20849W        W37323  15.970  16.108  10.644  0.0439  0.1782  0.0580
20850W        W37324  13.607   1.941   4.118 -0.0596  0.0268 -0.1006
20851W        W37325  12.804  18.418  13.483 -0.0328  0.1182  0.2918
20852W        W37326  12.797   0.311  12.735 -0.1327 -0.2084 -0.0261
20853W        W37327   0.759   3.539  15.399  0.1523  0.1165 -0.1879
20854W        W37328  15.715   7.587  12.112  0.1906  0.0807  0.1851
20855W        W37329   4.371  16.954   2.358 -0.1753 -0.1092 -0.1060
20856W        W37330   8.701  16.107   0.708 -0.1165 -0.2451  0.2484
20857W        W37331   9.138  11.816   5.187  0.3084 -0.3485  0.1231
20858W        W37332  17.467   0.971  12.492  0.1841 -0.1923  0.2002
20859W        W37333   7.475  16.688   1.270 -0.3349 -0.1190  0.0505
20860W        W37334   6.808   6.866   4.046 -0.0746 -0.2025 -0.1325
20861W        W37335   8.969  10.024   5.417  0.2801 -0.1285  0.3566
20862W        W37336  14.087   4.717  11.275  0.2911 -0.1228 -0.0592
20863W        W37337   9.239   5.164   3.395  0.2879  0.1142 -0.1887
20864W        W37338  15.863  13.086   1.500  0.0795 -0.0099 -0.1532
20865W        W37339   8.117  14.821  12.850  0.1571 -0.0664  0.2407
20866W        W37340   1.665  13.634   2.935 -0.1321 -0.2853  0.2269
20867W        W37341  13.117   8.448  14.259  0.0834  0.0599 -0.1770
20868W        W37342   7.524   9.673  14.463 -0.1761 -0.3206 -0.0776
20869W        W37343   3.314  16.306   5.389 -0.0145  0.3241 -0.4576
20870W        W37344   9.201   2.439   0.604 -0.1862  0.0381 -0.0447
20871W        W37345   4.380  16.935  13.674  0.3699 -0.2144  0.1078
20872W        W37346  11.757  13.196   0.271 -0.2446  0.3314 -0.2531
20873W        W37347   3.293   4.584   0.496 -0.1237 -0.0060 -0.3561
20874W        W37348  15.751   3.268   2.660  0.0056  0.1886 -0.1422
20875W        W37349  18.498  10.527   0.987  0.1705 -0.1082  0.2050
20876W        W37350   5.720  18.390   0.142 -0.2103 -0.0933 -0.2161
20877W        W37351  11.017  13.768  15.056  0.0727 -0.0743  0.4905
20878W        W37352   7.142   3.410  11.167 -0.0125 -0.1225  0.0358
20879W        W37353   7.217   7.700  14.693 -0.0086 -0.1254  0.1782
20880W        W37354   5.785  12.028  12.449  0.0090  0.4492 -0.1814
20881W        W37355  11.823  17.909   5.764 -0.0251  0.1545 -0.2347
20882W        W37356   9.342  17.545   1.474 -0.1353 -0.1798  0.1539
20883W        W37357   8.930   5.556   3.874  0.3731 -0.0854 -0.0172
20884W        W37358   0.203   9.630  11.616  0.0204 -0.2380  0.0805
20885W        W37359  14.306   8.594  10.532  0.0200  0.0200  0.0722
20886W        W37360   6.890  15.587   0.510 -0.0940 -0.0147 -0.1566
20887W        W37361  15.627  11.913  15.089  0.1947  0.2486  0.3553
20888W        W37362  13.259   6.258  15.565 -0.0574  0.1024 -0.0426
20889W        W37363  13.229  16.452  11.668  0.2491 -0.0814  0.1523
20890W        W37364  16.565   4.508  13.197  0.1639 -0.0367  0.0865
20891W        W37365  17.767  18.047  11.542  0.0089  0.2271 -0.0338
20892W        W37366  12.239   8.091  11.701  0.0326 -0.0739  0.1793
20893W        W37367  18.834   3.995   2.847 -0.0370 -0.2776 -0.2550
20894W        W37368  17.994   6.279  11.460  0.1470  0.0085  0.0498
20895W        W37369  14.499  18.580  15.241  0.0649  0.1169  0.2038
20896W        W37370   1.383  14.339   3.543 -0.2892  0.0058  0.1656
20897W        W37371   0.781  17.574   0.828  0.0165 -0.1266  0.0371
20898W        W37372   2.131   0.640  11.379  0.0431  0.3635  0.0491
20899W        W37373  18.100   2.941  14.262 -0.0247  0.0636  0.0408
20900W        W37374   8.513  18.465   2.204 -0.1889 -0.0240  0.0333
20901W        W37375  14.418   2.871  15.315 -0.0163 -0.0422 -0.1732
20902W        W37376  15.847  10.777  13.311  0.6590  0.0710  0.0458
20903W        W37377   3.812  17.298  13.646  0.0766  0.0368 -0.0248
20904W        W37378  18.033  12.375   4.354  0.3143  0.1762 -0.0897
20905W        W37379   6.951  14.437  14.031 -0.1097 -0.0219  0.0968
20906W        W37380  17.886   0.027  14.322  0.0393  0.0253 -0.0511
20907W        W37381  13.952  11.707   2.472  0.0274  0.2618  0.0301
20908W        W37382  18.123  18.606   3.253  0.0751  0.0051 -0.1415
20909W        W37383   5.130  18.711   2.273 -0.0547 -0.2442 -0.2192
20910W        W37384   1.625  15.975   0.679 -0.1871  0.0986  0.0685
20911W        W37385  13.946   2.114   3.703 -0.2857 -0.0971 -0.1203
20912W        W37386   8.897   6.978   0.548  0.1350 -0.2516  0.0905
20913W        W37387   5.324   8.027   1.689 -0.1208 -0.2615  0.3168
20914W        W37388  17.444  10.903   4.432 -0.3371 -0.2366 -0.0971
20915W        W37389  12.663  16.458  14.840 -0.1349  0.1148 -0.2772
20916W        W37390  14.932   0.798   3.003 -0.1090 -0.0091  0.1357
20917W        W37391  11.538   8.780   4.591  0.1147 -0.0335 -0.1033
20918W        W37392  16.956   8.124  11.953  0.0707 -0.0605 -0.1305
20919W        W37393   3.274   7.797   3.618  0.1314 -0.3012  0.2268
20920W        W37394   9.777  12.892   2.002  0.0003 -0.1200 -0.0432
20921W        W37395   4.680   4.978   2.239  0.2690 -0.1936 -0.1182
20922W        W37396  10.710   6.703   0.008  0.1534 -0.1300 -0.0792
20923W        W37397   8.695  11.147   3.765  0.0072 -0.2171 -0.1707
20924W        W37398  14.453   4.184   2.899  0.0340  0.0901 -0.0582
20925W        W37399  17.956  14.367  14.682  0.1530 -0.1921  0.2420
20926W        W37400  12.860  11.593   2.002 -0.3033 -0.2906 -0.0526
20927W        W37401   3.341  13.452  10.897  0.0495  0.2593  0.1635
20928W        W37402   2.188  13.860   1.655 -0.1348  0.1072  0.0897
20929W        W37403  10.589   0.271  15.512  0.0614  0.0038  0.2037
20930W        W37404  13.419  12.018   4.474 -0.0710 -0.0921 -0.0360
20931W        W37405  15.225   6.711   1.692 -0.1026  0.4003 -0.0446
20932W        W37406   0.765  15.546  14.602  0.0482 -0.0781 -0.1596
20933W        W37407  10.688   7.940   0.750 -0.0436 -0.0220 -0.0799
20934W        W37408   8.748  18.097   4.345 -0.0913  0.2234  0.0270
20935W        W37409   5.463  15.613  13.775 -0.0754 -0.1338  0.1046
20936W        W37410  11.714   2.821   0.995  0.1402 -0.2908  0.0186
20937W        W37411   4.116   8.142  15.679 -0.2911  0.1226  0.2609
20938W        W37412   3.850  17.058  15.342 -0.2831  0.1135 -0.2893
20939W        W37413   4.973  10.433  11.994  0.1890  0.1554  0.3526
20940W        W37414  18.229   7.249  10.746 -0.2536 -0.0924 -0.2724
20941W        W37415   6.018  17.970   5.227 -0.2124  0.1246  0.0411
20942W        W37416  12.825   3.821   4.011 -0.2440  0.0666  0.0211
20943W        W37417  12.850  16.114  13.073 -0.2903 -0.0166  0.0245
20944W        W37418  10.249  14.488   4.352 -0.1577  0.2518  0.1119
20945W        W37419   6.860  16.410   3.172 -0.0509 -0.1815 -0.1412
20946W        W37420  13.259  17.331   3.342  0.0431 -0.1934  0.0718
20947W        W37421   0.103   1.350  15.110  0.1114  0.1294  0.0505
20948W        W37422   8.861   8.676   3.388 -0.1981 -0.2035 -0.1212
20949W        W37423  10.773   2.954  10.299 -0.0903 -0.1192  0.0798
20950W        W37424  10.517   9.999   5.438 -0.1444  0.1418  0.2307
20951W        W37425  17.418  18.769  13.407  0.1450  0.0126 -0.2548
20952W        W37426   0.785  15.267   2.670  0.0908 -0.1491 -0.0331
20953W        W37427   5.582  15.516   2.398 -0.1539 -0.2402  0.2369
20954W        W37428  10.897  14.125  14.707  0.0631 -0.2608 -0.1752
20955W        W37429   9.859  12.436   2.408  0.0179 -0.3304 -0.2455
20956W        W37430   7.638  16.361  13.996 -0.1306 -0.2204 -0.1816
20957W        W37431  17.526   9.615  11.352 -0.2815  0.1925  0.1788
20958W        W37432   7.364   9.425  11.209 -0.2002 -0.0176  0.5562
20959W        W37433  15.414  16.150   1.518  0.0964  0.0463  0.1503
20960W        W37434   3.034   8.491   2.888  0.0930 -0.2002 -0.2558
20961W        W37435  12.853   6.079  15.264 -0.1481 -0.0579  0.0871
20962W        W37436  18.729  17.321  11.690  0.1088 -0.0394  0.0413
20963W        W37437  12.045   9.398   4.490  0.1216 -0.0383  0.0200
20964W        W37438   8.423   0.522   2.451 -0.0503  0.1500 -0.2806
20965W        W37439  14.548  13.965  11.601  0.1822 -0.0635 -0.0401
20966W        W37440   3.737  16.171   0.517 -0.0061  0.0117  0.2088
20967W        W37441  10.157  18.000   4.620  0.0401 -0.1422 -0.0275
20968W        W37442   3.608  15.844   1.867  0.4491 -0.3404 -0.0510
20969W        W37443  10.182   4.959   3.139  0.1887 -0.4105  0.0839
20970W        W37444  14.366   4.334   9.953 -0.2185 -0.3726  0.0206
20971W        W37445   3.109   9.412  13.410  0.2162 -0.0884 -0.0733
20972W        W37446  13.739  13.378   2.602  0.1394  0.0305 -0.1325
20973W        W37447  14.668  14.959   2.770  0.0538  0.0486 -0.1293
20974W        W37448   9.322  16.092   1.603  0.0120 -0.0109 -0.0312
20975W        W37449  10.252  15.874   3.872  0.2733  0.0173  0.1056
20976W        W37450  16.979   3.323   1.262  0.1564  0.1342  0.0401
20977W        W37451  18.360  15.712   4.300  0.1510  0.1849 -0.1784
20978W        W37452  12.662   2.491  14.615 -0.1919  0.0935 -0.2495
20979W        W37453   3.873  11.864   3.587 -0.1796 -0.2003 -0.0661
20980W        W37454  13.713   4.693   2.956 -0.1303 -0.0670  0.0782
20981W        W37455  17.533   9.764   3.909  0.1592 -0.1656 -0.1735
20982W        W37456   4.549  12.591   2.582  0.0634  0.0409  0.4004
20983W        W37457  15.146   1.084  11.361 -0.2626  0.1594  0.0399
20984W        W37458   2.871   4.571  11.025 -0.0292  0.4304 -0.2072
20985W        W37459  17.124   5.308   0.927 -0.0045 -0.2275 -0.2225
20986W        W37460  12.727   6.014  11.602 -0.0768 -0.0946 -0.2932
20987W        W37461  13.527   9.271   2.819  0.2045  0.3322  0.1394
20988W        W37462  10.951   8.968   1.026  0.0442 -0.1487  0.1157
20989W        W37463  17.855  13.449   1.409  0.2242  0.2451  0.4096
20990W        W37464   0.162   5.333   4.869 -0.1059 -0.1123 -0.3413
20991W        W37465   7.648  12.921   2.170 -0.3236 -0.0991  0.0160
20992W        W37466  10.980   8.991   1.577 -0.1034  0.5848  0.0682
20993W        W37467   3.216   0.915   2.863 -0.3183  0.0033 -0.0433
20994W        W37468  15.292  10.198  11.480 -0.0533 -0.1158 -0.1844
20995W        W37469   4.055  13.688   0.020  0.1575 -0.0081 -0.2638
20996W        W37470  13.560  18.145   2.888  0.1852 -0.2260 -0.1315
20997W        W37471  10.335   2.457  12.390  0.0740 -0.0117  0.4292
20998W        W37472   4.053   9.585  13.343  0.0582  0.0623  0.0412
20999W        W37473   7.371   2.441   1.223 -0.4061  0.0615 -0.3045
21000W        W37474  10.538   5.259  11.621 -0.2063 -0.2100 -0.5161
21001W        W37475   8.760   0.906  14.967 -0.0489  0.0649  0.0705
21002W        W37476  12.704   2.853   2.499 -0.0857  0.2235  0.2474
21003W        W37477  15.843  17.725   3.285 -0.1563  0.0851  0.1337
21004W        W37478   7.294   2.612   6.510 -0.0169  0.1970 -0.1083
21005W        W37479   2.784   3.975   0.210 -0.0904 -0.3576  0.0955
21006W        W37480   0.028   9.274   2.827 -0.0303  0.3096  0.0930
21007W        W37481   0.390   7.691  11.304 -0.0047  0.0229 -0.0750
21008W        W37482   0.178  15.627  15.262 -0.1932  0.0583 -0.1281
21009W        W37483   6.446  16.709   5.390  0.5003 -0.0062  0.1567
21010W        W37484   0.987   9.689   5.174 -0.0823  0.1841 -0.4091
21011W        W37485  12.828   8.843  14.215  0.2144 -0.3293  0.1680
21012W        W37486   3.002   5.325   1.574  0.1187 -0.0323  0.0306
21013W        W37487  11.164   3.420  15.521 -0.5490 -0.0853 -0.0253
21014W        W37488   8.814   6.821  14.494  0.0808 -0.1060 -0.0342
21015W        W37489   3.013   7.381   5.194 -0.2179 -0.1943  0.0528
21016W        W37490  15.941   1.406   3.565  0.2826  0.1194  0.2194
21017W        W37491  10.931  13.205  14.112  0.0778 -0.0503 -0.0737
21018W        W37492  10.738  12.821   4.095 -0.3672  0.0426 -0.0383
21019W        W37493   2.833   4.284  14.552 -0.1960  0.0641 -0.4127
21020W        W37494  18.052  14.969  10.566  0.0473  0.4041  0.2892
21021W        W37495  14.370  15.737   1.167 -0.1391 -0.2744 -0.3982
21022W        W37496   8.137   8.757   0.983  0.0995  0.2128 -0.0728
21023W        W37497   3.715  14.919   0.107 -0.2168 -0.0758  0.1906
21024W        W37498   4.415   8.542  11.569 -0.0047  0.1911 -0.0204
21025W        W37499  16.903  15.347   4.638  0.0675  0.3185 -0.3648
21026W        W37500   3.449   9.222  15.008  0.1329 -0.3720  0.1923
21027W        W37501   1.747   0.428  11.759  0.3099  0.1125 -0.0772
21028W        W37502   8.686   1.046   4.654 -0.1631 -0.3490  0.1712
21029W        W37503  17.608  18.353   3.820 -0.1376 -0.1172 -0.0386
21030W        W37504   5.453   3.732  12.324 -0.0929 -0.2317  0.1765
21031W        W37505   4.118  10.060   3.518 -0.0857  0.2036 -0.0733
21032W        W37506   4.633  16.130  13.723 -0.0103 -0.0163  0.0543
21033W        W37507  10.222  16.288   4.087 -0.1727  0.1298 -0.1592
21034W        W37508   7.690  11.285  11.710 -0.0097 -0.0464  0.0502
21035W        W37509   3.268  18.497   4.073 -0.3783  0.1354  0.1383
21036W        W37510  10.042  16.453  13.625 -0.1124 -0.0900 -0.2531
21037W        W37511  16.670  10.897  13.502 -0.1963  0.2668 -0.0333
21038W        W37512  10.168  16.715  12.047  0.0190 -0.0964  0.1581
21039W        W37513  13.708   3.646  15.561 -0.0334  0.2245  0.1071
21040W        W37514   6.793   4.819   4.554 -0.1087 -0.1450  0.1570
21041W        W37515  17.454  17.310  10.268 -0.2234 -0.0572  0.1156
21042W        W37516   9.527   6.487  13.270  0.1902 -0.2959 -0.0387
21043W        W37517  15.151   2.950   4.098 -0.2834 -0.0948 -0.2173
21044W        W37518  13.516  13.697   0.024 -0.0488  0.1199 -0.1525
21045W        W37519   2.105  18.326   5.091  0.0333 -0.0240 -0.1173
21046W        W37520  14.254   7.475  10.782  0.3407  0.0193 -0.2485
21047W        W37521   7.580  15.608   2.790 -0.0347 -0.1900 -0.0391
21048W        W37522   3.978  14.930   2.440  0.1067  0.0585 -0.0803
21049W        W37523  17.237   3.363  11.398 -0.1264 -0.6158 -0.2461
21050W        W37524   3.991  11.773   9.847  0.2171 -0.1661  0.1438
21051W        W37525   2.727   6.383   5.010  0.2647  0.3690  0.2963
21052W        W37526  15.572   3.258   3.938 -0.1894  0.0271 -0.0456
21053W        W37527   9.946  10.108  15.127  0.2505  0.0265  0.3861
21054W        W37528   0.970   6.606  15.650 -0.0234  0.0399 -0.0299
21055W        W37529  13.759  14.890  11.017 -0.1441 -0.1999 -0.2173
21056W        W37530  11.684  10.134   1.850 -0.1498  0.2708  0.2909
21057W        W37531  16.317   6.843   0.135  0.3390 -0.0687 -0.1491
21058W        W37532   4.703   2.084   5.044 -0.2212  0.0305 -0.2420
21059W        W37533   9.445  18.146   0.260 -0.2590  0.1652  0.1404
21060W        W37534   6.299  11.868   2.402 -0.0642 -0.2126 -0.2952
21061W        W37535   1.132   1.413   2.552  0.1554  0.1981 -0.1661
21062W        W37536   9.794   8.511   4.837  0.2104  0.1521 -0.1431
21063W        W37537  18.272   2.190   3.279  0.0145  0.2089  0.0080
21064W        W37538  12.308  17.307   0.645 -0.0531 -0.0560 -0.0233
21065W        W37539  16.855   7.624  14.625 -0.2104 -0.3630 -0.3145
21066W        W37540  16.099  10.499  14.753  0.0182  0.2439 -0.1856
21067W        W37541   9.607  12.483  15.325 -0.1556  0.1849  0.1018
21068W        W37542   5.245  16.061   2.458 -0.2023 -0.1099  0.2741
21069W        W37543  14.361  15.120   0.885 -0.1551  0.0681  0.1689
21070W        W37544   6.671  18.051  14.096  0.0078 -0.2167  0.2969
21071W        W37545   2.084   7.867   2.517  0.0865 -0.0604  0.1680
21072W        W37546  16.748   5.560   1.574  0.0820 -0.1465  0.0480
21073W        W37547   8.023   4.938   0.464 -0.1798 -0.4124 -0.0059
21074W        W37548   7.468   7.446  14.117  0.0802  0.2397  0.0294
21075W        W37549  14.551   3.395  10.910  0.0926 -0.2231 -0.5654
21076W        W37550  15.766  14.381   1.755 -0.1329 -0.2947  0.4809
21077W        W37551  12.610   5.064  13.270  0.1251 -0.2127  0.0191
21078W        W37552  15.725   4.070   0.898 -0.0474  0.2968  0.1931
21079W        W37553   1.352  17.198  14.336  0.0456  0.0345  0.1268
21080W        W37554  17.281   1.304   2.800 -0.0878  0.1342  0.0800
21081W        W37555   1.232  16.178   4.631  0.1082 -0.1420  0.1089
21082W        W37556  12.315   7.418   0.705  0.1214  0.3380 -0.0452
21083W        W37557   3.578  14.427   6.253 -0.1212 -0.0901 -0.3079
21084W        W37558  18.685  17.815   5.654 -0.0678  0.1682  0.2521
21085W        W37559   8.322   8.765   3.460  0.2459  0.3161 -0.3652
21086W        W37560   8.539  15.108   1.221 -0.0858 -0.1797  0.1499
21087W        W37561   0.740  18.053  12.608  0.0255 -0.1105  0.2141
21088W        W37562  16.564   2.570   4.222  0.0692  0.4036  0.0313
21089W        W37563  10.625   0.100  12.420  0.1864 -0.3035 -0.0345
21090W        W37564  14.872  14.807  11.056  0.3559 -0.0409 -0.0090
21091W        W37565  13.718   0.158   1.792  0.1321  0.0160 -0.3097
21092W        W37566  10.940  16.880  15.005  0.0316  0.0702  0.4002
21093W        W37567  10.619   1.115   4.592  0.2249 -0.1104  0.0744
21094W        W37568  18.266  10.254  13.745 -0.1733 -0.1753  0.1142
21095W        W37569  18.010  15.836  13.363  0.1281  0.1897 -0.1828
21096W        W37570   2.586   8.262  11.816 -0.0139 -0.1501 -0.1079
21097W        W37571  10.440  14.029   3.168 -0.0345 -0.4247 -0.3309
21098W        W37572  16.010  17.276   4.510 -0.0235 -0.1069 -0.1017
21099W        W37573  17.467   5.799   2.841 -0.0320 -0.2675 -0.1285
21100W        W37574   5.553  15.099   0.921 -0.0128  0.0518 -0.0101
21101W        W37575  10.392   5.189   3.515  0.0187 -0.0817  0.1077
21102W        W37576   5.481  12.042   0.597 -0.0026  0.0935  0.0148
21103W        W37577   7.079  12.480  13.048 -0.2196  0.1938  0.1018
21104W        W37578  10.460   6.259   0.321 -0.1069 -0.3341 -0.0285
21105W        W37579   5.149  16.473  14.078 -0.2214  0.1384 -0.0344
21106W        W37580  10.759   1.140  15.596 -0.0574 -0.2562  0.0684
21107W        W37581   3.494  10.980  15.086 -0.0523 -0.0904 -0.2713
21108W        W37582  12.301  16.020  12.002  0.0542 -0.0238 -0.0369
21109W        W37583   3.197   0.568  12.916 -0.0002 -0.0574 -0.0632
21110W        W37584   8.910   8.037  10.600  0.1500  0.4508 -0.0009
21111W        W37585  10.550   7.679  11.389 -0.1814 -0.0499 -0.1157
21112W        W37586   0.792   2.212   2.366 -0.1920 -0.1463 -0.2507
21113W        W37587  10.060  17.555   4.304  0.4464 -0.2388  0.1009
21114W        W37588  16.869  11.260  13.781  0.1627  0.3181  0.0699
21115W        W37589  10.698  15.808  14.634 -0.1058  0.1299  0.2861
21116W        W37590  16.667   1.968  14.080  0.0699 -0.2061  0.1807
21117W        W37591   6.760   0.533  11.933  0.0999 -0.0528  0.2620
21118W        W37592   0.295  17.298   0.601  0.1379 -0.0440  0.1898
21119W        W37593  16.230   8.861  12.019  0.4833 -0.1002 -0.0406
21120W        W37594   5.258   0.318   0.272  0.3032  0.0283  0.0361
21121W        W37595   4.573   1.377   6.052 -0.2683 -0.2007  0.2098
21122W        W37596   0.972  16.263  14.442 -0.0549  0.0372  0.1288
21123W        W37597   1.044   7.838  13.536 -0.2759 -0.0072  0.0678
21124W        W37598  11.413   2.673   3.020  0.1270  0.0624 -0.0415
21125W        W37599  11.641   3.922   1.958  0.0256  0.0566  0.1429
21126W        W37600   1.253  15.510   1.398  0.1780 -0.0385  0.3146
21127W        W37601   6.941   7.735  12.799 -0.1297  0.0261  0.1775
21128W        W37602  17.158   1.400   2.318  0.2504 -0.0785  0.4002
21129W        W37603   4.588  13.066   2.400 -0.0045 -0.0027  0.0952
21130W        W37604  18.182   9.567  14.477 -0.0321 -0.2516 -0.3980
21131W        W37605  16.362  12.621   0.913  0.0178  0.1506  0.2596
21132W        W37606  17.541  17.693  11.277  0.0200  0.1067  0.0014
21133W        W37607   3.462   5.892   5.536  0.1281 -0.2353 -0.0567
21134W        W37608   8.829   5.553  12.880  0.3583 -0.0506 -0.0217
21135W        W37609  10.193   2.665  14.712 -0.0113  0.0205 -0.0062
21136W        W37610   6.303   2.823  12.108  0.2556 -0.0319 -0.0710
21137W        W37611  13.431  14.045  15.341  0.5739 -0.1257 -0.1816
21138W        W37612   7.112   5.207   4.661 -0.0161 -0.0479 -0.3839
21139W        W37613   4.671   4.615   3.830 -0.0505  0.3180 -0.0802
21140W        W37614   3.118  17.018   4.102 -0.2414  0.1578 -0.0643
21141W        W37615   8.648   7.405   4.465 -0.1170 -0.5484  0.4338
21142W        W37616   6.751  10.002   2.063  0.1617  0.2183 -0.1637
21143W        W37617   5.152   6.183  13.976 -0.2598  0.2223 -0.0219
21144W        W37618   2.196  17.446  13.955  0.1483  0.1799  0.3520
21145W        W37619   7.640   5.931   1.764 -0.4616  0.0509 -0.5055
21146W        W37620   7.798   5.409   3.207  0.1113 -0.0869 -0.2163
21147W        W37621  15.630   5.042  14.740  0.0987 -0.2147  0.0593
21148W        W37622  14.561  11.538   5.155 -0.0467 -0.4875  0.0630
21149W        W37623  12.330  12.420   1.130 -0.0271 -0.0561  0.1365
21150W        W37624   4.794   2.892  13.164 -0.2432  0.2501  0.4436
21151W        W37625   9.535  17.871   1.069  0.1926  0.1254  0.0343
21152W        W37626  15.794  13.828   3.834  0.0478 -0.2502 -0.1675
21153W        W37627   5.926   6.753   3.128 -0.0595 -0.0927  0.2179
21154W        W37628   2.019   9.629   1.242  0.1485  0.3659  0.4488
21155W        W37629  17.236  18.119  14.327  0.3723  0.0906 -0.2811
21156W        W37630  15.031  18.823  14.976  0.0518  0.1426 -0.0032
21157W        W37631   8.050  10.322   2.167  0.2066  0.1959 -0.1633
21158W        W37632   7.989   1.889   3.455  0.2008  0.3308  0.0057
21159W        W37633   1.295  16.707   4.654 -0.0748 -0.3447 -0.0313
21160W        W37634   6.602   0.684  12.911 -0.1410 -0.0895 -0.0733
21161W        W37635   9.537  14.509   0.374  0.0661  0.1767  0.1141
21162W        W37636   3.957  16.709  13.736  0.2760 -0.0506 -0.0230
21163W        W37637   0.696   6.865   1.896  0.0690  0.0556  0.0156
21164W        W37638   0.234  15.408   9.959  0.3741  0.1557  0.0270
21165W        W37639   4.840  14.508  15.424 -0.0255  0.2735 -0.0261
21166W        W37640  13.426   2.144  11.191 -0.0520 -0.2469  0.4471
21167W        W37641  11.151   2.344  12.710  0.2076  0.0649 -0.4606
21168W        W37642   7.622   5.995   4.211 -0.0489 -0.0670  0.3341
21169W        W37643  16.784   4.719   3.475 -0.3861  0.0869  0.0064
21170W        W37644   1.851   4.206  11.818  0.0722  0.1408  0.1887
21171W        W37645   1.580   1.128  13.836 -0.3039  0.0490  0.1054
21172W        W37646  13.463  18.448   0.949 -0.0705  0.2634  0.2814
21173W        W37647  12.402  10.936   5.110  0.1293  0.0637 -0.0825
21174W        W37648  12.467  18.843   1.345  0.2389  0.0368  0.2436
21175W        W37649   4.391  13.093   0.789 -0.1232  0.1017 -0.1226
21176W        W37650  14.713   4.574   3.011 -0.0928  0.4052 -0.1523
21177W        W37651   3.202  16.170   1.739 -0.0263 -0.1972  0.2934
21178W        W37652   8.038   2.440  11.982  0.1260 -0.1275 -0.0323
21179W        W37653  12.577  12.526  15.019 -0.1702  0.3527 -0.0847
21180W        W37654   7.741   7.850   0.178 -0.1028 -0.1829  0.0956
21181W        W37655  16.529   9.062  11.619 -0.2454  0.2149  0.0026
21182W        W37656  14.342   5.616  13.801  0.1736 -0.0628  0.1754
21183W        W37657  11.048   8.051   1.059  0.1962  0.0912  0.0373
21184W        W37658  14.495  10.370  14.939 -0.0182 -0.1253  0.2598
21185W        W37659   8.865  16.402  15.428  0.1322  0.4682  0.0231
21186W        W37660  18.319  15.950   1.535  0.0132 -0.0893 -0.0174
21187W        W37661   9.021   6.456  15.356 -0.1458  0.4590  0.0235
21188W        W37662  18.080  15.006   2.054 -0.1620  0.1878  0.0886
21189W        W37663   3.336   1.395   5.309 -0.2269 -0.2688 -0.2574
21190W        W37664   8.231  14.356   1.156  0.1101  0.0076  0.0715
21191W        W37665  12.077   2.014  11.228 -0.2363 -0.1460 -0.2951
21192W        W37666  12.112  15.952   0.916  0.0462 -0.0120  0.0638
21193W        W37667   6.636   7.536  11.280  0.2049  0.3982  0.0955
21194W        W37668   1.054   9.476   1.734  0.2968 -0.2762  0.1687
21195W        W37669   0.541  15.932  12.597  0.2001  0.2689 -0.1756
21196W        W37670   5.799  13.552   3.469 -0.2341 -0.0530 -0.2517
21197W        W37671  16.829   3.585   4.607 -0.0009  0.1239  0.1004
21198W        W37672   8.740  18.466   5.512  0.0662  0.3587  0.0386
21199W        W37673   8.861  11.137  12.384  0.2302 -0.0221 -0.1167
21200W        W37674   4.467   3.155   5.928  0.1349 -0.3845  0.0067
21201W        W37675  17.732   4.761  12.417  0.3217  0.1565 -0.1515
21202W        W37676   8.130   0.557  15.593  0.3453 -0.0392 -0.3244
21203W        W37677   9.896   8.559  12.629 -0.3356 -0.3059 -0.0699
21204W        W37678   7.421   8.610  13.513  0.0246 -0.0858  0.2749
21205W        W37679  15.988   0.794   2.336 -0.0315 -0.1003  0.0982
21206W        W37680   0.977   4.018   4.641 -0.0432  0.0317  0.1699
21207W        W37681   1.627  15.845   3.315  0.3011 -0.1025  0.0119
21208W        W37682   1.604  14.439   4.105 -0.3980 -0.2808 -0.1196
21209W        W37683  10.151  17.714  14.563 -0.0766 -0.1443 -0.2278
21210W        W37684  11.533   4.340   3.332  0.4919  0.1934 -0.0753
21211W        W37685   3.514  16.326  13.797  0.1762  0.0587  0.0629
21212W        W37686  12.706  10.472  15.222  0.2401  0.0174 -0.0906
21213W        W37687   7.335  14.291   3.516  0.3724 -0.1868 -0.0409
21214W        W37688  17.944   0.872   2.525 -0.0045  0.0107 -0.0624
21215W        W37689  11.110   6.421  11.385 -0.0628  0.3367 -0.0312
21216W        W37690  14.713   1.306  11.297  0.0621  0.3366 -0.1451
21217W        W37691   3.336   0.816   3.428 -0.1253 -0.2519 -0.0737
21218W        W37692   5.502  18.745   2.991  0.1307  0.2545  0.3447
21219W        W37693  18.637   6.580  10.707  0.1150  0.0308  0.0433
21220W        W37694   7.736  14.229  11.550  0.0960 -0.1859  0.2606
21221W        W37695   1.877  17.809  13.153 -0.1324  0.0273 -0.0083
21222W        W37696  16.010   1.996   0.190 -0.3312  0.0374 -0.0866
21223W        W37697  17.720   4.747   1.465 -0.4116 -0.1443  0.0861
21224W        W37698   0.914  17.453  15.590 -0.0865  0.0557 -0.0100
21225W        W37699  18.427  17.582   1.143 -0.1228 -0.1323 -0.1747
21226W        W37700  12.733   4.290  14.239  0.0639  0.1089  0.1801
21227W        W37701   6.488  13.704   5.045 -0.0524  0.0387  0.2216
21228W        W37702   8.111  12.078   2.434 -0.3223 -0.0983 -0.3895
21229W        W37703  17.367   3.487  13.166  0.2252  0.1152  0.0229
21230W        W37704  11.610  18.569  15.141 -0.0693 -0.2659 -0.0124
21231W        W37705  10.920  13.237   4.494 -0.2983  0.1171 -0.2082
21232W        W37706  18.490  12.463   0.612  0.1544  0.3742 -0.0071
21233W        W37707  15.297  17.890  12.096 -0.1742  0.2971 -0.0750
21234W        W37708  12.838   8.905  13.693 -0.1186  0.0361  0.1083
21235W        W37709  11.545   3.173  14.373 -0.0704  0.0301  0.3990
21236W        W37710  12.515   5.818   3.639 -0.1928 -0.0206  0.1395
21237W        W37711  16.019  10.665   9.061 -0.2011  0.1571  0.1346
21238W        W37712  14.638   6.711   2.662 -0.3755  0.2383  0.3253
21239W        W37713  17.219   6.581  12.645  0.0585 -0.3236 -0.3189
21240W        W37714  12.383   8.256   0.706 -0.0736 -0.2252  0.0404
21241W        W37715  14.161  16.145   1.925  0.0351  0.0024  0.0205
21242W        W37716  14.094   4.039  14.994  0.3597  0.0529 -0.3383
21243W        W37717  14.089   9.811   2.443 -0.0995  0.0524  0.1977
21244W        W37718  13.314   7.789   4.035  0.3404 -0.0697 -0.1000
21245W        W37719  17.140  11.182   1.185 -0.0911  0.3807  0.1351
21246W        W37720  18.264  11.889   1.030 -0.0018 -0.2266  0.0108
21247W        W37721   9.800  10.356  10.852 -0.0664  0.0100 -0.0664
21248W        W37722   1.180  13.270   3.161  0.0541  0.0495  0.0423
21249W        W37723   3.512   8.757  14.005 -0.0144 -0.1539  0.0210
21250W        W37724  17.601   7.911   1.190 -0.2515 -0.0315 -0.4628
21251W        W37725   2.194  14.302  14.908  0.3143  0.1833 -0.0865
21252W        W37726   2.900  10.825   3.685  0.2289 -0.1631  0.3000
21253W        W37727   3.941  15.516   1.671 -0.1277  0.0038  0.1035
21254W        W37728  11.701  13.753   1.020  0.0161 -0.1071  0.2445
21255W        W37729  10.897   7.937  14.507 -0.0833  0.1004  0.0833
21256W        W37730   3.082  11.762  11.505  0.4122  0.3809 -0.0100
21257W        W37731  15.884  18.695   0.368 -0.1674  0.0595 -0.1515
21258W        W37732  14.608   5.766   4.437  0.1377 -0.3168  0.2883
21259W        W37733  14.124  16.465   0.742  0.2463  0.0178  0.2936
21260W        W37734   6.160   2.378   0.319 -0.1844 -0.0610  0.1035
21261W        W37735   2.800   6.152  14.355  0.1145 -0.1339 -0.0541
21262W        W37736  17.794   8.942   1.948 -0.3486 -0.0462  0.3704
21263W        W37737  13.286   8.263   1.890  0.4108  0.2458  0.3346
21264W        W37738   3.178   2.788   2.330  0.5101  0.1645 -0.1316
21265W        W37739   4.920   6.281  13.051  0.2470 -0.0877  0.0326
21266W        W37740   3.907   2.115  15.563  0.1157  0.1058  0.0936
21267W        W37741  13.119   2.667   3.078  0.0038 -0.4849  0.1548
21268W        W37742   9.509  18.652   2.999 -0.0585  0.1664  0.0024
21269W        W37743  17.964  16.077   9.767  0.0674  0.2134 -0.0888
21270W        W37744  15.416  10.677   3.319 -0.0042  0.0888  0.1006
21271W        W37745  14.874  13.874   2.658  0.1625 -0.3069  0.0922
21272W        W37746   2.759  16.270   2.515 -0.2510 -0.0195  0.2671
21273W        W37747   1.999  13.014   1.455 -0.4646 -0.0775  0.0147
21274W        W37748  17.226   5.927  13.315  0.1139  0.3446  0.2123
21275W        W37749   2.029   1.218  14.026  0.1750 -0.1968  0.0060
21276W        W37750  18.795  10.021   3.701 -0.0022 -0.1179  0.0404
21277W        W37751  17.110   8.533  12.277  0.2025  0.3186 -0.2975
21278W        W37752  16.597   1.862  11.061  0.2323 -0.4150  0.0629
21279W        W37753  16.749   0.786  14.848 -0.1137 -0.3518 -0.3541
21280W        W37754   4.932   2.237  11.611  0.0287  0.0313 -0.1872
21281W        W37755   5.465   3.811   4.563 -0.2283  0.2912  0.2148
21282W        W37756  13.755   1.189   0.981 -0.1854 -0.1336 -0.0781
21283W        W37757  17.608   4.643   3.060 -0.1082  0.3826  0.2390
21284W        W37758   1.299   2.402  13.127  0.3620 -0.0682 -0.2820
21285W        W37759  13.357   4.058   4.078  0.0686  0.0824 -0.1892
21286W        W37760   4.969   7.687  13.011 -0.4117 -0.0155  0.0258
21287W        W37761  11.616  17.429  14.818 -0.0490  0.3231 -0.2856
21288W        W37762  13.484  17.584   4.367 -0.1548 -0.0649  0.1279
21289W        W37763  13.960  16.996   1.018  0.0437  0.2044  0.1373
21290W        W37764   5.379   9.758  13.222 -0.0929  0.4119 -0.0094
21291W        W37765   3.032  15.029  11.199 -0.3414 -0.1297  0.3809
21292W        W37766  15.541   9.761   4.027 -0.3936  0.3233 -0.1742
21293W        W37767   6.205   7.467   3.595  0.3469 -0.3490 -0.2827
21294W        W37768  12.491  18.411   3.743  0.1191  0.1719  0.0919
21295W        W37769   0.356   1.888  13.786  0.0772  0.2324  0.0657
21296W        W37770  15.773  14.413   3.652  0.3089  0.1364  0.3347
21297W        W37771  17.365  11.707  10.574 -0.1182 -0.2771 -0.2211
21298W        W37772   2.507   0.466  13.676  0.0307  0.2304 -0.1890
21299W        W37773   4.310  15.293  13.285  0.0725  0.1548 -0.0792
21300W        W37774  10.564   6.575   4.019 -0.0954  0.0704 -0.3218
21301W        W37775   9.233   5.667   3.438  0.0419 -0.1172 -0.1316
21302W        W37776  18.810  15.884   4.533 -0.0702  0.2032  0.1328
21303W        W37777   8.665   7.416   1.763  0.2130  0.0956 -0.0933
21304W        W37778  11.748  11.579  13.420 -0.2685 -0.0866 -0.1814
21305W        W37779  16.588   2.138   1.100  0.0547  0.0040  0.1200
21306W        W37780   2.570   9.647  14.284 -0.0631 -0.0635 -0.0933
21307W        W37781   7.491  16.186   4.974 -0.1447 -0.0941  0.0245
21308W        W37782   8.468   1.857  15.283  0.1726 -0.1149  0.0664
21309W        W37783  17.474   0.913   0.362 -0.1349 -0.2180  0.0479
21310W        W37784   4.008  10.454  13.542  0.2111 -0.2068  0.4302
21311W        W37785   7.439   1.743  14.983  0.1381 -0.1090  0.0424
21312W        W37786  10.433   2.241   1.181  0.1002 -0.0379  0.2483
21313W        W37787  17.730  11.587   3.883  0.0578 -0.1063 -0.0243
21314W        W37788  13.891  18.298  13.256 -0.1034  0.2241 -0.1671
21315W        W37789  12.107  13.822   5.187  0.0725 -0.3202 -0.1207
21316W        W37790  10.486  15.304  14.297 -0.1363  0.3296 -0.1004
21317W        W37791   2.995  13.653  15.013 -0.1238 -0.2420 -0.0654
21318W        W37792  10.502  10.129   4.642  0.0413 -0.0532  0.0273
21319W        W37793   6.239   9.885   4.658  0.2176  0.2703  0.3039
21320W        W37794   5.459  16.534  13.048  0.0306  0.5527 -0.0891
21321W        W37795   4.952   4.415   3.206  0.1119 -0.0843  0.1173
21322W        W37796  10.661  15.417   2.178 -0.2810  0.0344 -0.0962
21323W        W37797  15.735   4.258   3.484 -0.2833  0.0597  0.3922
21324W        W37798  10.413  14.372   5.788  0.1812 -0.1098 -0.0213
21325W        W37799   5.744   0.667   1.501 -0.2043 -0.1523  0.0589
21326W        W37800   0.690   8.090   1.950  0.1449 -0.0633 -0.0737
21327W        W37801  17.168   6.803   4.964  0.0352 -0.0622 -0.0350
21328W        W37802   3.146   3.842   4.753  0.1050  0.2914  0.0646
21329W        W37803   2.734  13.995   3.936  0.2567 -0.1791 -0.0495
21330W        W37804   8.148   1.886  12.280 -0.3488 -0.3180 -0.1382
21331W        W37805   7.999   4.700   5.575 -0.4418 -0.1040 -0.0684
21332W        W37806   0.869   4.780  14.935  0.1447 -0.2180  0.1661
21333W        W37807   5.593  10.795   4.889 -0.0155 -0.3002 -0.2439
21334W        W37808   4.302   2.149   2.416 -0.0432  0.1370 -0.1332
21335W        W37809  15.538  11.450  11.734 -0.2581  0.1132 -0.0750
21336W        W37810  17.748   4.962   4.771  0.2455 -0.1085 -0.2487
21337W        W37811  17.237   9.520   1.401  0.2285  0.0739  0.1883
21338W        W37812  11.785   5.108  11.275 -0.3170 -0.1189 -0.2782
21339W        W37813  13.380  11.324   4.134  0.0588 -0.0748  0.1395
21340W        W37814   2.260   9.271  14.111 -0.3510 -0.0267 -0.0326
21341W        W37815  16.968  11.639  11.539 -0.0059  0.1752  0.2677
21342W        W37816   0.118  17.019   2.201 -0.0427  0.2993 -0.2672
21343W        W37817   6.060  10.713   1.636 -0.1190  0.6513 -0.0471
21344W        W37818  15.026   3.430  13.757 -0.1260  0.1347  0.4113
21345W        W37819   9.339  12.898  12.508 -0.3964 -0.3332  0.0161
21346W        W37820   3.679  11.980   0.566  0.1514 -0.0692  0.2127
21347W        W37821   1.159   4.501  15.527  0.2854 -0.0878 -0.1182
21348W        W37822   9.764   6.713   2.295  0.1255  0.0131  0.2061
21349W        W37823  12.658  10.344   0.046 -0.0961 -0.0578  0.0996
21350W        W37824  13.830   7.762  10.661  0.1537  0.1813  0.1215
21351W        W37825  12.766   9.470   2.630 -0.1228  0.4279  0.0646
21352W        W37826  17.185  18.018  14.899 -0.0520  0.0101 -0.0099
21353W        W37827   7.289  18.773   3.151 -0.0732 -0.1487  0.3601
21354W        W37828   7.638  11.465   5.082 -0.3275  0.2242  0.0578
21355W        W37829   2.333  13.094  14.118 -0.0608 -0.1075  0.1644
21356W        W37830  15.445   7.462   3.297  0.1042 -0.0471 -0.0061
21357W        W37831   6.231  13.177   3.353  0.2359 -0.1794 -0.0083
21358W        W37832   8.190  16.227  15.510 -0.1554 -0.3012 -0.1278
21359W        W37833   6.926  14.146  12.318  0.1190  0.0146 -0.2016
21360W        W37834   0.819  15.248  13.535  0.0888  0.1173  0.1916
21361W        W37835   8.819  17.920  11.193 -0.0021  0.1119  0.2159
21362W        W37836  16.298   0.371   1.450 -0.1369  0.1524  0.3383
21363W        W37837  11.993  16.939   4.964 -0.1598 -0.1165 -0.1495
21364W        W37838   1.541  11.255   0.070  0.4083 -0.0990  0.0417
21365W        W37839   6.988  14.168   0.160  0.1406 -0.2598  0.0048
21366W        W37840   1.294   6.900   3.083 -0.1159 -0.1730  0.1924
21367W        W37841   0.628  10.725   3.573 -0.2307  0.1728 -0.3150
21368W        W37842   1.962  13.818  11.206 -0.0652  0.0130  0.3739
21369W        W37843   0.251  17.353  10.734  0.0366  0.1885 -0.0759
21370W        W37844  15.869   5.760   1.308  0.0358 -0.0926  0.0573
21371W        W37845  12.988   5.065   1.463 -0.1293 -0.1219  0.0890
21372W        W37846  11.186   2.521  14.045  0.0653  0.1820 -0.3779
21373W        W37847   4.459   3.860   2.340  0.2503  0.1984  0.1856
21374W        W37848  14.475   1.165  14.457  0.1335  0.2286 -0.0188
21375W        W37849  15.945   4.117   1.830  0.2277  0.0792 -0.1972
21376W        W37850   0.757   1.734   2.384 -0.0445  0.0309 -0.0506
21377W        W37851  13.959  14.950   1.880  0.0952 -0.3411  0.1712
21378W        W37852   4.365  18.171   4.288 -0.0411 -0.4141 -0.0069
21379W        W37853   3.885   7.961   3.955  0.2576 -0.2822 -0.1387
21380W        W37854   8.795   2.635   0.295  0.0734 -0.3720  0.3293
21381W        W37855   4.470   1.254  14.415  0.1856  0.2356  0.1079
21382W        W37856  16.997  14.467   2.851  0.0561 -0.1389 -0.3451
21383W        W37857  16.141  11.349   1.314  0.2441  0.0904  0.0574
21384W        W37858   0.284  16.358   0.137  0.1503 -0.1521  0.3497
21385W        W37859  18.332   1.013   0.715  0.0468 -0.0276 -0.0206
21386W        W37860   7.926  18.608   1.532 -0.0635  0.1560  0.1593
21387W        W37861   5.171   2.695  11.771  0.0748 -0.1003 -0.3627
21388W        W37862   1.749  12.764   0.212  0.0318  0.1402 -0.0570
21389W        W37863   5.294   8.729  11.067  0.1050  0.0396  0.0185
21390W        W37864  13.411  10.985  11.276 -0.1869  0.0984 -0.0818
21391W        W37865   7.337  11.597   2.153 -0.0019 -0.1442  0.4579
21392W        W37866   7.556   8.832  15.426  0.2105 -0.0533 -0.0054
21393W        W37867   2.118   4.966  14.910 -0.1342 -0.0886 -0.1987
21394W        W37868   3.011   7.451  12.175 -0.2859  0.3078 -0.0189
21395W        W37869   2.396   1.751  13.428  0.2782 -0.0166 -0.1540
21396W        W37870   9.432  18.092  10.738 -0.2594 -0.0739 -0.0335
21397W        W37871  13.057   4.104   2.896  0.1491 -0.1345 -0.0615
21398W        W37872   3.973   0.943   5.820 -0.0475 -0.0557 -0.0184
21399W        W37873   3.865  17.610  13.116  0.1620  0.2183 -0.2237
21400W        W37874   5.027  14.400   4.963  0.0900  0.4083 -0.1316
21401W        W37875   0.555  10.907  13.234 -0.1165 -0.1367  0.0486
21402W        W37876  14.202   7.954   3.258 -0.0564 -0.1435 -0.0816
21403W        W37877  16.697   7.912  15.190  0.0948 -0.2546 -0.3680
21404W        W37878  15.057   8.029   3.108 -0.0246 -0.2164 -0.0634
21405W        W37879  14.607  12.470   0.300  0.0290  0.1670  0.1060
21406W        W37880   5.910   8.061  13.605  0.0941 -0.1623 -0.0628
21407W        W37881  15.471   5.262   0.843  0.0888 -0.1170  0.5380
21408W        W37882  11.634   6.345   2.536  0.0055  0.0613  0.1900
21409W        W37883  17.181   7.368   2.874  0.1404 -0.3438  0.1270
21410W        W37884  16.146   0.026  11.927  0.1291 -0.4437  0.0422
21411W        W37885   7.499   6.031   0.868  0.2707  0.0327 -0.1236
21412W        W37886   8.886   5.836   4.669  0.2853 -0.2582  0.4339
21413W        W37887  14.760   8.030  15.541  0.1234  0.0042  0.1153
21414W        W37888  14.003   1.966  12.832 -0.0307 -0.2029 -0.0853
21415W        W37889  10.434   3.400   0.517  0.2782 -0.1647 -0.0160
21416W        W37890  15.076  12.628   3.166 -0.0544  0.0798  0.1031
21417W        W37891  15.536   5.432  10.209 -0.2240 -0.0027 -0.1005
21418W        W37892   2.396  17.379   0.042 -0.1738  0.0509 -0.0683
21419W        W37893  12.609   8.807  11.261  0.3203  0.1587 -0.1709
21420W        W37894  14.563  13.156  10.714 -0.1317  0.2813  0.0704
21421W        W37895  18.157  12.950  13.294  0.3083  0.2369  0.1848
21422W        W37896  18.458   6.093   5.111  0.0553 -0.0558  0.1367
21423W        W37897   6.196  16.403   1.628  0.0287 -0.1152 -0.2527
21424W        W37898  17.129  13.948  13.779  0.2318 -0.2879  0.0099
21425W        W37899   8.589  14.010  10.390 -0.1291  0.0374  0.2422
21426W        W37900   6.655   6.315  14.520 -0.0158  0.0224 -0.2396
21427W        W37901  15.055  16.864  13.406 -0.3130 -0.1218  0.1845
21428W        W37902   4.939   0.722   0.186  0.2431 -0.0179 -0.2825
21429W        W37903   6.071   9.973  14.520 -0.0241 -0.0619 -0.0576
21430W        W37904   8.889   6.538  14.890  0.1027 -0.3110 -0.0854
21431W        W37905   7.063  10.042  11.093 -0.2120  0.1034 -0.2324
21432W        W37906  16.730   4.194  14.659  0.1076  0.3325  0.2878
21433W        W37907   6.619  12.294   2.496  0.1003 -0.0020 -0.1375
21434W        W37908   5.072   8.790   5.013 -0.0100 -0.1729  0.1942
21435W        W37909   9.109  17.137   5.366  0.1792 -0.1021  0.0423
21436W        W37910   5.376   7.385   3.205  0.0476 -0.0695  0.1332
21437W        W37911  17.722  17.464  12.210  0.2828  0.0480 -0.0148
21438W        W37912   6.816  15.188   1.791  0.2169 -0.0090 -0.0561
21439W        W37913   0.036  13.468   3.580  0.2570 -0.0493  0.0525
21440W        W37914   1.526   3.256   0.182 -0.0369 -0.3409 -0.4150
21441W        W37915  15.290   6.865  13.274 -0.2403 -0.0019  0.0341
21442W        W37916   9.684  10.123   0.601 -0.6063 -0.2951 -0.2084
21443W        W37917  15.642  18.666  14.752  0.2249  0.3190 -0.2037
21444W        W37918   4.992  14.619  11.524 -0.2907  0.0437  0.1367
21445W        W37919   7.314  12.622  11.702  0.2944 -0.0831  0.1867
21446W        W37920   5.773   8.542  11.957 -0.1745 -0.0685  0.0526
21447W        W37921  13.872  12.291   3.443 -0.0779  0.3039 -0.0958
21448W        W37922   4.680  11.104   4.620 -0.4623  0.0667  0.2131
21449W        W37923   8.859   1.614  13.621  0.1936  0.1511 -0.0333
21450W        W37924  15.575  16.697  11.493  0.0234  0.0479 -0.1141
21451W        W37925  18.335   9.177   3.672  0.1850  0.0373 -0.1659
21452W        W37926  15.508   9.651   5.371  0.0042 -0.2010 -0.0667
21453W        W37927  11.341   9.322   1.808 -0.0194 -0.2289 -0.0566
21454W        W37928  13.729  15.998   3.138  0.0225  0.3863 -0.0404
21455W        W37929   1.992   3.706  11.752  0.1100  0.0898 -0.0970
21456W        W37930  14.412   9.698   4.871  0.1119 -0.0810  0.1693
21457W        W37931   7.562  12.549   0.510  0.0690  0.1945 -0.1633
21458W        W37932  15.514   5.422   4.208  0.0813 -0.1020  0.5138
21459W        W37933   1.269   7.144   5.286 -0.3082  0.0090 -0.1176
21460W        W37934  18.051  18.096   3.190  0.2316 -0.0558 -0.1531
21461W        W37935   7.089   3.406  12.926 -0.0028 -0.0980 -0.2557
21462W        W37936  13.534   8.666   2.146  0.3015  0.1167 -0.3769
21463W        W37937   5.054   7.008   4.030 -0.0584  0.2902  0.0676
21464W        W37938  16.509   9.875   5.112 -0.2071  0.1889  0.2573
21465W        W37939   4.712   2.160   1.509 -0.2237 -0.0811 -0.1370
21466W        W37940  17.290  10.341   2.628  0.0116 -0.2323  0.0325
21467W        W37941   9.865   9.671  11.841 -0.5008  0.0357 -0.1529
21468W        W37942  17.144  11.022   3.565 -0.1620 -0.1359  0.0481
21469W        W37943   4.261   3.402   5.456  0.2446 -0.1089 -0.0883
21470W        W37944   8.372   0.296   3.724 -0.1127  0.1110 -0.0236
21471W        W37945  18.710   0.332   9.684 -0.1409  0.1472  0.2479
21472W        W37946  11.506   5.813  11.784  0.0836 -0.0734 -0.3105
21473W        W37947   1.059  12.972   1.825 -0.0102  0.2720 -0.2013
21474W        W37948   8.130  15.680   1.898 -0.0191  0.1741 -0.1262
21475W        W37949  10.656   4.208   0.713 -0.1391  0.0881 -0.1220
21476W        W37950  13.538   7.334  14.090  0.2656  0.0892 -0.0667
21477W        W37951   9.885  12.484   1.124  0.0057 -0.1324 -0.0894
21478W        W37952  15.194   6.764  12.763 -0.0065 -0.0168 -0.3133
21479W        W37953   9.767   0.105  12.944  0.0822  0.1330  0.1237
21480W        W37954  10.229   3.840   2.558 -0.0579 -0.2207 -0.1248
21481W        W37955   4.190   5.126  15.244  0.0606 -0.0583  0.0101
21482W        W37956  11.371  12.055   4.193 -0.0315 -0.2559 -0.0385
21483W        W37957   0.954   2.291   1.733  0.1256 -0.2079  0.1291
21484W        W37958   1.598  12.685   3.987  0.1317  0.1038 -0.2259
21485W        W37959  11.693  17.295  15.568 -0.0762  0.1242  0.0222
21486W        W37960  15.328   7.911   4.282 -0.2959 -0.0851 -0.1997
21487W        W37961  16.010   1.201  11.336  0.1053 -0.2382 -0.0744
21488W        W37962   7.230  17.939  15.290  0.5389  0.1245  0.4604
21489W        W37963   2.091  12.855   4.447 -0.1515 -0.0132  0.1035
21490W        W37964   0.530   8.630   4.388  0.3548  0.0723  0.1952
21491W        W37965  16.652  11.853   0.340  0.1164  0.2539  0.0014
21492W        W37966  11.687  13.860   2.857  0.2559 -0.1705  0.0538
21493W        W37967   7.509   5.116   2.139  0.2270 -0.0349 -0.0769
21494W        W37968  11.408  17.556  12.002  0.0849  0.4010 -0.2748
21495W        W37969  15.733  11.101   3.668  0.0572 -0.1919  0.1981
21496W        W37970  14.736   0.265   3.020  0.0243  0.0591  0.0447
21497W        W37971  14.621  13.719  10.740 -0.0692  0.1789 -0.1650
21498W        W37972  17.926   7.308  12.269 -0.0498 -0.1996 -0.1068
21499W        W37973   3.242  15.759   2.198 -0.0304 -0.1609 -0.3500
21500W        W37974  16.082  18.489  12.285  0.0994  0.1608  0.0871
21501W        W37975  10.190  11.367   3.103  0.1313  0.1482  0.1965
21502W        W37976   3.131   3.467  15.197 -0.1203 -0.1207  0.3010
21503W        W37977   3.209   3.457   4.239  0.3514 -0.2013  0.0974
21504W        W37978   3.419  17.926   4.343 -0.0277  0.1706 -0.0332
21505W        W37979  11.968   7.099   0.839  0.1768 -0.0776 -0.1481
21506W        W37980   7.483   0.042   2.136  0.2227  0.1675  0.2970
21507W        W37981   3.076   4.989  14.534  0.4227  0.1207 -0.2873
21508W        W37982   9.262  17.363  13.264  0.1474  0.1235  0.1145
21509W        W37983   2.327   0.132   0.530 -0.1182  0.1704  0.0523
21510W        W37984   1.401  18.851  12.189  0.3723 -0.0363 -0.1503
21511W        W37985  11.079   7.675   5.972  0.1962 -0.2538  0.2728
21512W        W37986   5.620  11.393   3.478 -0.1520 -0.0420 -0.2091
21513W        W37987   1.453   3.384   3.309  0.0269 -0.0261 -0.0304
21514W        W37988   3.351   5.091  13.117  0.1574  0.0909  0.0893
21515W        W37989   3.485   0.914  12.760 -0.1823  0.1169 -0.0632
21516W        W37990   8.459   2.557   3.397 -0.0430  0.2210  0.3214
21517W        W37991   2.142   4.712  13.131  0.1975 -0.0985 -0.1122
21518W        W37992   5.584   6.358  14.295  0.0334 -0.0242  0.1376
21519W        W37993   9.654  10.627  11.956  0.0535  0.3870  0.0055
21520W        W37994   5.850  16.369  13.576  0.2242 -0.1169 -0.2053
21521W        W37995   6.551   1.330   2.978 -0.1986 -0.2090  0.3026
21522W        W37996   0.536  16.177  14.629 -0.2813 -0.4431 -0.0681
21523W        W37997  15.674  10.813   4.067 -0.0734  0.2828  0.2469
21524W        W37998  15.625  15.793   9.533 -0.0017  0.0094  0.0963
21525W        W37999   6.832   0.655   3.296 -0.1307 -0.2471 -0.2212
21526W        W38000  12.857  16.014   4.635 -0.1156 -0.1391  0.2715
21527W        W38001   7.636  13.010  11.702 -0.3132 -0.0387  0.4185
21528W        W38002   9.943  11.768   0.407  0.1052 -0.1591  0.0322
21529W        W38003   4.330  18.777  14.223  0.3631  0.1377 -0.2360
21530W        W38004   4.916   5.663   4.248 -0.2553 -0.0758  0.0785
21531W        W38005  14.296  10.277   2.298 -0.0279 -0.0422 -0.1942
21532W        W38006   9.827   6.236   2.277 -0.1556  0.2230 -0.1899
21533W        W38007  17.635   2.492   1.482  0.2227  0.1343  0.2601
21534W        W38008  11.025  16.773   0.380  0.2075  0.3538  0.2509
21535W        W38009  17.127   3.207   5.279  0.0129  0.1079 -0.1008
21536W        W38010  12.709   7.009   4.717 -0.4624 -0.2484  0.1323
21537W        W38011   3.602  10.362  15.260  0.1154 -0.3388  0.1135
21538W        W38012  18.462   8.105  15.503 -0.2261 -0.0399 -0.0728
21539W        W38013  15.128   9.389   3.218 -0.0081  0.2151 -0.1039
21540W        W38014   7.169   8.055   3.598  0.0893  0.1547  0.0485
21541W        W38015  16.993  14.928   3.742  0.0854 -0.1856 -0.3381
21542W        W38016  11.904   6.738   0.502 -0.3507  0.0182  0.4910
21543W        W38017   6.427  14.437   5.338 -0.1466 -0.0449  0.2418
21544W        W38018  13.662   0.572  14.708 -0.2426  0.2512  0.0487
21545W        W38019   7.781   7.021   5.460 -0.0324 -0.0528 -0.0364
21546W        W38020   7.507  14.430  14.166 -0.1739  0.1078 -0.1394
21547W        W38021  15.939   9.914   1.242  0.3320 -0.1900 -0.1633
21548W        W38022   2.690  11.983   5.525  0.1203  0.1130  0.1254
21549W        W38023   1.065   4.330   5.354 -0.0172 -0.1014 -0.1319
21550W        W38024  15.820   5.523   3.235  0.1703  0.3382 -0.1766
21551W        W38025   7.941  16.663   2.153  0.1290 -0.1160 -0.0181
21552W        W38026   1.772  14.345  14.210 -0.3115  0.2265 -0.2363
21553W        W38027   4.249   1.912   4.451  0.2285 -0.1603  0.0918
21554W        W38028   3.761   3.411  12.478 -0.0110 -0.1317 -0.2277
21555W        W38029  14.274  17.404   5.291 -0.0579  0.0257  0.0033
21556W        W38030  17.639  12.457   2.099 -0.0271 -0.3741  0.3514
21557W        W38031  14.268   4.521  14.100  0.2398 -0.1064  0.0206
21558W        W38032   1.152   5.584   2.493  0.0697  0.0749 -0.1902
21559W        W38033   6.601  13.433   5.923  0.0681  0.2508  0.1943
21560W        W38034  15.101   6.838   0.335  0.0537  0.3436  0.2737
21561W        W38035  13.837   7.125  13.341 -0.3801  0.1117 -0.2952
21562W        W38036  13.162   6.206   5.237  0.0591  0.2109  0.1952
21563W        W38037   0.449  17.723   1.220  0.1825 -0.0598  0.2290
21564W        W38038   0.234   5.673   2.555  0.3571 -0.2410  0.1308
21565W        W38039  10.072   2.077  14.191 -0.2413  0.1717 -0.2747
21566W        W38040   4.233  10.076   4.005 -0.0305 -0.1590 -0.2754
21567W        W38041   5.863  16.100   0.662 -0.1671  0.0497 -0.0474
21568W        W38042   6.486   3.155  13.727 -0.1269  0.1231  0.1159
21569W        W38043   6.493   5.344   2.441 -0.1671 -0.5600  0.1634
21570W        W38044   4.713   6.508   0.421  0.1606 -0.0945 -0.1418
21571W        W38045  18.739   2.957  11.589  0.1847 -0.2742  0.0635
21572W        W38046   9.841   3.859   1.074  0.3883  0.0677  0.0753
21573W        W38047  10.939  12.385   1.123 -0.3119 -0.2341  0.0117
21574W        W38048  15.938  16.492  10.994  0.3288 -0.0816  0.0504
21575W        W38049   7.226   1.528   0.353  0.0418  0.0763  0.0398
21576W        W38050   6.361  12.779   2.694  0.3350  0.1354  0.0149
21577W        W38051   5.742  12.975   0.659 -0.0843 -0.1170  0.0684
21578W        W38052   4.668  18.526   4.446  0.0123  0.0369  0.1559
21579W        W38053  11.798  11.574  11.332  0.0695 -0.3823  0.0772
21580W        W38054  18.227  18.683   0.501  0.1558 -0.0641  0.2537
21581W        W38055  15.841   7.554  12.932  0.2484 -0.0150 -0.1195
21582W        W38056   7.813   4.110   4.746 -0.0647 -0.2716  0.3972
21583W        W38057  11.589   1.054   5.350  0.2190 -0.2477 -0.3144
21584W        W38058   8.286   8.100   2.381 -0.0333  0.5718 -0.2414
21585W        W38059   8.076   5.181  12.945  0.4561 -0.1905 -0.1702
21586W        W38060   7.026  12.029   1.668  0.1460  0.1599 -0.1857
21587W        W38061  10.763   8.197   4.758  0.1209 -0.4335  0.1848
21588W        W38062   5.303   2.458  15.467  0.1740  0.0730 -0.3880
21589W        W38063  14.391  13.557  13.107  0.1009  0.1529 -0.0265
21590W        W38064   3.057   9.143  11.104  0.0120 -0.1807  0.2728
21591W        W38065  15.536  16.663   4.715 -0.0158  0.3977  0.0048
21592W        W38066  15.779  16.299  14.700  0.0263 -0.1017 -0.1325
21593W        W38067   7.701  10.706   4.327  0.1462 -0.0678 -0.0908
21594W        W38068   7.357  17.089  13.872  0.1210 -0.4248 -0.0058
21595W        W38069   1.430   9.035   3.206 -0.0620 -0.0713  0.0662
21596W        W38070  11.727   3.768   5.194 -0.2628  0.3704 -0.0898
21597W        W38071   7.711   6.826   1.400  0.3105 -0.1690 -0.0902
21598W        W38072  11.806   8.345   0.497  0.0101  0.4870 -0.0877
21599W        W38073   7.596   6.942   3.217  0.1891  0.3894  0.1517
21600W        W38074  12.564   9.754   2.248 -0.1260  0.2897 -0.2110
21601W        W38075   6.089   4.396   2.619 -0.0896  0.0427  0.1633
21602W        W38076   5.762   4.564  12.052  0.0420  0.0431 -0.1168
21603W        W38077   7.981  13.564  13.325  0.0551 -0.1348 -0.0362
21604W        W38078   6.471  14.746  11.298 -0.1667  0.1045  0.0037
21605W        W38079  16.818   2.697   0.921 -0.2109 -0.2377  0.0200
21606W        W38080   0.639  13.284   2.048 -0.0223 -0.2487 -0.3576
21607W        W38081   0.150  17.802  15.072  0.2701 -0.1147 -0.1051
21608W        W38082   9.883   1.797  11.855  0.0656 -0.2339 -0.1442
21609W        W38083  10.594  14.093   2.335  0.1780  0.3157 -0.2488
21610W        W38084  11.921  14.520  11.882 -0.0396  0.5984 -0.2952
21611W        W38085   6.731   2.096   4.574 -0.3179 -0.1876  0.3890
21612W        W38086  11.031   2.673   3.387  0.0534 -0.1232 -0.0654
21613W        W38087   8.164  15.910  13.520  0.2392  0.0642  0.1237
21614W        W38088  18.573   7.443  15.469 -0.3461 -0.0577  0.0220
21615W        W38089   8.717  12.534  13.924  0.1763 -0.1528 -0.0740
21616W        W38090   8.058   1.589  12.764 -0.1069 -0.1947 -0.1254
21617W        W38091   4.540   4.006  12.534 -0.0236 -0.1133 -0.1867
21618W        W38092   8.543   2.119  13.500 -0.0059  0.0307 -0.0598
21619W        W38093   2.309  10.963   4.147 -0.1450  0.1329  0.1532
21620W        W38094  17.981   1.057  12.244 -0.0900  0.0572  0.0183
21621W        W38095   7.425  14.897  13.382 -0.0630 -0.0461  0.3403
21622W        W38096  14.855  17.896  12.700 -0.1894  0.0096  0.1855
21623W        W38097   3.916  11.154   0.257 -0.1176  0.2111  0.1317
21624W        W38098   2.517  15.469   2.740 -0.0326 -0.5603 -0.1276
21625W        W38099   0.874   7.357   4.072  0.0028  0.3669 -0.3502
21626W        W38100  12.055  12.970   4.043 -0.1650 -0.0789  0.0103
21627W        W38101  14.322   6.352   2.810  0.0309  0.1652 -0.0406
21628W        W38102  16.386  13.990   1.606  0.1325  0.5186 -0.2433
21629W        W38103  10.252  11.133  12.194 -0.2443  0.2423 -0.0159
21630W        W38104   7.273  16.171  14.356  0.1828 -0.0043  0.2202
21631W        W38105   7.442   2.360  15.592  0.0131  0.2786 -0.2160
21632W        W38106   1.371  17.026   2.580  0.4107 -0.1177  0.0242
21633W        W38107   6.813  12.815  12.340  0.0280  0.1357 -0.1038
21634W        W38108  14.082  15.161  10.740  0.2376 -0.0404 -0.0830
21635W        W38109   8.009   7.645  12.237 -0.3064 -0.4846 -0.0058
21636W        W38110   1.381  11.684   0.785  0.1513  0.2365  0.0678
21637W        W38111  11.466   0.353  10.225 -0.1972  0.2125  0.1383
21638W        W38112   7.678   4.440   0.205  0.3292  0.0702 -0.0436
21639W        W38113   9.019   3.968   0.523  0.0943 -0.0654 -0.1234
21640W        W38114   1.114   2.034   3.312 -0.0763  0.3087 -0.0634
21641W        W38115   4.803   7.837  13.523 -0.3064 -0.0467 -0.0625
21642W        W38116   8.014  17.678  13.768  0.0585 -0.1902  0.2729
21643W        W38117  15.957  14.459  14.569 -0.3220  0.0927  0.0036
21644W        W38118   3.727   5.752  12.734  0.3919 -0.1345 -0.1491
21645W        W38119   5.187  12.862  11.893 -0.0241 -0.0073 -0.3703
21646W        W38120   0.394   0.129  11.373  0.1220 -0.0994 -0.1056
21647W        W38121   0.060   1.120   3.643  0.0319 -0.0555  0.0143
21648W        W38122   2.441   5.092   0.199 -0.2448 -0.1086  0.0185
21649W        W38123   6.090  11.385   4.177 -0.2105  0.2266 -0.1360
21650W        W38124  13.199   0.514  11.038 -0.0224  0.0678 -0.1132
21651W        W38125  18.583   8.441   0.881 -0.2398 -0.0790 -0.4262
21652W        W38126  17.466   8.479   0.241  0.0671  0.1251  0.3505
21653W        W38127  11.593   0.616  14.690  0.0092  0.2857  0.2260
21654W        W38128   0.976  15.229  10.411  0.0527  0.0927 -0.0855
21655W        W38129  17.413  16.756   0.173 -0.2169 -0.0830  0.0735
21656W        W38130   4.370  13.670   3.548  0.1201 -0.1171  0.1395
21657W        W38131  15.623   1.789   2.012  0.1407 -0.1548 -0.3633
21658W        W38132   5.421   1.288   6.245  0.0267 -0.1130 -0.3279
21659W        W38133   7.635   0.032  14.447 -0.0257 -0.0591 -0.1297
21660W        W38134  15.605  16.397   4.342 -0.1597 -0.1236  0.0282
21661W        W38135  18.698   9.915  13.910 -0.0034 -0.2044 -0.2202
21662W        W38136  16.303  16.998  14.486 -0.0797  0.0025 -0.1094
21663W        W38137   4.364  18.626  12.852 -0.0230  0.1779  0.2274
21664W        W38138   2.345   1.030  11.554  0.1577 -0.2772 -0.2137
21665W        W38139  14.051  11.916  10.586 -0.3346 -0.1736  0.2032
21666W        W38140  13.627   2.857  13.498 -0.2599  0.0159 -0.1087
21667W        W38141   4.642  12.386   5.715  0.2935  0.2581 -0.3248
21668W        W38142  18.271  18.690  13.294 -0.1736  0.1367 -0.0166
21669W        W38143  12.229  15.987  14.194  0.0982 -0.2463 -0.2548
21670W        W38144   9.392  11.884  14.698  0.0389  0.0079  0.1822
21671W        W38145  10.524   8.316  14.489 -0.3420 -0.1334  0.1406
21672W        W38146   9.667  15.556  12.821  0.0536  0.1053 -0.2106
21673W        W38147  10.990   0.873   2.739 -0.0907 -0.0292  0.0932
21674W        W38148   8.915  18.085  12.157  0.1814  0.0593  0.1360
21675W        W38149  13.122   4.796  15.440 -0.1056  0.0069  0.0623
21676W        W38150   0.202  15.229   3.476 -0.1286  0.2125 -0.1435
21677W        W38151   8.696  16.407   4.846 -0.0810 -0.0261 -0.0795
21678W        W38152   9.757  12.438   4.880 -0.1545 -0.0573  0.0937
21679W        W38153   1.942  14.768  13.884  0.1842  0.0653  0.1003
21680W        W38154  16.057   4.920  14.978 -0.0473  0.0778  0.2963
21681W        W38155  16.936   9.239   0.649 -0.1488  0.3437  0.0775
21682W        W38156   8.977  12.958  14.178 -0.1865 -0.0032  0.2933
21683W        W38157  18.338   4.419   3.629  0.0765  0.0119  0.1140
21684W        W38158   5.272   7.370  10.613  0.1668  0.0135 -0.3414
21685W        W38159   3.386  18.846  12.960  0.2480  0.3499  0.0732
21686W        W38160   7.144  18.632   3.603 -0.1961 -0.1989 -0.0284
21687W        W38161   5.602   2.492   1.623  0.2333 -0.2819  0.1011
21688W        W38162   4.706   6.065  15.667 -0.1701  0.1236  0.0867
21689W        W38163   2.972  14.519  12.875 -0.2271  0.0421 -0.0134
21690W        W38164  16.990   5.453  15.203 -0.1223 -0.2196  0.2125
21691W        W38165   3.753   8.252  15.328  0.3193 -0.0835 -0.3481
21692W        W38166   4.352   3.522   4.886 -0.1105 -0.1822  0.2489
21693W        W38167  15.410  18.541  15.269 -0.0497 -0.1407 -0.0869
21694W        W38168   3.735  12.361  11.917 -0.1125 -0.2513  0.3368
21695W        W38169   8.838  11.960  13.986  0.2391 -0.0463 -0.0824
21696W        W38170   5.103  18.604   0.383 -0.0619  0.0505 -0.1156
21697W        W38171  10.401  14.665   3.491 -0.0020 -0.2266  0.1547
21698W        W38172   6.751   7.414   3.159 -0.1455 -0.2022 -0.2652
21699W        W38173  15.561  10.093   0.283 -0.0005  0.1597  0.0546
21700W        W38174  11.032   0.111  11.900  0.0581 -0.0680 -0.0814
21701W        W38175   9.415  17.251  15.561  0.0669 -0.0639 -0.1030
21702W        W38176   2.955  13.247   0.362 -0.3083 -0.0093  0.1015
21703W        W38177   2.580   6.283   3.068 -0.0159  0.0047  0.1867
21704W        W38178   2.919   8.288  12.671 -0.2455  0.0343 -0.1613
21705W        W38179  12.353  12.759  12.438  0.0247 -0.4918 -0.3284
21706W        W38180   2.584   5.036  14.224 -0.0864  0.1141  0.0727
21707W        W38181  11.298  17.167  13.529 -0.0272  0.3516  0.3282
21708W        W38182   6.495   5.286   4.469  0.0506 -0.1081 -0.0805
21709W        W38183  14.771   0.705   2.447  0.2848 -0.3268  0.0930
21710W        W38184   5.683   2.777  14.765 -0.0212  0.0016  0.1481
21711W        W38185  18.798   3.271   2.764  0.0434 -0.2252  0.1878
21712W        W38186   2.930  15.917   0.890  0.1816  0.1201  0.2541
21713W        W38187  14.879   9.198  14.973  0.0694 -0.2482  0.1017
21714W        W38188   4.698  18.052   4.615  0.1750  0.1686  0.3291
21715W        W38189  14.601   9.818   2.432 -0.3323  0.1851  0.1410
21716W        W38190   0.421   0.351   2.337 -0.3152  0.0606  0.0983
21717W        W38191   0.290   9.755  13.605  0.2275  0.1876  0.2639
21718W        W38192  16.155   8.542  12.871 -0.1521  0.0772  0.3870
21719W        W38193   9.224  15.328   4.828  0.0211 -0.3846  0.1545
21720W        W38194   4.845  11.642   3.104 -0.1736  0.0077 -0.1046
21721W        W38195  11.547  16.136   5.610 -0.1432  0.0906  0.1105
21722W        W38196  10.124   4.448  12.184  0.0433  0.4061  0.2111
21723W        W38197  13.484   1.286   3.436 -0.1199 -0.2498  0.1189
21724W        W38198   3.388  12.586  11.601 -0.5100 -0.1152 -0.1080
21725W        W38199   9.562  12.238  14.327 -0.0329 -0.2524  0.2095
21726W        W38200  12.720   5.545   1.333 -0.0136 -0.0246  0.3023
21727W        W38201   7.670   1.598   0.085  0.1626  0.2594  0.4649
21728W        W38202   6.665   4.898  11.725  0.0569  0.1669  0.0662
21729W        W38203   8.616   3.171   2.554  0.0293  0.1379  0.1955
21730W        W38204  15.384  11.678   3.016  0.0187  0.0130 -0.0981
21731W        W38205  11.124  17.062  11.861  0.1093  0.0093  0.3254
21732W        W38206   0.420   5.933  15.549 -0.0513  0.0326 -0.1523
21733W        W38207  16.935   6.105  10.718 -0.2857  0.4378  0.0210
21734W        W38208  17.963  10.160  15.183 -0.2146 -0.0066 -0.3353
21735W        W38209  16.826   6.708   3.983 -0.2308  0.0941 -0.1950
21736W        W38210  10.274   7.415   1.627  0.4261  0.0610  0.1917
21737W        W38211  17.408   5.908  12.423 -0.0263  0.0335 -0.0106
21738W        W38212  17.707   6.660   0.727  0.1293  0.2282 -0.2095
21739W        W38213   0.755   7.719   3.679 -0.0374 -0.0455  0.2235
21740W        W38214   4.655  17.476   5.406  0.1801  0.2062  0.2808
21741W        W38215  17.557   6.223   3.660 -0.1208 -0.0820  0.2204
21742W        W38216  15.637  11.058  10.467  0.0233  0.1727  0.0886
21743W        W38217  16.280  16.462   4.919  0.1503 -0.3234  0.0888
21744W        W38218   1.817  10.702   4.479  0.2682 -0.1145 -0.0230
21745W        W38219   9.070  17.635   5.191 -0.1696  0.1699 -0.0058
21746W        W38220  16.252   0.298  12.810 -0.0328 -0.0224  0.0610
21747W        W38221   2.403  17.138   2.595  0.1733  0.0382 -0.0948
21748W        W38222   9.445   4.534   5.450  0.0276 -0.3798  0.0911
21749W        W38223  12.394  13.121  10.823  0.0821 -0.1518 -0.2852
21750W        W38224  18.831   9.774   1.172  0.0923 -0.1994  0.2229
21751W        W38225   0.258   7.278   4.179  0.0908 -0.1492  0.2180
21752W        W38226   6.548  17.861   1.015 -0.0490 -0.2713  0.2729
21753W        W38227  11.295  17.393   2.913  0.1413 -0.2014 -0.1568
21754W        W38228   8.454   9.265  15.339 -0.1800 -0.1883 -0.2163
21755W        W38229   5.222  17.181   4.687  0.2940 -0.0092 -0.4736
21756W        W38230  11.281   9.417  12.796  0.5234 -0.1024 -0.3002
21757W        W38231  10.320   4.421   0.260 -0.2466  0.5171  0.0628
21758W        W38232   7.842   2.828  14.285  0.0553 -0.3255  0.0091
21759W        W38233  15.872   1.484   0.241 -0.0567 -0.1314 -0.0623
21760W        W38234   3.492   4.487   1.439 -0.3182  0.0838 -0.1874
21761W        W38235  15.302   5.089   3.596 -0.2044 -0.2139 -0.0959
21762W        W38236   7.235   8.854  14.484  0.3996 -0.0154 -0.0102
21763W        W38237   8.977   2.219   4.512  0.1595 -0.0623 -0.2209
21764W        W38238  14.457   7.053  14.915  0.2718 -0.0061  0.0767
21765W        W38239   8.048  12.442   0.471 -0.2137 -0.2256  0.0284
21766W        W38240   3.063   7.067  15.509  0.0823  0.1304 -0.2460
21767W        W38241   7.204   2.882  13.357 -0.1355 -0.0014 -0.0313
21768W        W38242   0.302   4.020  10.759 -0.0196  0.1277 -0.1055
21769W        W38243   8.149  13.298   0.821 -0.0384 -0.2252 -0.1620
21770W        W38244   2.368  10.449   2.771  0.2738  0.0147  0.0213
21771W        W38245  14.440  18.484   0.634 -0.2192  0.4207  0.0793
21772W        W38246  11.554   1.519  15.136  0.0334  0.1604 -0.3471
21773W        W38247  14.610  11.657   4.087 -0.3871 -0.0350  0.1312
21774W        W38248  15.975  18.027  13.351 -0.2561 -0.1106  0.2162
21775W        W38249   4.848   3.304   1.770  0.2117 -0.1972  0.0294
21776W        W38250   7.832  14.105  14.909  0.0340 -0.2345 -0.1904
21777W        W38251  18.137   7.005   3.229 -0.3032  0.0710 -0.2151
21778W        W38252   1.494  17.906  14.308  0.1360  0.2092  0.0065
21779W        W38253  17.686   0.737  15.154  0.0589 -0.2120 -0.0482
21780W        W38254   6.493  17.269   1.778 -0.3122  0.3727  0.0068
21781W        W38255   3.168  17.739   4.732  0.3761 -0.1225  0.2600
21782W        W38256   7.511   9.154   5.339  0.2258  0.0090 -0.2013
21783W        W38257  11.357   6.980   4.088 -0.2081  0.0398  0.1681
21784W        W38258  18.654  17.507   3.412 -0.2443  0.1517  0.1460
21785W        W38259   9.765  17.316   1.183  0.0468  0.3658 -0.2674
21786W        W38260  12.253  17.420  11.899 -0.1666  0.0681 -0.2868
21787W        W38261  11.923   2.034   0.346  0.0208  0.1273  0.0328
21788W        W38262  13.995  17.527  12.369  0.0662 -0.6686 -0.3718
21789W        W38263  14.712  10.719   2.356  0.0603 -0.0356  0.1859
21790W        W38264  18.689  11.052  13.295  0.1080  0.0098  0.0994
21791W        W38265   4.575  18.231  12.068  0.2702  0.2165 -0.0016
21792W        W38266   6.454   3.545   4.495 -0.0696 -0.0243  0.1388
21793W        W38267   5.822  11.894   2.609  0.1973  0.1661  0.0103
21794W        W38268   4.022  12.617   3.951  0.1900 -0.2965 -0.0398
21795W        W38269   8.139   5.202   2.738  0.1782  0.0175  0.0583
21796W        W38270   9.627   7.215  13.347  0.0783 -0.1832  0.0199
21797W        W38271  16.282   5.127   2.250  0.3009  0.1205 -0.1774
21798W        W38272   7.315  13.134   2.933 -0.0569  0.1434  0.1810
21799W        W38273  18.025  13.611  11.654  0.1526 -0.2029 -0.2496
21800W        W38274  12.492  17.776  14.860  0.0263 -0.0690  0.1993
21801W        W38275  12.766  17.365  11.873  0.1792  0.0806 -0.0215
21802W        W38276   8.189   1.089   3.024  0.0998 -0.1192 -0.0935
21803W        W38277  14.077  12.118   0.043  0.0860  0.0568  0.2065
21804W        W38278   5.753  13.336   2.659 -0.1357 -0.1262  0.3013
21805W        W38279  12.476  10.152   3.789  0.3459 -0.1920  0.2015
21806W        W38280  11.261   5.046  13.835 -0.2625  0.0660 -0.0863
21807W        W38281  14.203  14.939  14.687 -0.0863 -0.1185  0.2227
21808W        W38282   1.820   9.465   0.238 -0.2088 -0.0896  0.1861
21809W        W38283   7.170  18.279  13.778  0.2160  0.0043  0.0098
21810W        W38284   5.208   6.150  11.790  0.3251  0.0239 -0.2821
21811W        W38285   4.052  18.763  15.123  0.2745 -0.1514  0.1675
21812W        W38286   5.191   9.651  12.782 -0.0464 -0.1566  0.1201
21813W        W38287  15.015  17.343  13.528 -0.0001  0.0111  0.3436
21814W        W38288   2.357  13.495   5.938 -0.1138  0.4637 -0.2352
21815W        W38289  12.918  11.648   4.598 -0.1216 -0.2075  0.4522
21816W        W38290  11.628   7.398   3.864  0.0968  0.1932  0.0701
21817W        W38291  15.475   4.121  14.525  0.3821  0.1177  0.1901
21818W        W38292  11.383   4.326   2.807  0.3563 -0.2916  0.3633
21819W        W38293   7.190  18.185   3.343 -0.1789 -0.0040 -0.4106
21820W        W38294   2.996   2.465   4.461  0.0169 -0.0502 -0.3590
21821W        W38295   5.334   4.055  12.675 -0.1059 -0.0137  0.2410
21822W        W38296  10.175  12.496  14.735  0.1651  0.4096  0.3362
21823W        W38297   0.217  16.064   3.064  0.0224 -0.2775  0.2067
21824W        W38298   8.377   8.160   5.795 -0.0993 -0.1702  0.2709
21825W        W38299  15.483   5.288  12.734 -0.2278 -0.0828 -0.0903
21826W        W38300   6.032   6.934  12.350  0.0406 -0.1475 -0.0732
21827W        W38301  16.993  15.496  13.101 -0.0675 -0.0088  0.0374
21828W        W38302   9.814   8.145  12.280 -0.2352  0.0714 -0.0897
21829W        W38303  11.746   1.243   2.385 -0.1056  0.2659 -0.1743
21830W        W38304   6.010   9.622   2.971  0.1330  0.3097  0.1762
21831W        W38305   6.809   1.969  14.193 -0.0348  0.2592  0.1516
21832W        W38306  11.433  16.193   2.599  0.0159  0.4740 -0.1720
21833W        W38307   4.583  15.599   4.398 -0.0655  0.1656 -0.0195
21834W        W38308  10.911   2.165   2.645  0.3119  0.0075 -0.0707
21835W        W38309   3.495   9.768   4.620  0.1158 -0.1358 -0.1140
21836W        W38310   7.965  17.218  11.676  0.1879  0.1750 -0.1723
21837W        W38311  12.558   5.846   2.326  0.1711  0.0713 -0.0034
21838W        W38312   6.432  18.033   3.177 -0.0004  0.0868  0.0873
21839W        W38313  13.095  16.004   3.316 -0.0043  0.4492  0.0730
21840W        W38314  11.993  18.768   3.923  0.0735 -0.2842 -0.0579
21841W        W38315   5.210  16.815   5.426 -0.0745 -0.1122  0.2842
21842W        W38316   2.463  15.717   3.330 -0.1033 -0.3835 -0.3169
21843W        W38317   1.479  16.684  14.429  0.1262  0.0530 -0.0643
21844W        W38318  13.974  10.583   3.212  0.2012  0.0200 -0.0014
21845W        W38319  11.154   9.699   4.615  0.1457 -0.1556  0.0686
21846W        W38320   5.618   8.895   5.256 -0.0677 -0.4201  0.1834
21847W        W38321   2.714   7.307  15.065  0.2546  0.0758  0.0471
21848W        W38322  12.568  17.716   4.362  0.0608  0.2979  0.2465
21849W        W38323  15.953  16.007   0.289 -0.0083 -0.1948 -0.0743
21850W        W38324  14.709   8.766   3.248 -0.1647 -0.0554  0.1689
21851W        W38325  18.677  11.990  14.896  0.0640  0.0634 -0.1612
21852W        W38326   5.531  17.631   4.447 -0.1764 -0.2239  0.2221
21853W        W38327  14.551   4.169  11.915 -0.1627 -0.0363 -0.1733
21854W        W38328   3.012  17.306  12.360  0.0429 -0.1901  0.2858
21855W        W38329   5.068  11.944  11.866  0.0614 -0.0146 -0.1171
21856W        W38330  13.567   0.686   2.715  0.2642 -0.1665  0.2154
21857W        W38331   8.941  17.144  12.162 -0.2143  0.1052 -0.2246
21858W        W38332   3.883  13.741   0.505  0.0750 -0.0102 -0.1027
21859W        W38333   5.594   7.911  13.979 -0.0174  0.0401 -0.0046
21860W        W38334   6.042   9.074   2.082  0.1777  0.3643 -0.1611
21861W        W38335  14.704  14.176   0.040  0.1379 -0.2815  0.0022
21862W        W38336  17.216  12.170  14.844 -0.0620 -0.3208  0.0058
21863W        W38337  18.709   3.853  11.458 -0.2745  0.2277  0.1511
21864W        W38338  18.716  16.074  11.556 -0.2165 -0.0020  0.0791
21865W        W38339   9.874   0.799  15.480  0.2662 -0.3048 -0.0759
21866W        W38340  12.581  12.260  14.016  0.0833  0.0208  0.3009
21867W        W38341   8.940   8.238  11.988  0.0215  0.1449 -0.4242
21868W        W38342  12.087   9.613   5.233  0.1869  0.1323  0.0226
21869W        W38343   0.312  11.964  12.476 -0.0464  0.2712  0.3343
21870W        W38344  18.110  12.091   2.432  0.0448 -0.0271 -0.1012
21871W        W38345   6.954  14.283  15.356  0.2135 -0.2032  0.2143
21872W        W38346   0.120   8.267  15.270  0.0534  0.2313  0.1194
21873W        W38347   9.072  15.730   2.794  0.3756 -0.0498  0.0391
21874W        W38348  15.545   6.227   0.051 -0.1392 -0.0155 -0.2102
21875W        W38349   8.463   1.370  15.003 -0.0915 -0.1143 -0.0704
21876W        W38350  16.279   2.518   0.253 -0.3484 -0.2411 -0.2952
21877W        W38351  10.125   4.385  15.012  0.1114 -0.0957 -0.1098
21878W        W38352   1.212  14.206   4.499  0.4626  0.2534 -0.0250
21879W        W38353   0.920   2.833   0.168  0.1641 -0.2894  0.3382
21880W        W38354  14.099   6.124  11.640  0.3252  0.1423 -0.1723
21881W        W38355   1.424   2.413   1.260 -0.0137  0.0518  0.0654
21882W        W38356   0.832   6.249  15.254 -0.2635 -0.0270  0.2178
21883W        W38357   3.321   4.337  14.403 -0.0599 -0.3954  0.3855
21884W        W38358   8.513  14.553  11.280  0.0487 -0.0409  0.0762
21885W        W38359   3.424  12.894   2.625 -0.0558  0.1812 -0.0319
21886W        W38360  18.142  16.523   2.792 -0.0862  0.0684  0.2908
21887W        W38361  16.414   6.346  13.708  0.1585  0.0795  0.1909
21888W        W38362   1.681   8.170  15.493 -0.1512 -0.0274 -0.1601
21889W        W38363   1.804   8.944  15.584 -0.0244  0.1472  0.1319
21890W        W38364   7.424  15.202  12.117  0.1488  0.1045  0.1546
21891W        W38365  16.812   5.661   9.354 -0.1842  0.3125 -0.1446
21892W        W38366   4.355  12.290  15.090  0.2279 -0.2575 -0.0797
21893W        W38367  12.192  18.336   0.945 -0.0129  0.1524 -0.1990
21894W        W38368  14.476  16.593   2.671  0.0192 -0.2042 -0.0272
21895W        W38369   3.792  17.176   2.186 -0.3036  0.2991 -0.2092
21896W        W38370  14.889   1.902  14.627  0.1439  0.0502 -0.0235
21897W        W38371   5.145   9.416  13.636  0.2023  0.1164  0.1533
21898W        W38372   6.033   8.147  12.623 -0.0288 -0.0501  0.3084
21899W        W38373   6.954  11.962   1.056  0.1064  0.1898  0.2192
21900W        W38374   2.486  17.030   3.133  0.3676  0.0877 -0.1568
21901W        W38375  12.557  12.989   4.788 -0.0436  0.2416 -0.0064
21902W        W38376   0.541  18.350  14.449 -0.0177 -0.1979  0.0172
21903W        W38377  13.014   1.350   3.623  0.1633  0.0882  0.1736
21904W        W38378   6.037  14.500  11.900 -0.1652 -0.0521  0.2135
21905W        W38379  17.598  10.254  11.208 -0.1706 -0.0210  0.1879
21906W        W38380   7.815  11.888  11.060 -0.0024 -0.2243 -0.0414
21907W        W38381  17.263  13.618   2.695  0.4227  0.1969  0.0314
21908W        W38382   7.666   0.586  13.736 -0.0533  0.0699  0.2017
21909W        W38383   0.408  15.624  13.407  0.2666 -0.3413  0.0168
21910W        W38384   6.785   7.718   3.548 -0.2435  0.0558  0.2735
21911W        W38385  16.940  13.068   2.119 -0.0348  0.0183 -0.0986
21912W        W38386   6.361  17.208  14.213  0.4376  0.3452 -0.0574
21913W        W38387  14.846   1.550   3.866 -0.1861  0.2485  0.0710
21914W        W38388  14.873  14.191   3.715 -0.1536  0.1137  0.1936
21915W        W38389  11.553   7.072   0.291 -0.0047  0.3503 -0.2902
21916W        W38390  10.033  13.011   0.063  0.3215  0.0854  0.2861
21917W        W38391   0.586   3.584   2.126 -0.1036 -0.2564 -0.1414
21918W        W38392   8.917  13.930   2.365 -0.0476  0.0304 -0.0169
21919W        W38393  13.124   1.825  13.484  0.2132 -0.0545 -0.1600
21920W        W38394  14.009  13.834   5.343 -0.1266 -0.1450 -0.0685
21921W        W38395  10.657   3.956   5.649  0.0497 -0.3490 -0.0715
21922W        W38396  18.681  16.877  15.335  0.3602 -0.1033  0.0068
21923W        W38397  12.563   5.798  13.952 -0.3389  0.0847 -0.1288
21924W        W38398   5.727  15.907  12.222  0.0546 -0.0186  0.0736
21925W        W38399   5.301   0.715  13.355  0.0707  0.2048  0.0557
21926W        W38400  14.940   0.356   3.468  0.1314  0.3007 -0.2850
21927W        W38401   6.136   9.447  12.630  0.0127  0.0836  0.2116
21928W        W38402  18.532   7.170   3.602  0.2161 -0.0211 -0.0683
21929W        W38403  18.779   6.641   1.773 -0.0185 -0.0605  0.0096
21930W        W38404   7.457   2.044  11.163  0.0955  0.0677  0.0264
21931W        W38405   8.542   9.679   3.518 -0.1429  0.3684  0.2312
21932W        W38406  10.949   5.477   6.090 -0.0143  0.0996 -0.3650
21933W        W38407   8.841   5.943  12.063 -0.2019 -0.0627  0.5290
21934W        W38408   4.866   5.463   4.778  0.2047  0.1339 -0.0014
21935W        W38409   8.817   4.758  12.026 -0.0715 -0.2479  0.1075
21936W        W38410  17.200   0.737   3.376 -0.2094 -0.0319  0.1769
21937W        W38411   0.911   8.578   1.753  0.1017  0.2681  0.0456
21938W        W38412   3.573  11.935  11.666 -0.0017 -0.2368  0.1385
21939W        W38413   9.570  13.160   3.255 -0.2371  0.0321 -0.1732
21940W        W38414  11.933  14.167  14.408 -0.1840  0.4133  0.0644
21941W        W38415   5.466  10.603   2.588 -0.1574 -0.0876 -0.4008
21942W        W38416  17.189   0.674   4.479  0.3344  0.0684 -0.3057
21943W        W38417   8.697  11.886  13.471 -0.1623 -0.0031  0.1947
21944W        W38418   7.091  12.638   5.029 -0.0678  0.1128 -0.2571
21945W        W38419  18.718  11.653   3.012 -0.2904  0.2250 -0.2604
21946W        W38420  14.054  11.893   2.980 -0.2197 -0.0778  0.0026
21947W        W38421   8.658   8.122   1.936  0.2171  0.0213  0.4726
21948W        W38422   8.996   0.915  15.371  0.1193  0.2184  0.0163
21949W        W38423  16.192  13.935  13.920  0.2329  0.1827 -0.0017
21950W        W38424   0.931  15.828   6.045  0.0320  0.1215  0.0754
21951W        W38425  10.410   5.018   2.658 -0.0596  0.0760  0.1672
21952W        W38426   3.758   7.762   0.313 -0.3729  0.2171  0.2514
21953W        W38427  17.691  11.950  12.233 -0.1423  0.0832  0.0331
21954W        W38428   4.867   1.672  15.274 -0.0677 -0.1265 -0.2043
21955W        W38429  10.694   7.735   2.426  0.0733 -0.2878 -0.2634
21956W        W38430   2.518  14.241   1.441  0.2571  0.0548 -0.1829
21957W        W38431   5.424   4.428   0.590 -0.2199  0.0407  0.2893
21958W        W38432  14.716  15.265   4.084  0.2249  0.1215  0.0113
21959W        W38433  11.215  15.480  13.479 -0.1594 -0.2450 -0.3028
21960W        W38434   9.824   0.014   4.124 -0.0610  0.1910  0.1111
21961W        W38435   0.461   9.007  13.095  0.0678 -0.2165  0.0908
21962W        W38436   4.070   3.021  14.067  0.3383 -0.2212  0.2842
21963W        W38437  15.139  10.335  11.001 -0.0412  0.1272  0.1661
21964W        W38438   2.251   1.931   4.712  0.1183 -0.0915 -0.2263
21965W        W38439   8.947  13.453   5.352 -0.0890 -0.4074  0.2080
21966W        W38440   2.876  15.200  13.843 -0.2364  0.0460 -0.0953
21967W        W38441  16.887   5.669   0.150 -0.3385  0.3199  0.0332
21968W        W38442  18.502  10.279  11.776  0.0094  0.2634 -0.0315
21969W        W38443   7.056  13.174   4.196  0.4116  0.1348  0.1439
21970W        W38444   1.507  10.652  14.201 -0.0711  0.1558  0.0212
21971W        W38445   4.765   1.339   3.330 -0.0457  0.3517 -0.2358
21972W        W38446  17.020   7.522   0.559  0.2448  0.2837 -0.1460
21973W        W38447  13.113   3.920   1.597 -0.0919 -0.1144 -0.0593
21974W        W38448   0.502  13.022   2.797 -0.1418  0.2813  0.1325
21975W        W38449   7.217   6.827  12.014 -0.1403 -0.2461  0.1117
21976W        W38450  10.987  12.368   3.187  0.0148 -0.1106 -0.1134
21977W        W38451   4.969   5.798   1.749  0.0185  0.0782  0.0289
21978W        W38452  13.881   5.174  11.041  0.1552 -0.3179 -0.1269
21979W        W38453   7.344  14.157   3.985  0.3067 -0.0920  0.1532
21980W        W38454  10.672  10.446   1.899  0.0865 -0.3102 -0.0795
21981W        W38455  11.352  12.970   4.663  0.1698  0.2401  0.2669
21982W        W38456  13.418   7.236   5.176  0.0688  0.1754 -0.0131
21983W        W38457   6.818  15.358   3.083  0.0580  0.2858 -0.0080
21984W        W38458  15.297   8.057   5.502  0.0229  0.0757 -0.1975
21985W        W38459   8.174   2.817   4.429  0.0615 -0.0561  0.2029
21986W        W38460  11.678   2.444   0.545  0.4554  0.2621  0.0707
21987W        W38461   0.674  18.665  10.842  0.1544 -0.2956  0.0351
21988W        W38462  18.850   8.107   3.491  0.1096 -0.1004 -0.2150
21989W        W38463  18.615   1.960   1.361 -0.0322  0.1627 -0.0882
21990W        W38464  14.995   8.487   2.891 -0.1340 -0.3855 -0.2389
21991W        W38465  16.923  16.451  12.661 -0.3286  0.1584  0.0778
21992W        W38466   4.812  15.474  11.335  0.0338  0.3674  0.0477
21993W        W38467  15.366  15.178  15.453 -0.0333 -0.0752 -0.1584
21994W        W38468   5.015   0.682  13.956  0.1266 -0.2382 -0.0236
21995W        W38469  14.342   0.118   0.523 -0.1677  0.1312 -0.2906
21996W        W38470  15.928   5.678  10.110 -0.2278  0.1588  0.0863
21997W        W38471  12.723  18.262   2.142  0.3512 -0.4048 -0.4431
21998W        W38472  10.216  13.395  13.623  0.1567  0.0380  0.2190
21999W        W38473   7.756   7.009   6.265  0.1622 -0.1237 -0.2333
22000W        W38474  16.812  15.630  12.499  0.2401 -0.1396  0.0373
22001W        W38475   4.438  12.963   5.059  0.4679  0.0589  0.0350
22002W        W38476   1.001   2.109  14.375 -0.3013 -0.1106 -0.3212
22003W        W38477  17.101   7.557   3.907 -0.0107  0.0385 -0.1113
22004W        W38478  16.221   8.344   1.670 -0.2320 -0.0572 -0.0262
22005W        W38479  13.323  13.051  15.141 -0.1838 -0.0016  0.6504
22006W        W38480  18.851  10.450  15.361  0.3118 -0.2580 -0.3640
22007W        W38481   0.921  16.545   0.481 -0.3175 -0.2523 -0.1481
22008W        W38482   3.793   0.770   1.201 -0.1566 -0.3480  0.0724
22009W        W38483  14.641  10.376   2.708  0.1670 -0.1782  0.0130
22010W        W38484  14.368  12.651  13.280 -0.0188 -0.1002 -0.1734
22011W        W38485   7.426  18.428  14.207  0.0139  0.0231 -0.0245
22012W        W38486   1.752  16.540   2.651 -0.4320  0.0762 -0.1195
22013W        W38487   9.475  12.146   3.947  0.0669  0.1671 -0.2898
22014W        W38488  15.309   0.992   3.858 -0.2577 -0.2547  0.2993
22015W        W38489   8.987  17.775   1.211 -0.0108 -0.2297  0.1356
22016W        W38490   0.289  13.748   4.184 -0.0251 -0.2797  0.1786
22017W        W38491  14.098  13.352   5.541 -0.1336 -0.2599 -0.3521
22018W        W38492   6.719  15.294  13.964 -0.2224  0.0709 -0.0176
22019W        W38493   2.383  18.566   3.824  0.0436 -0.0300  0.0359
22020W        W38494  15.981   0.112  10.500 -0.0736  0.0605 -0.2653
22021W        W38495  16.829  11.843  12.813  0.0220  0.3444  0.3263
22022W        W38496   7.483  16.682   0.056 -0.1073  0.3368  0.1120
22023W        W38497   7.284   7.929   0.151 -0.0286  0.2928 -0.0319
22024W        W38498   0.143   5.894  10.227 -0.0591 -0.0631 -0.0477
22025W        W38499   3.743   2.538   0.221 -0.0560  0.0579  0.1454
22026W        W38500  11.856   2.235   1.708  0.0934 -0.4319  0.0985
22027W        W38501   4.912  16.971   2.225  0.0130  0.2431 -0.0730
22028W        W38502  13.864   6.695   4.640  0.0527 -0.2923  0.0340
22029W        W38503  18.047   6.318   1.189 -0.1334  0.0601 -0.0426
22030W        W38504  17.817   2.012   1.755 -0.1084  0.3295 -0.1176
22031W        W38505  10.073  17.403  11.348  0.0483 -0.1149  0.1329
22032W        W38506   7.290   6.109   3.004  0.0543  0.1726 -0.0584
22033W        W38507   7.224   5.369   1.719 -0.0566  0.2303  0.3739
22034W        W38508   0.172   3.899  15.551 -0.0923  0.1190  0.0590
22035W        W38509   7.176  16.248  11.114  0.1405  0.1440  0.0648
22036W        W38510  13.995   8.278  14.426 -0.2067  0.4040  0.0582
22037W        W38511   2.088  11.336   4.352  0.1064 -0.0524 -0.1991
22038W        W38512   7.832   7.501   4.155  0.1722  0.1312 -0.0241
22039W        W38513   3.861  10.112   1.982 -0.0239 -0.1839 -0.4173
22040W        W38514   2.548  17.539   3.288 -0.0576  0.1037 -0.1387
22041W        W38515   8.787  15.570  11.183  0.0885  0.1225  0.0967
22042W        W38516  13.309   7.258   4.155  0.0888 -0.2582  0.1769
22043W        W38517  11.612   7.905   5.246 -0.3223 -0.1048 -0.3085
22044W        W38518  18.541   5.514  14.591 -0.0598 -0.1623  0.0025
22045W        W38519   8.094   5.383  14.761 -0.3195 -0.2430 -0.3509
22046W        W38520  11.635   4.824  14.949  0.0481 -0.2062  0.3557
22047W        W38521   4.075   9.004   4.035 -0.1631  0.4487 -0.3678
22048W        W38522  14.524   1.952   1.892  0.0915  0.3586  0.3160
22049W        W38523  16.701  15.813  10.989  0.3002 -0.0587 -0.2883
22050W        W38524  16.207   7.302   0.188 -0.0931 -0.2915  0.1822
22051W        W38525  12.595  14.080  12.572 -0.0521  0.1018  0.2570
22052W        W38526   8.517   8.808   0.073  0.0694  0.1883 -0.0785
22053W        W38527  11.579  17.583  13.393 -0.0903  0.0275 -0.0860
22054W        W38528  12.977   9.828   4.984 -0.0189 -0.0320  0.1616
22055W        W38529   6.005  18.403  13.144  0.2984 -0.0549  0.3082
22056W        W38530  15.080  10.138   2.643  0.2263  0.0411 -0.3428
22057W        W38531   3.024  16.632  14.467  0.2592 -0.0084 -0.1837
22058W        W38532   5.032  17.254   5.145 -0.1557 -0.0314  0.2768
22059W        W38533  18.252  11.939  12.450 -0.0212 -0.1390 -0.1178
22060W        W38534   7.531   8.681   3.239 -0.1987  0.0277 -0.3152
22061W        W38535   8.356  16.654   3.787  0.0858 -0.1238 -0.0917
22062W        W38536   1.931   4.195   3.293 -0.4956  0.1056 -0.4449
22063W        W38537  10.843  18.296   4.960 -0.3089  0.0952  0.0072
22064W        W38538   2.977  11.591  12.381 -0.4914 -0.0936 -0.4494
22065W        W38539  17.017   6.147  12.201 -0.0636 -0.0757  0.2565
22066W        W38540  11.966  13.613   0.530  0.3488  0.0477  0.1305
22067W        W38541  15.696   5.361   3.736 -0.0735  0.2535 -0.2298
22068W        W38542   3.933   1.575   4.553  0.0554  0.1534  0.1010
22069W        W38543   5.140   4.598   2.278 -0.0735  0.1260 -0.1126
22070W        W38544   2.245   2.838  11.613  0.4281  0.0296 -0.3712
22071W        W38545   5.468  14.549  11.313  0.0627 -0.0158  0.0136
22072W        W38546  11.089   5.435   0.238 -0.0487  0.0085  0.2403
22073W        W38547   6.872  10.129  11.762 -0.4739  0.0972 -0.2449
22074W        W38548   0.378   6.036  13.890  0.1464 -0.2400 -0.1025
22075W        W38549  10.098   1.389  11.686 -0.1580  0.3143  0.1950
22076W        W38550   0.710  14.786   2.510 -0.0474 -0.0344 -0.2109
22077W        W38551  16.708  11.978   1.347 -0.1372 -0.0500 -0.1157
22078W        W38552  11.866   3.895  12.583 -0.1048  0.0822 -0.0935
22079W        W38553   3.555  11.331  13.097  0.1389  0.1944  0.0878
22080W        W38554   5.614  10.659  13.508 -0.0235  0.4698  0.1048
22081W        W38555  13.828  10.123   3.286 -0.0798 -0.3495 -0.0154
22082W        W38556   3.243   3.387   5.001  0.5266  0.3414 -0.0685
22083W        W38557  16.521  17.463   0.563  0.1662 -0.2369 -0.0324
22084W        W38558  10.671  15.643   3.980  0.1150  0.2112 -0.1743
22085W        W38559   4.893   8.852  12.310 -0.1872 -0.0872 -0.1395
22086W        W38560  15.434  15.517   3.267 -0.1822 -0.0547 -0.0145
22087W        W38561   5.386   8.357   3.451 -0.1540  0.2908 -0.0056
22088W        W38562   1.101   4.714   3.868  0.1821  0.0421 -0.1177
22089W        W38563   3.025   5.170   2.524 -0.0385 -0.0141  0.3168
22090W        W38564   3.395   0.285  11.028 -0.1119 -0.1293 -0.0195
22091W        W38565  15.446   2.234  13.838 -0.0082 -0.0561 -0.1693
22092W        W38566  10.838  18.432   0.858 -0.3451  0.1249  0.2051
22093W        W38567   9.228   9.542  12.531 -0.0620 -0.0478  0.1852
22094W        W38568  16.170  10.775   2.004 -0.1258  0.0752 -0.1220
22095W        W38569   8.167   3.777   5.303  0.0869  0.2037  0.1400
22096W        W38570  15.504   6.274   1.899 -0.1448  0.0727 -0.2061
22097W        W38571   7.664  18.233  14.953  0.1494  0.1632 -0.1166
22098W        W38572   4.351   0.604  13.093  0.1922 -0.0074  0.1883
22099W        W38573   2.152  16.997  13.674  0.1444 -0.1361  0.0900
22100W        W38574  17.208   7.051  12.987 -0.2112 -0.1339 -0.1155
22101W        W38575   8.266  18.255   0.702 -0.1777  0.1737  0.1605
22102W        W38576  10.790   4.595  11.906  0.1126  0.2193  0.2174
22103W        W38577  18.366  18.158   4.079 -0.1154 -0.2454  0.2449
22104W        W38578  14.467  13.395  11.129 -0.1651 -0.0113 -0.1770
22105W        W38579  17.338  12.247  12.626 -0.3143  0.1227 -0.1256
22106W        W38580  18.852   9.118  13.378  0.0524 -0.0278  0.1635
22107W        W38581  17.868   1.161  11.703 -0.0567  0.2185  0.3604
22108W        W38582   6.909   2.743   2.835  0.0800  0.4282  0.0647
22109W        W38583  17.453   2.915  12.925  0.0018 -0.0991  0.0229
22110W        W38584   2.787   8.330  15.387  0.3364 -0.0842 -0.0611
22111W        W38585  15.971  10.432  10.820 -0.3079 -0.0919 -0.0619
22112W        W38586   7.396  15.337  13.233  0.0496 -0.2886 -0.0383
22113W        W38587   1.541  11.501   1.297  0.1514  0.0115 -0.0075
22114W        W38588  18.086  15.117   3.345 -0.3062 -0.1141 -0.0616
22115W        W38589   0.658  15.113  14.138 -0.1489  0.0842 -0.0392
22116W        W38590   5.334  11.020  13.377 -0.1175  0.1895  0.1730
22117W        W38591  17.655   1.409  12.556 -0.1014 -0.2901 -0.1800
22118W        W38592   6.934   4.695  12.209  0.0708  0.2039  0.1664
22119W        W38593  12.396   0.576   5.341 -0.1033  0.2836 -0.0328
22120W        W38594   9.950   1.111   1.612 -0.2326  0.4296  0.3734
22121W        W38595   7.810  18.658   3.004  0.0791 -0.1843  0.3548
22122W        W38596  13.087  15.684  12.098 -0.0086  0.1798 -0.0191
22123W        W38597   7.295   3.113  15.637 -0.0556 -0.0788  0.2010
22124W        W38598   2.554   6.757   2.841 -0.2323  0.2036 -0.1675
22125W        W38599   5.086   0.637   2.272  0.5934  0.2685  0.1050
22126W        W38600   3.038  12.495  11.093  0.1057  0.1629 -0.0083
22127W        W38601   4.189  11.425  15.577 -0.0731 -0.0933 -0.0153
22128W        W38602  14.069   6.712  11.592 -0.2706 -0.3626 -0.6776
22129W        W38603  18.648   7.526   1.886  0.1918 -0.4273 -0.2595
22130W        W38604   2.486  11.289  14.086 -0.1149  0.0048 -0.4615
22131W        W38605   3.136  10.016   4.405 -0.3200  0.0417 -0.2321
22132W        W38606   1.791  18.185  13.578  0.1168  0.0486  0.1785
22133W        W38607   7.128  15.204   1.337 -0.1064 -0.0491 -0.0884
22134W        W38608   3.778   9.208  14.062  0.0908 -0.0489 -0.1198
22135W        W38609   7.102  14.997  15.493  0.1454 -0.1580  0.1940
22136W        W38610  17.898   8.700   0.435 -0.0320 -0.1232  0.0909
22137W        W38611  14.362   5.345  11.256 -0.2091 -0.2331 -0.2275
22138W        W38612   3.082   8.660   4.719  0.1393 -0.1347 -0.3059
22139W        W38613   1.949   7.357   2.538 -0.2643 -0.3366  0.1430
22140W        W38614  11.457   1.761   3.384 -0.0117 -0.0755 -0.2190
22141W        W38615   2.114   9.125   4.618 -0.0572 -0.1991  0.1968
22142W        W38616  14.179  17.389   0.812 -0.1189  0.3082  0.0359
22143W        W38617   4.569   8.364   3.689 -0.0644  0.2517 -0.4681
22144W        W38618   3.053  18.462  13.052 -0.1158  0.3453  0.1196
22145W        W38619  14.365  11.104   0.722  0.0702 -0.1999 -0.2408
22146W        W38620  12.003   5.316  14.148 -0.3533 -0.1050 -0.2581
22147W        W38621  17.588   6.931   9.936  0.0338  0.1192 -0.1378
22148W        W38622   4.976   5.183   3.836  0.3526  0.4068  0.1050
22149W        W38623   7.015   0.587  11.394  0.0967  0.0791 -0.3548
22150W        W38624  16.304  17.129  11.451  0.1053  0.1186 -0.1510
22151W        W38625   3.631   3.880  12.423  0.3378  0.0533  0.0722
22152W        W38626   4.656   5.583   0.173  0.4941  0.1651 -0.0227
22153W        W38627  18.131  18.289  12.433 -0.0249  0.0190 -0.0616
22154W        W38628   5.212   9.620   4.641 -0.3532 -0.2069 -0.0566
22155W        W38629   7.719  17.470  12.053  0.0911  0.0564  0.2447
22156W        W38630   6.538   0.039  14.182  0.3832 -0.2422 -0.2057
22157W        W38631   9.030   0.156  13.227 -0.0297 -0.1127 -0.5119
22158W        W38632   4.260   4.904   3.124  0.1005  0.3729  0.1677
22159W        W38633  12.308  13.057  12.025 -0.0121 -0.1488 -0.1692
22160W        W38634   8.423  11.086   2.858 -0.0835 -0.1813  0.0934
22161W        W38635  18.213  16.422   1.670 -0.1177 -0.5831  0.0095
22162W        W38636   5.186  10.365  14.279 -0.0072  0.1597  0.1157
22163W        W38637  11.932   2.356  14.782  0.1893 -0.2389  0.4272
22164W        W38638  14.830   5.898  13.220  0.1218 -0.3794  0.1242
22165W        W38639   6.349   0.368   2.390  0.0178  0.0190 -0.2351
22166W        W38640  11.172   2.546   0.400 -0.0070  0.0839 -0.1247
22167W        W38641   3.622   1.518  13.908 -0.1360 -0.0667 -0.0874
22168W        W38642   2.743  13.680   0.601  0.0788  0.1365  0.2277
22169W        W38643  10.636  10.924  14.248  0.1449 -0.1277  0.2413
22170W        W38644  18.059  17.592  14.905 -0.1324 -0.0450 -0.1754
22171W        W38645   0.054  18.728   1.929  0.3256  0.1137  0.3268
22172W        W38646  12.573  17.643  13.445  0.0312 -0.0690 -0.1236
22173W        W38647  17.055   7.281   9.477 -0.2052  0.0532 -0.1454
22174W        W38648   3.316   9.346   1.042 -0.3040  0.0756  0.0183
22175W        W38649  13.737   0.727   0.643  0.1201 -0.0164 -0.1360
22176W        W38650   0.955  15.777   4.386  0.0038 -0.0673  0.0210
22177W        W38651  15.643   2.388  14.321 -0.4679 -0.1736  0.0479
22178W        W38652   3.450   4.582   4.132  0.3718  0.2685 -0.1606
22179W        W38653   5.410   6.593  15.200 -0.0436  0.0865  0.0303
22180W        W38654  12.680  10.549  13.053  0.1225 -0.2825  0.1194
22181W        W38655  10.366  10.817   0.636 -0.4334  0.1554 -0.0879
22182W        W38656  17.724   1.240  14.577 -0.2024 -0.1609 -0.0319
22183W        W38657  17.512  17.483  10.834  0.1664  0.0006  0.2913
22184W        W38658  18.785   2.201   3.371  0.0774  0.4042  0.0074
22185W        W38659  13.689   3.360  12.817  0.0788  0.1540  0.0462
22186W        W38660   7.720  11.511   1.874  0.1144  0.0700 -0.1987
22187W        W38661   2.802   6.297  14.967 -0.2456 -0.1207 -0.0429
22188W        W38662  12.068  16.898  11.982  0.0925  0.1148  0.0803
22189W        W38663   1.316  12.420   0.883 -0.1951  0.1066 -0.0285
22190W        W38664   3.418   7.854  10.579 -0.3092  0.3488  0.1372
22191W        W38665  18.364   6.314  12.424 -0.0039  0.0494 -0.0180
22192W        W38666  17.617  13.602   0.236 -0.1179  0.2102 -0.2164
22193W        W38667   7.053  17.793   2.130  0.1369 -0.3403  0.1410
22194W        W38668   4.160  18.361   1.412  0.1186 -0.1795 -0.0576
22195W        W38669   6.721  14.118   1.238 -0.1114  0.0517  0.0779
22196W        W38670  15.126   0.655   4.369  0.0079 -0.3194  0.1302
22197W        W38671   5.356  14.872  14.508 -0.3511  0.3512 -0.1691
22198W        W38672   4.227  17.475  15.150  0.1591 -0.0414 -0.1282
22199W        W38673   3.815  16.977   2.625  0.0555 -0.1147  0.1230
22200W        W38674  12.547   9.818   1.042  0.0645  0.1535  0.0191
22201W        W38675   8.117   9.803   0.890 -0.1677 -0.0454  0.2963
22202W        W38676  16.830  15.255  11.197 -0.2114  0.1143  0.1192
22203W        W38677   6.237  18.267   1.039 -0.0179  0.1109  0.0401
22204W        W38678  12.267   1.115   4.197 -0.2804 -0.1522 -0.0669
22205W        W38679   0.452  14.857   1.039  0.0709  0.0740  0.0385
22206W        W38680  12.000  14.040   0.241 -0.0181 -0.0945 -0.2310
22207W        W38681   3.988  14.487   4.005 -0.0752 -0.2528  0.0453
22208W        W38682   8.931   7.706   3.143 -0.2718  0.0135  0.0185
22209W        W38683   5.724  11.118  15.053 -0.1262  0.3392  0.0457
22210W        W38684   4.859  14.057  13.149 -0.1376  0.0662 -0.0649
22211W        W38685  12.117  15.034  14.487  0.6357  0.3814 -0.1254
22212W        W38686  17.042   1.737  13.814  0.0346 -0.1095  0.4806
22213W        W38687   2.928  13.737  14.457  0.1181 -0.2733  0.1445
22214W        W38688  16.638  14.115  10.455  0.0796  0.1573 -0.1743
22215W        W38689   4.601  12.461  14.560  0.1180 -0.0337  0.1343
22216W        W38690   1.342   4.954  15.342  0.0216 -0.2304  0.0100
22217W        W38691  15.935  11.841   1.156  0.1005 -0.0990 -0.0742
22218W        W38692  15.273   4.794  13.990  0.0714 -0.0442  0.0540
22219W        W38693   0.045   1.006  13.118 -0.2083 -0.0687 -0.0346
22220W        W38694   9.908  11.433  13.890 -0.2357 -0.1568 -0.0986
22221W        W38695  11.016   9.793   3.005  0.1467  0.4049  0.0519
22222W        W38696  12.864   1.788   3.710  0.1339 -0.3279 -0.0993
22223W        W38697  18.482   2.698  11.164 -0.0206 -0.0552  0.0109
22224W        W38698  16.162   7.035   2.382 -0.1828  0.0078  0.1035
22225W        W38699   1.493  18.060   2.840 -0.2408 -0.1866  0.0322
22226W        W38700  15.373  12.346  10.644 -0.1335 -0.0897  0.2278
22227W        W38701   8.140  12.447  12.226 -0.3454  0.1087  0.0074
22228W        W38702  16.260  16.587   2.165  0.1531  0.0897 -0.0238
22229W        W38703  11.805  11.685   6.062  0.0497 -0.0414  0.0680
22230W        W38704   2.328   3.247  12.598  0.1948  0.1714 -0.3131
22231W        W38705  14.787   8.609  10.775  0.1806  0.0325 -0.0066
22232W        W38706   6.866   5.253   3.216 -0.1156  0.2347  0.3013
22233W        W38707   6.478  10.404   1.826 -0.1970  0.0825  0.0189
22234W        W38708  11.312  17.857  14.681  0.0691 -0.3191  0.1522
22235W        W38709   8.709   5.580  12.392  0.1489  0.2679 -0.0055
22236W        W38710   1.747   7.265  14.664 -0.1407  0.2628 -0.0515
22237W        W38711  16.363  15.223   5.579  0.2201 -0.3468 -0.2699
22238W        W38712  12.993  13.392  13.095 -0.1107 -0.0620 -0.2301
22239W        W38713   7.645  14.570   4.100  0.1847  0.3708 -0.2611
22240W        W38714   6.345   4.734  14.866  0.0523 -0.1521  0.2715
22241W        W38715  16.980   5.063   3.918 -0.0837  0.0516 -0.0408
22242W        W38716  11.334  17.570   3.895 -0.2592  0.2390  0.1008
22243W        W38717   1.606  17.169  13.550  0.0085 -0.2270 -0.2514
22244W        W38718  18.752  15.055  10.078  0.0800  0.3045 -0.0840
22245W        W38719  13.844   9.629  13.089  0.0113 -0.0264  0.2819
22246W        W38720  15.915   3.003   1.414 -0.0470  0.1635 -0.2150
22247W        W38721   7.996   8.683   3.030  0.2671 -0.2197 -0.1486
22248W        W38722   3.765  14.533   1.572  0.2029  0.2367  0.1926
22249W        W38723  11.338  13.444   2.821 -0.5037  0.0838  0.0888
22250W        W38724  10.528  17.666  13.320  0.2796 -0.1662  0.0950
22251W        W38725  18.246   2.037  13.929  0.2013  0.3362  0.1135
22252W        W38726  12.997  11.871   1.509 -0.5467 -0.3231  0.0515
22253W        W38727   2.182   1.603  11.162  0.2125  0.0119 -0.1006
22254W        W38728  17.753  16.671   5.415  0.2315 -0.0160 -0.0314
22255W        W38729   5.457  13.122  11.518  0.3804  0.0291 -0.1776
22256W        W38730  13.903  13.415  14.199  0.0934 -0.0809 -0.1429
22257W        W38731   1.211  13.868   5.066 -0.0987  0.0998  0.0866
22258W        W38732   4.810  13.474  14.910 -0.1747  0.1667 -0.1990
22259W        W38733   3.452   3.205  12.173  0.2257  0.1766  0.5011
22260W        W38734  17.233   8.609  13.302  0.1903 -0.0484  0.0699
22261W        W38735   5.297  12.263  13.083 -0.0598 -0.1818  0.0213
22262W        W38736  10.019   8.727  14.599  0.2783 -0.3431  0.1082
22263W        W38737  10.641   6.795   0.478  0.0481  0.0868  0.1779
22264W        W38738  16.629   5.266   4.108  0.4455  0.3909 -0.2406
22265W        W38739  14.326  11.735   2.062  0.1239 -0.0245 -0.5076
22266W        W38740   7.672   2.655  12.594  0.0400 -0.0995  0.1010
22267W        W38741   3.971   0.513   2.532 -0.4189 -0.0251  0.1013
22268W        W38742   1.722   5.088   5.029  0.2864  0.2047 -0.0478
22269W        W38743  13.590   9.555  13.582  0.1431 -0.0159 -0.3620
22270W        W38744  13.698   7.814   2.990 -0.1571 -0.1720 -0.4362
22271W        W38745  18.705   7.658  13.543  0.0015 -0.4118  0.2403
22272W        W38746   0.016  11.222   4.555  0.0427 -0.0217 -0.0078
22273W        W38747   8.573   7.342   0.133  0.2161  0.1233 -0.0958
22274W        W38748   2.961  16.275  12.073 -0.0434  0.4118  0.1973
22275W        W38749  18.183   2.310  11.317  0.2277 -0.0473 -0.1175
22276W        W38750   7.515  12.712  13.234  0.0213  0.1845  0.1368
22277W        W38751   1.176   9.913   2.869 -0.1272  0.2608 -0.0003
22278W        W38752  18.112  18.255   0.693 -0.2851 -0.2126  0.0403
22279W        W38753  17.670   9.823   0.397 -0.0687  0.1165  0.0651
22280W        W38754   1.050  14.824   2.122 -0.2109  0.1168 -0.2600
22281W        W38755  15.256  18.487  12.324 -0.2346 -0.0001  0.2745
22282W        W38756   4.246  13.774   1.336  0.0857  0.0125 -0.0098
22283W        W38757   4.985  11.777   3.984  0.2144  0.2366  0.0128
22284W        W38758   9.686   1.319  13.519 -0.2166  0.0676 -0.0433
22285W        W38759   0.954  15.192  13.020  0.2453  0.0833  0.1027
22286W        W38760   8.225   7.395  11.785 -0.0053  0.0489  0.2263
22287W        W38761   2.719  18.560  11.560 -0.0501  0.0538 -0.0666
22288W        W38762   6.221  12.994  10.154  0.0767 -0.1342  0.1115
22289W        W38763   1.499   4.443   3.638  0.0539 -0.1845 -0.0214
22290W        W38764  11.752   2.582  14.083  0.1471  0.3482  0.2687
22291W        W38765   5.681  10.379   1.528 -0.0754  0.0130 -0.2060
22292W        W38766  14.907   5.936   3.907 -0.0364 -0.2710 -0.4413
22293W        W38767  12.789  10.986   1.877  0.0082 -0.0270  0.1620
22294W        W38768   1.290  10.018   5.435 -0.4131 -0.0962 -0.2006
22295W        W38769   8.145  15.406   4.594 -0.0336  0.1874  0.1251
22296W        W38770   3.449  17.451  13.933 -0.3336 -0.0653 -0.4534
22297W        W38771  15.264  14.889  12.494 -0.0506 -0.2159  0.2167
22298W        W38772   8.051  11.015  11.482  0.3535 -0.0557  0.0833
22299W        W38773   4.351  13.624   0.777 -0.0929 -0.3462  0.2854
22300W        W38774  13.907  11.637  11.132 -0.0310 -0.0337  0.0786
22301W        W38775   5.003   9.786   0.426  0.0994 -0.1974  0.0716
22302W        W38776  13.022   5.358  13.138  0.0211 -0.0239  0.3268
22303W        W38777  17.669  14.561  11.302  0.0273  0.0093 -0.1461
22304W        W38778  18.479   0.925   4.642  0.0822  0.0479 -0.2384
22305W        W38779   0.564   8.565  14.215  0.1621  0.1249  0.0530
22306W        W38780  18.504   8.212   2.156  0.2419  0.1173  0.2010
22307W        W38781  15.385  15.989   2.761 -0.0559  0.2164  0.1037
22308W        W38782  14.309   4.546   1.658  0.0675 -0.0178  0.0251
22309W        W38783  11.605  11.682   2.061  0.2724  0.0454  0.1747
22310W        W38784  14.321  17.737   4.562  0.2453  0.0944 -0.0782
22311W        W38785  18.666  16.481  14.981  0.0796  0.0442 -0.1771
22312W        W38786  15.058  18.796   2.949 -0.0005 -0.0103  0.1093
22313W        W38787   5.235   2.840   1.761  0.4359  0.0921 -0.0251
22314W        W38788  11.423   0.039   2.637 -0.0744  0.0787 -0.3097
22315W        W38789   9.696   6.431   0.097 -0.1565 -0.0604 -0.0249
22316W        W38790  13.573  12.522  12.257 -0.2110 -0.0922 -0.0568
22317W        W38791  16.186  14.148  12.225 -0.0919 -0.2117  0.2995
22318W        W38792  14.336  13.928  15.510 -0.0298  0.2289  0.0522
22319W        W38793   2.368   0.256   2.597  0.2006 -0.0565  0.1940
22320W        W38794   7.539   0.527  14.651  0.1751  0.0954  0.0259
22321W        W38795  12.205   2.427  14.314  0.1624  0.0458  0.2283
22322W        W38796   0.306  13.756  15.363 -0.0682 -0.2399 -0.0109
22323W        W38797  13.159  11.840   4.138  0.2221  0.1972 -0.3450
22324W        W38798   0.756   7.886   3.186 -0.0172  0.1345  0.1295
22325W        W38799   9.005  12.016  12.224  0.2230  0.1041  0.2652
22326W        W38800   7.201   2.956   4.700 -0.0821 -0.2995 -0.0620
22327W        W38801   7.222   9.244   1.676 -0.0312 -0.2115  0.0045
22328W        W38802   2.881   1.983   2.002  0.1046 -0.2183 -0.0525
22329W        W38803  11.375   5.864   1.240  0.1806 -0.2158  0.0918
22330W        W38804   3.548  10.250  13.676  0.0419 -0.0877  0.2163
22331W        W38805  15.017  14.902   5.364 -0.0681  0.3034  0.1237
22332W        W38806   2.766  11.750  14.234  0.1590  0.0107 -0.0994
22333W        W38807  16.043   2.848  14.108  0.0170 -0.0250  0.5649
22334W        W38808   7.165   4.504   4.296  0.3179  0.0264 -0.0977
22335W        W38809   6.936   2.921   3.639 -0.1210  0.1747 -0.3660
22336W        W38810  13.466  15.707  14.853  0.0379  0.1922  0.0018
22337W        W38811   1.453  10.755  14.689 -0.1815  0.3063  0.0449
22338W        W38812  10.011  12.790  15.190 -0.1298 -0.2690 -0.0021
22339W        W38813  18.562   5.540  13.305 -0.0757  0.1222  0.1364
22340W        W38814  15.350   2.694   0.592  0.4035 -0.3135  0.0710
22341W        W38815   1.951   9.004  14.958  0.1373  0.1302  0.2135
22342W        W38816   8.986   6.225   2.117 -0.2415 -0.2656 -0.1561
22343W        W38817  16.849   1.135   1.045 -0.2485 -0.1087 -0.0461
22344W        W38818   5.464  17.857   2.648 -0.3313  0.0421 -0.1375
22345W        W38819  11.878   5.729  10.786 -0.0698  0.2973 -0.0777
22346W        W38820   1.582  11.139   4.636 -0.0514  0.1794  0.0739
22347W        W38821   5.916   9.977   1.255  0.0096  0.1689 -0.2708
22348W        W38822  14.722  14.324  13.560 -0.0310  0.1329  0.3423
22349W        W38823   5.295   3.955  14.971  0.2042  0.1364 -0.0495
22350W        W38824  10.695   4.842  13.940 -0.0919  0.0835 -0.2356
22351W        W38825  10.758   9.903   4.280 -0.0285  0.0295  0.0518
22352W        W38826  11.927   8.987   4.814 -0.1507  0.4918  0.0993
22353W        W38827   2.181   5.914  13.651 -0.0500 -0.0169 -0.0040
22354W        W38828   6.073   1.001  15.608 -0.2835 -0.1214 -0.2640
22355W        W38829  10.066  11.909  15.595 -0.1066  0.3286 -0.0599
22356W        W38830   6.999  14.793   1.512  0.3319  0.1235 -0.2145
22357W        W38831   6.063  18.736   4.892  0.2765  0.0788  0.2542
22358W        W38832  15.142  16.280  12.634  0.0574  0.0767 -0.0330
22359W        W38833   5.607  10.732   0.176  0.2650 -0.0530 -0.0061
22360W        W38834  14.784   0.034   0.782 -0.2147  0.3854 -0.1298
22361W        W38835  16.368   4.026  13.777  0.1467  0.0619 -0.0470
22362W        W38836   1.528   4.056  15.440  0.1149  0.1183 -0.0118
22363W        W38837  10.885   5.009   3.774  0.1880  0.0223 -0.0935
22364W        W38838   7.832   6.862  11.132 -0.4958  0.0591 -0.2511
22365W        W38839  11.992  13.394  12.109  0.1850 -0.1170 -0.1696
22366W        W38840   4.538  17.919   5.154 -0.1190 -0.0586  0.1910
22367W        W38841   6.144  17.927  13.157  0.0886  0.0542 -0.2582
22368W        W38842   4.163   4.512   3.686  0.0304  0.0162  0.0696
22369W        W38843  11.328   4.813   0.435  0.0183  0.1445  0.0657
22370W        W38844   4.833  14.461   3.571  0.1821  0.3213 -0.1119
22371W        W38845   4.621  10.171   3.288 -0.0213  0.0522 -0.0512
22372W        W38846   7.302   4.469  13.584  0.0816 -0.0585  0.1830
22373W        W38847   2.733  12.692  10.450  0.0504 -0.1329 -0.0905
22374W        W38848   7.391  13.182  15.099  0.1451  0.0062 -0.0227
22375W        W38849  10.663  14.991   2.476  0.1596  0.0560  0.0214
22376W        W38850   8.298   4.647   6.005 -0.5583  0.0858 -0.0150
22377W        W38851   9.046   4.903   5.699  0.2403  0.1135  0.0338
22378W        W38852  14.743   8.518  11.252 -0.0940  0.2010 -0.0589
22379W        W38853  15.825  11.421   3.011 -0.1770 -0.0698 -0.2880
22380W        W38854  17.181  17.955  12.776  0.0441  0.2626  0.2597
22381W        W38855   1.681  11.933  11.413 -0.0081  0.0581  0.0686
22382W        W38856  16.980   9.635   9.697 -0.2063  0.0290 -0.2331
22383W        W38857   4.631   3.824  13.802 -0.2369 -0.2494 -0.2821
22384W        W38858   8.391   9.846  12.304 -0.1094 -0.3199  0.0911
22385W        W38859  14.361  15.220   1.379 -0.0302 -0.1793  0.1883
22386W        W38860  14.804   1.426   1.122 -0.0117  0.1913 -0.0077
22387W        W38861   9.446   6.113   0.430  0.0471  0.1150  0.1914
22388W        W38862   1.899   8.540  12.515 -0.3968 -0.0115 -0.0239
22389W        W38863  15.775   4.879  11.288  0.0507  0.0171 -0.2759
22390W        W38864   1.557  18.489  11.009 -0.1489  0.1148 -0.0184
22391W        W38865   8.266   5.318   2.223  0.0608  0.1447  0.1917
22392W        W38866  11.275   5.230   3.061  0.0209  0.1287 -0.2066
22393W        W38867   2.115   4.073   0.560  0.0652  0.0276 -0.0745
22394W        W38868   1.429  18.761  12.788 -0.2844 -0.1559  0.1200
22395W        W38869   1.167  16.404  12.197  0.1294  0.1800 -0.0066
22396W        W38870   2.733   6.860  12.855  0.1242 -0.1049  0.2736
22397W        W38871  10.161   2.975  13.478 -0.1643  0.0039  0.0562
22398W        W38872   4.740   2.990   2.477  0.3650 -0.1183  0.0377
22399W        W38873  11.082   0.759   0.206 -0.0513  0.0692  0.0881
22400W        W38874  13.326  11.449   3.206 -0.0375  0.0010  0.1727
22401W        W38875   4.075  15.777  11.754 -0.2014 -0.0357 -0.0615
22402W        W38876   9.855   0.788   5.270  0.2428  0.1486  0.0900
22403W        W38877  18.466   5.635   2.048  0.2419  0.1607  0.2036
22404W        W38878   9.104  12.724  11.102 -0.3850  0.0012 -0.0098
22405W        W38879   9.103  12.280  11.275 -0.0211  0.1577  0.2630
22406W        W38880  16.171   9.053  12.784 -0.1897 -0.0428  0.1798
22407W        W38881   2.187  17.862   3.040  0.0466 -0.1026  0.2050
22408W        W38882  16.224   1.553   1.919  0.1765  0.1838  0.2495
22409W        W38883   3.984  10.058  11.744  0.0318 -0.1240 -0.0564
22410W        W38884   1.050  13.585   0.305  0.2041 -0.0783 -0.0640
22411W        W38885   6.115  10.995  11.320  0.1477 -0.0287 -0.2163
22412W        W38886   2.796  12.593   4.467 -0.0739 -0.2440  0.1345
22413W        W38887  17.088   7.257   2.379 -0.2125 -0.0005 -0.1600
22414W        W38888  12.093   6.017  12.525 -0.2527  0.0216 -0.1436
22415W        W38889   9.196   3.967   1.834 -0.1590 -0.2913 -0.0147
22416W        W38890   4.322  16.777   4.710  0.1288 -0.1945  0.0270
22417W        W38891   6.973   3.944   0.254  0.2387  0.0472  0.0493
22418W        W38892   3.518  17.436   1.341  0.0959  0.0484 -0.2104
22419W        W38893   2.088  15.139   2.662 -0.0508 -0.1976  0.1372
22420W        W38894  11.316  14.582  14.073  0.0911 -0.0539 -0.0030
22421W        W38895   6.337  11.270  12.700 -0.0619 -0.1021 -0.0450
22422W        W38896   6.135  12.724  15.601 -0.0376  0.1162  0.0009
22423W        W38897   1.037   8.911   4.528 -0.6048 -0.1779 -0.0281
22424W        W38898   4.875  11.126   5.055 -0.0779 -0.2753 -0.1577
22425W        W38899   8.563   4.316   2.458 -0.0366 -0.1614 -0.1304
22426W        W38900   7.801  17.343  14.079  0.1745 -0.1442  0.1740
22427W        W38901   2.715  16.948  14.236  0.0658  0.0014  0.1124
22428W        W38902  17.808  10.971   0.472 -0.1123 -0.1482 -0.2016
22429W        W38903  18.001   9.968  10.956  0.1764 -0.3704  0.0688
22430W        W38904   1.000  16.868   2.320  0.1835 -0.2914 -0.3101
22431W        W38905   6.630  13.431   4.081  0.0986 -0.0431  0.3330
22432W        W38906  15.279   0.179  15.476 -0.1558 -0.4434 -0.5019
22433W        W38907   8.323  14.853  14.186 -0.2611  0.0626 -0.4802
22434W        W38908  15.777  15.817  12.917  0.0434  0.2936 -0.1426
22435W        W38909   1.714   2.635   0.065  0.3382  0.3020 -0.4411
22436W        W38910   3.089   6.854   2.238 -0.2091 -0.1145 -0.1826
22437W        W38911   0.223   2.358   3.787  0.3241 -0.1137 -0.0448
22438W        W38912  13.411  10.748   2.277  0.0366  0.0024  0.0708
22439W        W38913   9.611   4.581   5.933 -0.1288  0.0221  0.1309
22440W        W38914  14.889   3.739   1.666  0.1223 -0.0043  0.0718
22441W        W38915  15.482  11.139  11.024 -0.0746  0.0536  0.3464
22442W        W38916  16.055   9.970  10.736  0.0248 -0.0133 -0.0827
22443W        W38917   1.262   7.596  11.220  0.0339  0.0231  0.1295
22444W        W38918  13.522  16.932  11.447  0.0098 -0.0692  0.1221
22445W        W38919  15.212   2.510   1.612  0.3422 -0.0393  0.4321
22446W        W38920   9.574  13.550  14.110 -0.0745 -0.0535 -0.0449
22447W        W38921  15.498   9.183  12.131  0.0976 -0.2972 -0.1740
22448W        W38922   5.042  11.400   0.757  0.0885 -0.0171 -0.0127
22449W        W38923   7.767   1.522  12.405 -0.0812 -0.2910  0.0740
22450W        W38924  13.416  15.671   2.228  0.3354  0.2174  0.1468
22451W        W38925   0.415  17.404   3.439  0.0344 -0.1995 -0.0100
22452W        W38926  14.861  13.464  12.367 -0.0312  0.3018 -0.2360
22453W        W38927   6.142   9.541  12.129  0.3558 -0.1465  0.3989
22454W        W38928   7.285  13.185   5.187  0.1667 -0.2194 -0.0435
22455W        W38929   3.834  13.862  13.435 -0.0162 -0.1183 -0.2291
22456W        W38930   6.450  14.575   3.252  0.4215  0.2018 -0.1132
22457W        W38931  18.225  16.253   0.109  0.0291  0.2933  0.1288
22458W        W38932   7.737   9.320   3.907  0.2120  0.2297 -0.0836
22459W        W38933   7.306  17.856   4.493  0.2206  0.3485 -0.2006
22460W        W38934  14.177   7.878  12.870 -0.1130  0.1266  0.0855
22461W        W38935   0.608   4.984  11.473 -0.1104  0.1587  0.2942
22462W        W38936  18.203   0.327   3.402 -0.2749  0.0125 -0.1568
22463W        W38937   2.192  18.449  11.674  0.0270  0.3100 -0.3150
22464W        W38938   2.692   0.368  12.176  0.0581 -0.3179  0.3162
22465W        W38939   8.226  17.622   1.239 -0.1406 -0.0228 -0.0032
22466W        W38940  10.881  12.415   3.765 -0.2232  0.0818 -0.1975
22467W        W38941  15.510  11.168  13.692  0.0499  0.3009  0.1083
22468W        W38942   2.604   2.420   1.023 -0.1458 -0.1335  0.0077
22469W        W38943   7.401   6.890   5.951  0.0810 -0.1318  0.0494
22470W        W38944  15.257   2.077   3.412 -0.4762  0.2075  0.1516
22471W        W38945  11.451   3.991   3.744 -0.2783  0.1482 -0.3402
22472W        W38946   5.158   7.604   3.773  0.1322 -0.1053  0.1652
22473W        W38947   5.761  12.310  11.295  0.0054 -0.2657 -0.4327
22474W        W38948  11.398   8.900   3.069 -0.5680 -0.2365  0.1370
22475W        W38949   4.471  18.505  14.944  0.0105 -0.3366 -0.1186
22476W        W38950   8.220   9.562   2.081 -0.2709 -0.0984 -0.1777
22477W        W38951  11.617   4.943   1.461 -0.2119 -0.0711  0.2982
22478W        W38952   1.008   0.313   1.121 -0.1474 -0.1061 -0.0189
22479W        W38953   9.816  18.422   3.298  0.1422 -0.0728 -0.1549
22480W        W38954   3.244  10.985  13.329 -0.0358 -0.0969 -0.0666
22481W        W38955   0.758  13.063   3.964  0.3681 -0.0604 -0.2024
22482W        W38956  14.510   7.434  14.419 -0.0054 -0.4046  0.1550
22483W        W38957  12.242   3.008   3.306  0.1734 -0.4577  0.1282
22484W        W38958   0.766   5.014  12.906 -0.0784 -0.3328 -0.1997
22485W        W38959  15.849   4.575   1.718 -0.0108 -0.2103  0.1963
22486W        W38960  16.029   7.016  15.386 -0.3840  0.2221  0.1182
22487W        W38961   3.449   7.596   1.125  0.1527  0.1001 -0.0972
22488W        W38962  12.160   5.765   2.036 -0.0537  0.0618 -0.2827
22489W        W38963  13.364  16.267   4.860 -0.2009  0.0894  0.1433
22490W        W38964  18.185  11.573  14.927 -0.1211 -0.0953 -0.2178
22491W        W38965   0.115   2.637   5.270  0.1635  0.2710 -0.1842
22492W        W38966   0.188  11.974   1.567  0.2268  0.0928 -0.1411
22493W        W38967  17.808  14.148  14.025  0.0341 -0.0112  0.1277
22494W        W38968  11.253   5.501  14.203 -0.0018  0.1632  0.1019
22495W        W38969  12.028   5.879  14.206  0.0815  0.2706 -0.1637
22496W        W38970   7.166  17.620   0.490 -0.1368 -0.1749 -0.0255
22497W        W38971  14.639  13.115  15.418  0.3295 -0.1427  0.2748
22498W        W38972  12.350   3.560  11.616  0.0257 -0.4102 -0.0443
22499W        W38973   2.691   2.786   2.612 -0.1052  0.3338 -0.0510
22500W        W38974   2.738   4.153  12.391  0.3921  0.4235 -0.2488
22501W        W38975   1.858   4.642   3.038  0.0489  0.2158  0.1176
22502W        W38976   5.539  14.236  13.583 -0.1703  0.1740  0.2426
22503W        W38977   9.046   3.021   0.630  0.0416  0.0898 -0.0636
22504W        W38978   8.254   6.659  12.916  0.1527 -0.0348  0.3557
22505W        W38979  11.809  12.000  14.765  0.2109 -0.4355 -0.2166
22506W        W38980  13.035  13.855  15.639 -0.0881  0.0105 -0.2412
22507W        W38981  12.898   2.154  12.117  0.0154 -0.1161 -0.1468
22508W        W38982  11.180   0.576  11.698  0.1173 -0.0079  0.0960
22509W        W38983  10.595   7.227   0.180  0.3744  0.0521 -0.0181
22510W        W38984   0.117  18.821   3.774 -0.0427 -0.0854 -0.1282
22511W        W38985   6.467  10.928   3.418 -0.1144 -0.2426 -0.1287
22512W        W38986  12.817  16.927   2.427 -0.1888  0.0172  0.0601
22513W        W38987   7.759   5.021   3.865 -0.1206 -0.0814 -0.1156
22514W        W38988   4.285  10.685  15.223  0.3229  0.1700 -0.0078
22515W        W38989  15.483  10.470  14.554  0.3202  0.3901  0.0028
22516W        W38990   3.773  11.797  11.172 -0.0273 -0.1228 -0.2873
22517W        W38991  11.033  15.441   0.194  0.2894  0.0763 -0.0089
22518W        W38992  17.996  10.632  13.511  0.0289 -0.1552 -0.1237
22519W        W38993   3.488  16.496  10.878 -0.1751  0.1082 -0.2515
22520W        W38994   5.451  15.107  14.061  0.1939 -0.4568  0.2975
22521W        W38995  14.755   3.808   3.730 -0.2693 -0.4365  0.2199
22522W        W38996  18.123  14.883  11.953  0.1900  0.1151 -0.0972
22523W        W38997  16.976   5.929  14.963 -0.1908 -0.0841  0.4036
22524W        W38998   0.476  15.850   4.327 -0.3147  0.1463  0.1529
22525W        W38999   4.088   7.071   1.645  0.0581  0.1145 -0.0546
22526W        W39000  11.991   9.863   2.243 -0.2065 -0.1544  0.2865
22527W        W39001   6.480  18.045   4.574  0.2818  0.1076  0.1478
22528W        W39002  10.437   1.400  13.022  0.1782  0.0284 -0.0691
22529W        W39003   1.189  12.158  14.739  0.0561  0.3991 -0.2617
22530W        W39004  13.045  18.762  12.447 -0.1247 -0.0275 -0.0910
22531W        W39005   1.509  14.508   2.240  0.1704  0.2088 -0.0127
22532W        W39006  10.907   5.368   3.397 -0.1640 -0.5689 -0.2097
22533W        W39007   7.705  15.356   1.998  0.3384 -0.1529 -0.0291
22534W        W39008  13.054   2.038   2.435 -0.0098 -0.0742 -0.3013
22535W        W39009   0.271  17.366  12.319  0.3080 -0.2209  0.0860
22536W        W39010  15.805  13.483  14.516 -0.0521 -0.0590  0.3422
22537W        W39011   8.897  18.667   5.984  0.2304 -0.2149  0.1018
22538W        W39012  17.961  11.220   0.049 -0.2556  0.1303 -0.0101
22539W        W39013   3.990  16.490   3.563 -0.0916 -0.1538  0.0737
22540W        W39014   7.993  12.982   4.005 -0.1644 -0.2849  0.0786
22541W        W39015  15.755   8.023  14.901 -0.0458 -0.2774  0.1799
22542W        W39016   5.058   1.631  12.954 -0.0483 -0.4779 -0.2496
22543W        W39017  17.220   5.554  12.162 -0.0756  0.0621 -0.0148
22544W        W39018  15.049   7.426   1.800 -0.0783 -0.0712 -0.3408
22545W        W39019  11.825   9.285   1.838 -0.1449 -0.2221 -0.4190
22546W        W39020  18.370   3.291   4.335 -0.0035 -0.1380 -0.0923
22547W        W39021  14.197  13.503  11.517  0.0008 -0.0369  0.0943
22548W        W39022   0.309   6.690   1.401 -0.3936  0.1133  0.2674
22549W        W39023   7.430   9.314  15.344 -0.1657 -0.0460  0.0037
22550W        W39024  18.000   4.698   0.467  0.0816 -0.0763  0.2962
22551W        W39025  13.710   4.447   3.386  0.5190  0.0748  0.1983
22552W        W39026  14.981  15.586  13.928  0.0079  0.0074  0.0804
22553W        W39027   8.875  18.382   1.549 -0.1970 -0.2502 -0.0372
22554W        W39028   1.920  17.013   2.589  0.3227 -0.2257 -0.3137
22555W        W39029  12.048   4.686   2.896  0.2933  0.3953 -0.0368
22556W        W39030   8.614   3.306   1.702 -0.0730 -0.3496  0.0913
22557W        W39031  16.477  14.532  11.700  0.0648  0.1907  0.3072
22558W        W39032  18.801   9.257   2.329  0.2063 -0.2303 -0.2604
22559W        W39033   5.533   9.367  14.750 -0.0134  0.1562 -0.0770
22560W        W39034   4.048   4.846   1.499  0.2604 -0.1807 -0.1668
22561W        W39035  15.378  16.512  12.962 -0.2120  0.1576  0.2714
22562W        W39036   9.897   7.385   4.121  0.1249 -0.0526  0.0411
22563W        W39037  17.837   0.429  10.749 -0.2376  0.1380  0.0137
22564W        W39038   1.313  15.213  12.738  0.2045 -0.1052  0.0586
22565W        W39039   4.717  16.675   2.645 -0.0778  0.0854  0.2970
22566W        W39040  12.996   5.494   3.081 -0.0629  0.2132 -0.0937
22567W        W39041   8.547   3.905  14.792  0.1022  0.0567  0.1295
22568W        W39042  18.177   1.319  10.359  0.2503 -0.0934 -0.2075
22569W        W39043   2.358  14.603  13.622 -0.0711 -0.2368  0.0122
22570W        W39044   0.452  16.638  11.171 -0.1175 -0.5341  0.0834
22571W        W39045   1.422   5.070   1.372  0.3607  0.0315  0.0627
22572W        W39046   1.455  17.950  12.032 -0.0815 -0.1930  0.2472
22573W        W39047   2.089  12.667  15.515 -0.2251  0.0171 -0.0608
22574W        W39048   1.744  12.319   5.862 -0.2050  0.1340  0.2038
22575W        W39049   2.639   8.386   3.275 -0.1620  0.1118 -0.1513
22576W        W39050   5.979   6.080   3.655  0.2535  0.1966  0.3039
22577W        W39051  14.296  17.977   2.504 -0.1030  0.3269  0.2666
22578W        W39052  14.001   3.970  12.400 -0.0547  0.2106  0.2341
22579W        W39053   9.524  12.655   5.714  0.1557  0.4080  0.1810
22580W        W39054   6.074   3.117   6.165 -0.1183 -0.0874 -0.2206
22581W        W39055   9.213   0.616  14.987  0.1736  0.0219 -0.2631
22582W        W39056  13.840   2.885  14.809  0.0246  0.2477  0.1412
22583W        W39057  11.430   9.463   3.849  0.0036 -0.1825  0.1218
22584W        W39058  17.188   7.402   3.404 -0.0503 -0.0071 -0.0875
22585W        W39059   5.849  17.128  12.475 -0.3530 -0.3304 -0.3745
22586W        W39060  12.500   1.710   4.113 -0.2486  0.3118  0.0834
22587W        W39061  17.724  12.534  14.837 -0.1243  0.0974 -0.1498
22588W        W39062   9.014  11.718   2.489  0.1774 -0.0117 -0.0339
22589W        W39063  15.617   8.078  10.628 -0.0572 -0.1036 -0.1703
22590W        W39064  18.796   3.042  12.786 -0.3597 -0.0709 -0.1848
22591W        W39065  15.118   3.000   0.910 -0.3095 -0.1441  0.1854
22592W        W39066   2.104   3.828   1.244  0.1356  0.1084  0.1275
22593W        W39067   0.578  18.187   0.898  0.1057  0.1646  0.1189
22594W        W39068  14.172  11.524  10.233 -0.0328  0.1244 -0.1870
22595W        W39069  17.581   5.555  10.310  0.1481  0.2917 -0.2990
22596W        W39070   3.965  12.049  14.912  0.4793  0.1012 -0.0086
22597W        W39071   1.549   6.972  11.940 -0.2625 -0.0414  0.0730
22598W        W39072   4.481   6.989  12.922  0.0810 -0.4205 -0.0099
22599W        W39073  16.981   1.801  10.160  0.0439  0.1659  0.1799
22600W        W39074   4.569   8.967   0.682 -0.0918  0.0853  0.0332
22601W        W39075   8.683  16.395  12.442  0.2333  0.0340 -0.2852
22602W        W39076   2.295  17.516  11.752 -0.0212  0.2579  0.0836
22603W        W39077   9.510   7.240   0.994  0.2939 -0.2702 -0.2982
22604W        W39078   7.455   1.230  12.699 -0.2623 -0.0855 -0.1394
22605W        W39079  12.594   7.542   3.018  0.0617 -0.0059  0.1130
22606W        W39080   1.524   1.699   1.175  0.0797 -0.0100 -0.2437
22607W        W39081   1.224  15.568  15.220  0.2464  0.2702 -0.0958
22608W        W39082  12.835  11.031   3.637 -0.2883  0.0758 -0.1116
22609W        W39083  15.168   6.928   5.774 -0.2614  0.0646  0.0828
22610W        W39084   6.522   3.618  13.455  0.0243  0.2276  0.1584
22611W        W39085   2.843  14.295   4.788  0.1712 -0.0912 -0.2147
22612W        W39086  17.659   3.838   3.307  0.0486  0.0985 -0.0499
22613W        W39087   2.095  12.629  14.994 -0.1403  0.0669  0.2497
22614W        W39088  13.484   1.790   2.292 -0.3260 -0.0368 -0.0735
22615W        W39089   6.283   0.377   4.055  0.4111 -0.2410 -0.0575
22616W        W39090   2.466  11.658   4.187 -0.3083 -0.1209 -0.0779
22617W        W39091   3.561   2.196   4.514 -0.2061  0.1760 -0.0689
22618W        W39092   4.750  18.551   0.776  0.0932  0.1224 -0.3895
22619W        W39093   3.302  17.975  14.506  0.0655 -0.1065  0.1156
22620W        W39094   8.289  18.774   0.598 -0.2337  0.0096  0.1016
22621W        W39095  11.168   9.099   4.497  0.3279  0.1552 -0.0970
22622W        W39096   1.627   6.065   3.890 -0.1684 -0.2585 -0.1113
22623W        W39097   6.331   2.760   2.761 -0.1099  0.2859 -0.3127
22624W        W39098  15.378   5.285   3.132 -0.1540  0.1137 -0.1581
22625W        W39099   6.167  13.901  12.482  0.2758 -0.0455  0.3111
22626W        W39100  11.271   6.048   0.271 -0.2372  0.0856  0.1261
22627W        W39101   4.009   8.285   2.018  0.0769 -0.1713 -0.3003
22628W        W39102  18.615  10.066   0.817 -0.0082  0.1413  0.1872
22629W        W39103  13.284   3.666  13.488  0.1331  0.0082  0.4334
22630W        W39104   7.120   6.657   0.012 -0.1199 -0.3780  0.0477
22631W        W39105  13.854   3.491  13.335 -0.2387 -0.2160  0.0636
22632W        W39106   7.048   6.107  12.489  0.4856  0.0743  0.0333
22633W        W39107  16.081   7.224   1.063  0.0601  0.0195  0.2292
22634W        W39108  13.461  10.035  14.734 -0.0313 -0.1613 -0.2607
22635W        W39109   6.513   9.193   2.291  0.0507 -0.2137  0.1140
22636W        W39110   4.922  17.232   0.949 -0.2648 -0.1008 -0.2909
22637W        W39111   5.158   3.021  14.044  0.1033  0.2713  0.2597
22638W        W39112  17.257  13.128   3.678  0.1917 -0.4107  0.2068
22639W        W39113  10.444   8.150  11.754 -0.1744 -0.0801 -0.0361
22640W        W39114   2.984  10.132   2.097  0.2159 -0.3529  0.2211
22641W        W39115  14.262  17.025   3.437 -0.1887  0.2563 -0.0912
22642W        W39116   0.701  17.602  12.343  0.4527  0.3556  0.2180
22643W        W39117  11.771   5.617   5.531  0.1664  0.0412 -0.1041
22644W        W39118   3.266   7.391   2.135 -0.5363  0.1339 -0.0750
22645W        W39119  15.773  15.836   2.465  0.0139  0.3437  0.0930
22646W        W39120  13.816   9.129   4.580  0.3134 -0.2799  0.2108
22647W        W39121  16.930   3.381  10.925 -0.0401  0.1061  0.1326
22648W        W39122  16.548   0.044  10.971 -0.0379  0.0445 -0.2275
22649W        W39123   8.355   4.647   0.089 -0.1345 -0.1769  0.1896
22650W        W39124  12.166   2.585   1.831  0.1227 -0.2530  0.2039
22651W        W39125  16.510   3.493  11.996 -0.2163 -0.2581 -0.1653
22652W        W39126   4.643  13.393  11.978  0.0612 -0.1122 -0.0986
22653W        W39127   1.198   6.379   2.147  0.3196 -0.2018 -0.1079
22654W        W39128  11.267  12.741   0.408  0.0484  0.0341  0.0013
22655W        W39129   1.690  15.265   3.328  0.0205 -0.3169  0.2106
22656W        W39130  14.187   3.501   1.700  0.2493 -0.0036  0.2403
22657W        W39131   1.820   5.223  14.531 -0.0503 -0.0043  0.0787
22658W        W39132  17.393   7.301  13.809  0.0679  0.2981 -0.0398
22659W        W39133   3.369   6.426   1.861  0.0533  0.1763  0.2818
22660W        W39134   2.530  18.511   6.150 -0.0651  0.0811  0.2549
22661W        W39135  12.889  15.051  14.981 -0.1881  0.1219 -0.0109
22662W        W39136  18.296  14.379  13.222  0.0871  0.0670 -0.0441
22663W        W39137  12.712  17.212  14.696 -0.0035 -0.2746 -0.1747
22664W        W39138  11.116   3.500  13.735  0.0385 -0.0483 -0.0686
22665W        W39139   0.013   8.068   2.521 -0.2820 -0.0183 -0.2828
22666W        W39140   1.895   6.049  14.648  0.2906  0.4055 -0.0818
22667W        W39141   0.532  14.316  13.109  0.3513  0.0044 -0.1763
22668W        W39142   3.537   4.051   0.009 -0.1473  0.0332  0.3234
22669W        W39143   2.581   1.030   4.856  0.2017 -0.1399 -0.0284
22670W        W39144  13.421  11.624   1.888  0.0096  0.1557  0.2390
22671W        W39145  10.464  16.188   1.278  0.1782 -0.1007 -0.1050
22672W        W39146  18.571  10.015   2.235  0.3215  0.2473  0.0698
22673W        W39147  16.720  11.256   2.618 -0.0880  0.1561  0.2097
22674W        W39148   6.088   3.251   3.651  0.1011 -0.2069 -0.1034
22675W        W39149  14.868   8.354   2.448  0.0215  0.1436  0.4947
22676W        W39150  12.497   5.904  14.442  0.0944  0.1244 -0.2480
22677W        W39151   5.790   9.185  14.379 -0.2075 -0.1093 -0.1095
22678W        W39152   8.666  13.740   5.911 -0.0738  0.0101 -0.1591
22679W        W39153   0.625   6.705  10.254 -0.2078  0.1275 -0.2901
22680W        W39154   9.255  10.404  11.600  0.2672 -0.1309  0.1616
22681W        W39155   5.687  15.685  12.741  0.0712  0.1111 -0.2151
22682W        W39156  13.725   4.358  13.168 -0.1140  0.0095 -0.0648
22683W        W39157  16.774  11.685   1.764  0.0169 -0.1628 -0.2338
22684W        W39158   0.111   8.056  14.313  0.0708 -0.0566 -0.2637
22685W        W39159   8.740  11.220  14.639 -0.2785  0.3148 -0.0686
22686W        W39160   6.854  10.926   4.908 -0.2295  0.1140  0.0134
22687W        W39161   4.240  16.828  14.547 -0.1484  0.2889 -0.0405
22688W        W39162  16.492  18.013  12.642 -0.4683 -0.0360  0.0821
22689W        W39163  13.818   7.978  13.467 -0.2258 -0.2646  0.0616
22690W        W39164   2.867  13.332   2.586  0.0821 -0.2649  0.0308
22691W        W39165  17.010   5.162   4.522  0.0616  0.0138 -0.1605
22692W        W39166   6.772   5.548   5.248 -0.0102  0.1248  0.0085
22693W        W39167  16.606   7.360  12.364  0.0011  0.1911  0.1954
22694W        W39168  10.591   4.841  11.324  0.0936  0.1212 -0.0978
22695W        W39169  17.453  16.976  12.311 -0.4080 -0.0453 -0.1097
22696W        W39170   2.271   7.126  11.414  0.1268 -0.1670  0.1343
22697W        W39171   4.392   7.047   5.388  0.0565  0.0040 -0.0191
22698W        W39172  11.284  10.679   2.867 -0.1339  0.0875  0.2086
22699W        W39173  11.822  14.748   4.275  0.2319  0.2069 -0.2255
22700W        W39174   3.194   7.628  10.941 -0.1322 -0.2384  0.2499
22701W        W39175   7.729   2.069  12.159  0.1975 -0.1285  0.3082
22702W        W39176   1.678   7.738  14.257 -0.0006 -0.1269  0.1744
22703W        W39177  11.287   1.176  14.703 -0.1109 -0.0379  0.0958
22704W        W39178  12.256   2.134  12.549  0.0570 -0.2118 -0.0967
22705W        W39179   9.673   8.942  14.827  0.0146 -0.0351  0.1100
22706W        W39180   0.206   6.132   1.138  0.1052  0.1879  0.1833
22707W        W39181   9.513  16.518   1.343  0.1555  0.3104  0.0546
22708W        W39182  13.010  12.252  15.076  0.2013  0.1618  0.2342
22709W        W39183   2.531   4.888  11.965  0.1389  0.3532 -0.1245
22710W        W39184   4.210   4.671  10.625 -0.2598 -0.2006  0.0302
22711W        W39185  15.003   6.754  14.098 -0.2108 -0.2521  0.1460
22712W        W39186   8.329   5.808   5.224  0.1138 -0.0370  0.0462
22713W        W39187  12.299  14.705   4.443  0.0694  0.3047 -0.3765
22714W        W39188  17.667   5.122  11.032 -0.2981 -0.0076  0.0992
22715W        W39189   7.126   4.916   5.801  0.0167 -0.1026 -0.0421
22716W        W39190   3.691   6.340  11.405 -0.0334 -0.1596 -0.0555
22717W        W39191   5.097   9.731  14.208 -0.0294  0.0541  0.0721
22718W        W39192   1.382   2.769  14.050 -0.3391  0.2591 -0.1584
22719W        W39193  14.339  18.430  11.129 -0.0120  0.0786 -0.1623
22720W        W39194   9.689  13.304   2.252  0.2300  0.2924 -0.1499
22721W        W39195   7.313   5.101   2.901 -0.0191 -0.0749 -0.0441
22722W        W39196   9.758   5.152   3.493 -0.2379 -0.0447 -0.5802
22723W        W39197  10.916  15.971   3.556 -0.3606 -0.1091 -0.0770
22724W        W39198   8.409  13.866   0.073 -0.3346 -0.1448  0.0438
22725W        W39199   4.065  17.753  11.513  0.0208  0.0011 -0.2475
22726W        W39200   2.752  18.059  14.456 -0.2138  0.2868  0.0222
22727W        W39201  13.096   5.908   1.444  0.1247  0.0815 -0.1475
22728W        W39202  18.122   3.584  14.856  0.0458  0.0729  0.1536
22729W        W39203  16.897   5.214  13.745  0.3013  0.1539 -0.0368
22730W        W39204   3.702  11.649  14.216  0.1752  0.0274 -0.0410
22731W        W39205  15.673   0.383   2.206  0.2837  0.2431 -0.0476
22732W        W39206  16.415   1.098  10.459 -0.3433 -0.1404  0.0963
22733W        W39207  18.775   8.394  10.902 -0.0719  0.0640 -0.0155
22734W        W39208   5.840  11.618  14.905 -0.1559 -0.0188 -0.1242
22735W        W39209   0.644   3.470  12.830 -0.2623 -0.1195 -0.2345
22736W        W39210  12.805  10.746  11.231 -0.1121 -0.0786  0.0158
22737W        W39211  14.104   5.120   3.790  0.1068  0.2026  0.0668
22738W        W39212  12.583  10.626   0.492  0.1800  0.3821 -0.2489
22739W        W39213  12.717  14.734   3.918  0.0694 -0.3487 -0.2003
22740W        W39214   4.895  13.002  14.305  0.0213 -0.4368  0.2581
22741W        W39215  16.256   0.630  14.751  0.0640 -0.0200 -0.1687
22742W        W39216   8.189   4.959   5.130 -0.0317  0.4406  0.2038
22743W        W39217   0.518   5.367  11.146  0.1392  0.3873 -0.1346
22744W        W39218   3.572   9.801  11.494 -0.1083 -0.1203  0.1932
22745W        W39219   3.468   8.412  13.605  0.3816 -0.1045 -0.0112
22746W        W39220  12.728  12.512  12.065 -0.0324  0.0377 -0.1030
22747W        W39221  13.758   8.717  11.959 -0.2308 -0.0842  0.1996
22748W        W39222   4.480   8.930  10.470  0.1063  0.1153 -0.0711
22749W        W39223   0.752  12.622   1.868 -0.0606 -0.0596 -0.0745
22750W        W39224   3.357   6.891  10.588  0.3622 -0.0771  0.3553
22751W        W39225   2.143  11.655  14.879  0.1160  0.0660 -0.0104
22752W        W39226   9.757   5.856   3.083 -0.1801 -0.0570 -0.2942
22753W        W39227   4.753  13.552   4.416 -0.2332 -0.0029 -0.0997
22754W        W39228  10.220  15.032   2.759  0.4092 -0.0662  0.0422
22755W        W39229   4.539   6.554  14.645 -0.3161  0.0571  0.1174
22756W        W39230   2.795   8.973  15.513  0.2003  0.0400  0.2166
22757W        W39231  17.288   3.932  13.657 -0.1104 -0.1936  0.0435
22758W        W39232   0.690  12.375  12.852  0.1829  0.0289  0.1468
22759W        W39233   7.033  15.555   5.098  0.0852 -0.1716  0.2960
22760W        W39234   6.657  15.950  11.535  0.0567 -0.1804  0.1405
22761W        W39235  12.477   3.821  15.182 -0.0779  0.0281  0.2826
22762W        W39236  14.599  14.362   4.839 -0.0691  0.0108  0.2856
22763W        W39237   6.795   2.380  14.664 -0.1953  0.2295 -0.0549
22764W        W39238  17.652  11.992   2.227 -0.0909 -0.0558 -0.1254
22765W        W39239  12.602  18.422  13.902 -0.1695 -0.3077 -0.1485
22766W        W39240  17.915   0.829   1.645  0.0745  0.2534  0.1139
22767W        W39241  15.046   5.516  12.912  0.0547  0.4656 -0.0552
22768W        W39242  15.511  10.741   5.140 -0.1222 -0.0784 -0.3606
22769W        W39243   9.633  10.132  14.320 -0.1538 -0.0784 -0.2678
22770W        W39244   8.230   6.405  13.363  0.0986 -0.1466 -0.2825
22771W        W39245   9.853   5.363  13.527  0.0187 -0.0484 -0.1892
22772W        W39246   2.689   7.385  15.540  0.3126 -0.0520  0.0057
22773W        W39247   2.739   8.429   3.757 -0.0442  0.3026  0.3604
22774W        W39248  15.398   3.374   3.022 -0.2506  0.0758  0.2431
22775W        W39249  11.204   4.187   4.481 -0.3266 -0.2589 -0.0608
22776W        W39250  14.580   7.468   1.529  0.1425  0.1944  0.2141
22777W        W39251  14.753   3.781   4.251  0.1763  0.1232 -0.0086
22778W        W39252  13.447   3.661   2.259 -0.2220  0.0313 -0.2306
22779W        W39253   4.346  13.137  11.642  0.0621 -0.3682 -0.0861
22780W        W39254   1.665   6.972   4.324 -0.0919 -0.0755 -0.5643
22781W        W39255  17.262  11.219  10.467  0.2642 -0.1977  0.0205
22782W        W39256   6.678  12.941   4.449 -0.0526  0.1146  0.2011
22783W        W39257  15.240   7.175  10.721  0.3923  0.0897 -0.1454
22784W        W39258  17.209  15.889  13.442  0.2468  0.2863  0.0003
22785W        W39259   0.062  18.781  15.200 -0.1489  0.0019  0.0136
22786W        W39260   2.008   0.987  14.800 -0.1477 -0.4985  0.1314
22787W        W39261  15.896   9.320   3.631 -0.3515 -0.1857  0.0582
22788W        W39262   6.270  11.767   4.500 -0.3258  0.3071  0.2412
22789W        W39263   3.553  15.844   3.068  0.2223  0.1834 -0.1160
22790W        W39264  13.822   1.836  12.067  0.1185 -0.2357 -0.1171
22791W        W39265  11.638   1.023   1.208 -0.1730 -0.0865  0.0140
22792W        W39266   3.970  15.604   3.303  0.0906  0.2737  0.1788
22793W        W39267  11.151  11.026  13.893 -0.0392  0.0667 -0.0899
22794W        W39268   4.977  12.520   0.289 -0.2333  0.4284 -0.1062
22795W        W39269  15.149  12.556  13.450  0.1663 -0.3711  0.2020
22796W        W39270  16.338   4.942   4.322  0.3500  0.0552  0.1952
22797W        W39271   8.481   1.050  15.382  0.0040 -0.1630 -0.2363
22798W        W39272   1.006  11.067   5.410 -0.5363 -0.0792 -0.3949
22799W        W39273   3.324  15.869   1.266 -0.1679 -0.2459 -0.2646
22800W        W39274   5.223  17.172  13.668 -0.1856 -0.0112  0.1415
22801W        W39275   5.559  15.833   1.518 -0.0475  0.0524 -0.1409
22802W        W39276   6.260  14.851   4.108 -0.0373 -0.0631  0.1311
22803W        W39277   7.094   7.658   0.674  0.3510  0.1207  0.0093
22804W        W39278   8.525  14.784   2.327 -0.2048  0.1072  0.2971
22805W        W39279  12.625  16.447   0.328  0.1182 -0.1548 -0.1951
22806W        W39280   5.969   1.173  12.756  0.1721 -0.0688 -0.1588
22807W        W39281   8.002   6.212  14.474  0.1528 -0.0368 -0.0825
22808W        W39282  17.869  13.585  13.859 -0.1586  0.0020 -0.1950
22809W        W39283  10.125   7.244   2.901 -0.0475  0.1996 -0.0358
22810W        W39284  18.097   3.229  13.462  0.1414  0.2199 -0.3596
22811W        W39285   7.215  14.747  14.448 -0.2043 -0.0873 -0.3137
22812W        W39286   8.161   4.604   1.526 -0.1664 -0.4512 -0.1080
22813W        W39287   8.442  13.243  15.050 -0.2049 -0.1020  0.2306
22814W        W39288   2.850  12.475  12.549 -0.0402 -0.3008  0.1070
22815W        W39289  18.558   6.279   1.390 -0.1670 -0.3148  0.0397
22816W        W39290  13.430   1.356  15.048  0.0503  0.1906  0.1312
22817W        W39291  15.715  15.087   2.441  0.0486  0.2422  0.0468
22818W        W39292  12.822  11.510   3.449 -0.3030  0.0868  0.2108
22819W        W39293  14.293   2.003  11.316 -0.2251 -0.0067  0.1498
22820W        W39294  10.708   1.468   5.356  0.2892  0.2731 -0.2237
22821W        W39295  10.837   0.869  14.048  0.3442  0.0584  0.3587
22822W        W39296   5.038   1.970   2.243 -0.0636 -0.1036  0.1626
22823W        W39297  14.740   4.421   1.104  0.1564 -0.0684  0.0175
22824W        W39298  16.112   7.490  13.718 -0.1586 -0.1766 -0.1294
22825W        W39299   4.552   8.265  11.114 -0.2681  0.2790  0.1399
22826W        W39300  17.164  15.866   3.474 -0.2026  0.0166  0.0427
22827W        W39301  16.152   1.762   1.116 -0.3775  0.3161 -0.1167
22828W        W39302  10.067  12.262  15.189  0.3489  0.2915 -0.0871
22829W        W39303  10.705   9.469  15.572  0.1654  0.1425 -0.0138
22830W        W39304  16.293   6.888  13.127 -0.0620 -0.2426  0.2680
22831W        W39305   6.353   6.965   0.611  0.0027  0.1151  0.1299
22832W        W39306  12.917   3.199  12.203  0.2103 -0.2743 -0.3612
22833W        W39307   3.339   9.876   3.077 -0.0018 -0.1685  0.0359
22834W        W39308   3.677  17.589   4.112  0.2346 -0.0109  0.1259
22835W        W39309  14.599   7.047  13.501  0.0293 -0.2068  0.1848
22836W        W39310  11.895  12.562   2.676 -0.1963  0.0003 -0.0176
22837W        W39311   8.655  11.619  11.494 -0.0078  0.0503 -0.0840
22838W        W39312   5.851   5.044  13.804  0.0120 -0.2373 -0.1803
22839W        W39313  14.215   1.844   2.723 -0.2161 -0.0128  0.1628
22840W        W39314  14.538   1.749  12.464  0.1156  0.0130  0.2354
22841W        W39315   7.181  18.577   5.330  0.3798 -0.1884 -0.1311
22842W        W39316  14.408  16.890  10.833 -0.2651 -0.1077 -0.0148
22843W        W39317  16.292  13.709   5.056  0.1951 -0.2041  0.0245
22844W        W39318   6.792   0.564   1.684 -0.1195  0.4543  0.1736
22845W        W39319  11.243  10.400   5.881 -0.2060 -0.0222 -0.1324
22846W        W39320  16.419   0.928  11.282  0.1307 -0.3245 -0.0640
22847W        W39321  13.104   6.452  14.515 -0.3488  0.0700  0.1002
22848W        W39322  13.210   7.841  11.640 -0.1026  0.0548 -0.1013
22849W        W39323   8.385  11.634  13.795 -0.0424 -0.1654 -0.1376
22850W        W39324   6.785  14.347   4.567 -0.1852  0.2713  0.1238
22851W        W39325   5.133  14.866  15.670  0.0937  0.0361  0.1153
22852W        W39326   7.423  13.117   0.245 -0.0150 -0.1079 -0.0330
22853W        W39327  15.424   7.625   5.054 -0.0429  0.2222  0.0309
22854W        W39328   3.199  15.613  14.753 -0.1261 -0.4770  0.0787
22855W        W39329   5.756   0.215   4.708 -0.0758 -0.0080  0.0110
22856W        W39330   8.891  14.811  10.940 -0.0578  0.4144 -0.2095
22857W        W39331   3.168  11.650  13.928  0.2974  0.2146 -0.0987
22858W        W39332   4.513  12.832  14.093  0.1667 -0.1558  0.0284
22859W        W39333  14.830   0.548   4.818  0.1772 -0.3781  0.0182
22860W        W39334  14.613   0.638  12.317 -0.1164  0.1357 -0.0426
22861W        W39335  15.825   6.241   0.547 -0.3098  0.0409  0.0505
22862W        W39336  18.351  13.656   1.220  0.0129 -0.1592 -0.0885
22863W        W39337   5.016  18.122  12.519  0.2437 -0.3375 -0.0461
22864W        W39338  17.455   8.249   5.321 -0.1203 -0.0665 -0.1671
22865W        W39339  12.627   1.294  12.182  0.0089 -0.1913 -0.1343
22866W        W39340   2.640  16.843   1.688  0.2741  0.0455  0.3344
22867W        W39341   5.906  12.087   1.700 -0.0164 -0.0296 -0.3900
22868W        W39342   4.139  13.127   3.874 -0.0259  0.6879  0.0145
22869W        W39343  10.621  17.019   0.252  0.1939  0.0986  0.1068
22870W        W39344  14.861  11.418  13.608 -0.0009  0.0910  0.0524
22871W        W39345   2.037   2.604   3.357 -0.1310 -0.1312  0.0816
22872W        W39346  12.594   6.355   4.191 -0.1902 -0.1266  0.2364
22873W        W39347  12.911   8.051  12.035  0.0326  0.1384 -0.0032
22874W        W39348   5.965   4.481   0.849  0.3731  0.1324  0.1087
22875W        W39349  18.471  13.659   3.523  0.1334 -0.2118 -0.1736
22876W        W39350   0.001   4.553   0.255  0.1927  0.0013 -0.1129
22877W        W39351   5.288  15.826   5.344  0.1013 -0.0005 -0.2003
22878W        W39352   0.096  18.385   2.772  0.0247 -0.3090  0.0024
22879W        W39353  17.033   4.489  10.822  0.4319 -0.1262 -0.2756
22880W        W39354  13.567   3.762  12.530  0.3428 -0.4853  0.0413
22881W        W39355   0.910   7.818   2.300 -0.2161 -0.0979  0.2215
22882W        W39356   7.611  10.124  14.179 -0.1084  0.2174 -0.3537
22883W        W39357  16.263  12.448   5.235 -0.1980  0.1413 -0.1218
22884W        W39358  17.836   6.539   4.148 -0.0965 -0.1528 -0.2229
22885W        W39359  12.624  15.958   4.160 -0.0360 -0.3429  0.0140
22886W        W39360   7.313  12.766  12.242  0.0241  0.0975  0.4515
22887W        W39361   3.657  14.878   1.968  0.0012  0.0505 -0.2689
22888W        W39362  15.678   9.690  10.885  0.0678  0.3039 -0.0542
22889W        W39363   6.616  13.413  11.958  0.0673 -0.0105  0.2189
22890W        W39364   4.497   2.764  12.655  0.1427  0.1475  0.2877
22891W        W39365   0.760   5.994   1.352 -0.0602  0.2243  0.2199
22892W        W39366  17.633  11.493  14.991 -0.0078 -0.2324 -0.0520
22893W        W39367   6.814   5.942  12.935 -0.3682 -0.1701  0.0695
22894W        W39368   0.214   9.368  11.208  0.1763 -0.1353  0.3967
22895W        W39369  14.195   9.167   1.180  0.0377 -0.3357 -0.0114
22896W        W39370   9.788   2.640   4.175  0.1088 -0.2494  0.2278
22897W        W39371  15.065   9.615  13.363 -0.2390  0.3391 -0.2842
22898W        W39372   9.269  10.418   1.517 -0.0339 -0.2142 -0.1059
22899W        W39373  14.727  18.152  11.089 -0.1291 -0.0949  0.1640
22900W        W39374   6.131  15.749  11.391  0.1225  0.0389 -0.0253
22901W        W39375   9.718   2.958   3.230 -0.1113  0.1940 -0.4260
22902W        W39376  14.431   0.427  11.721  0.1735 -0.1946 -0.1503
22903W        W39377   0.656   6.790   4.792  0.0993 -0.0227 -0.0729
22904W        W39378  16.762  16.218   1.541  0.1315 -0.0103  0.2317
22905W        W39379   1.424  16.810  13.145 -0.1649  0.2794 -0.2429
22906W        W39380  14.912   4.753  11.945  0.0258 -0.1142 -0.2007
22907W        W39381  15.737  13.880  11.519  0.1395 -0.0153 -0.3384
22908W        W39382   7.874  15.498  13.117  0.0750  0.0054 -0.0836
22909W        W39383  10.339   4.819  11.829  0.1470  0.0765  0.0986
22910W        W39384   2.321   3.152   1.951  0.0087 -0.0970  0.2475
22911W        W39385  12.814  13.163   5.190 -0.3291 -0.1527 -0.1119
22912W        W39386  13.175  14.416  12.604 -0.0435 -0.0243 -0.3067
22913W        W39387   7.180   2.683  12.479 -0.1153  0.0373 -0.1905
22914W        W39388  11.663   1.903   4.104  0.0742  0.2999  0.1730
22915W        W39389   6.707   1.763  15.384  0.1987 -0.2226  0.2237
22916W        W39390  15.534   7.530   3.809  0.2222  0.1208 -0.1729
22917W        W39391   0.639  18.601   0.435  0.3146 -0.0081 -0.4088
22918W        W39392   0.684  13.029  14.399 -0.1087  0.2257  0.0860
22919W        W39393   3.127   4.449  11.443  0.2605 -0.3521 -0.3293
22920W        W39394  12.608  15.980  14.954 -0.1018 -0.1579 -0.3851
22921W        W39395   3.946  10.948  15.453 -0.3375 -0.2354  0.0694
22922W        W39396  17.281   5.454   2.539 -0.0682  0.1874  0.0112
22923W        W39397   4.620   7.037   2.892  0.2802 -0.0556  0.2523
22924W        W39398  18.543  11.740  10.714 -0.0390  0.1299 -0.0399
22925W        W39399   8.005   9.142  13.776 -0.1136  0.0549 -0.1902
22926W        W39400  16.922  14.345   0.245 -0.4167  0.0056 -0.0339
22927W        W39401   9.173  15.599  15.670  0.2111  0.2849 -0.0904
22928W        W39402   6.252   3.331   1.783 -0.2140  0.1587 -0.1128
22929W        W39403  13.419  18.674  10.971 -0.0931  0.3039  0.0234
22930W        W39404  15.919   9.366   0.545 -0.2150 -0.2832 -0.1275
22931W        W39405   5.129   0.547  11.724 -0.1694 -0.0086 -0.0318
22932W        W39406   4.936   8.115   0.943 -0.4411 -0.0018 -0.2135
22933W        W39407   4.467   3.598  13.332  0.1334 -0.0760  0.2107
22934W        W39408   7.100  14.577   4.897 -0.0434 -0.0930  0.0739
22935W        W39409   3.180  15.073   2.933 -0.0983  0.0625 -0.1774
22936W        W39410  16.552  12.876  11.249  0.0506  0.0256  0.0989
22937W        W39411  18.381   1.061   1.568  0.0509  0.2313  0.1269
22938W        W39412   6.695   7.896   0.507 -0.0905  0.3379 -0.4467
22939W        W39413  15.302  18.022   4.318  0.3001 -0.1723 -0.0222
22940W        W39414  12.405  16.320   2.483  0.3164 -0.0941 -0.2906
22941W        W39415   8.611   4.670   4.402 -0.1936  0.1131 -0.1698
22942W        W39416   9.919   6.498   6.178  0.1251  0.1897 -0.3871
22943W        W39417  17.690  11.236  14.223  0.0016  0.4166 -0.2839
22944W        W39418   0.828   4.054  10.919  0.0914 -0.0036  0.2710
22945W        W39419   2.077   2.627  15.337  0.0968 -0.3230  0.1584
22946W        W39420  17.706   2.821  15.255 -0.1480  0.1263  0.2650
22947W        W39421  10.015  13.950  13.645 -0.1959  0.0639 -0.1986
22948W        W39422   0.309  10.297  14.445  0.1418 -0.0657  0.3570
22949W        W39423  10.465   8.546   4.287 -0.0968  0.1742  0.2089
22950W        W39424   3.195   2.352   1.013 -0.0386  0.2102  0.5176
22951W        W39425  17.492   2.338   2.007 -0.1549 -0.1466 -0.4146
22952W        W39426  16.473   7.996   3.414 -0.0359 -0.0496  0.4642
22953W        W39427   9.905  11.007  13.618  0.1350 -0.0860  0.1535
22954W        W39428   8.857  16.817  12.574 -0.1245 -0.1411  0.0402
22955W        W39429   1.930   4.344   4.230  0.0746 -0.1806 -0.0370
22956W        W39430   1.875   8.126   2.131  0.1085  0.2355  0.0654
22957W        W39431  15.156  14.610   0.528 -0.1929  0.2711 -0.0957
22958W        W39432  13.692  16.239   0.643 -0.0600 -0.0592 -0.1325
22959W        W39433  15.590  17.723   2.068  0.1270 -0.2328 -0.0260
22960W        W39434  15.506  11.958  13.173 -0.1225 -0.0144  0.0994
22961W        W39435   8.712  12.792  11.940  0.3012 -0.0275 -0.1571
22962W        W39436  18.716   0.319   2.014  0.2354 -0.0885  0.0733
22963W        W39437   8.242   2.749  13.555  0.1669  0.2893  0.1558
22964W        W39438  10.791   0.535   5.613  0.2042 -0.0945  0.0529
22965W        W39439  14.936  13.537  14.132  0.2893 -0.1274  0.0706
22966W        W39440   0.663  10.794  11.910 -0.1023  0.2338 -0.0407
22967W        W39441   3.530   0.382  13.617  0.2074 -0.1670 -0.2742
22968W        W39442   1.791  15.289   4.798  0.0477 -0.0388  0.0514
22969W        W39443  15.059   6.836  12.228  0.0865 -0.0329  0.1324
22970W        W39444   5.566   0.761   4.262 -0.0153 -0.3676 -0.1092
22971W        W39445   1.053  16.011   1.655 -0.0985 -0.2459 -0.5604
22972W        W39446  13.792   1.100   0.283 -0.0794 -0.2742  0.0457
22973W        W39447  12.521  13.773   0.385  0.1792  0.4879 -0.4977
22974W        W39448  10.266   9.550  12.269  0.1211 -0.0561 -0.0162
22975W        W39449   2.498  10.724  11.191 -0.2199 -0.2917  0.0562
22976W        W39450   7.149  11.348   4.983  0.0401  0.2550  0.3464
22977W        W39451  13.570   1.982  10.754 -0.1806  0.1284  0.0388
22978W        W39452  12.552   5.333  14.087  0.2252  0.3183 -0.3001
22979W        W39453   3.462   9.814  10.496  0.0873 -0.0527  0.1223
22980W        W39454   5.865  14.977   2.651 -0.1691  0.1591 -0.0280
22981W        W39455  18.836   8.898  11.251  0.1152  0.1590 -0.2521
22982W        W39456   8.779  11.709   3.715 -0.0126 -0.0171 -0.1698
22983W        W39457   5.733   6.324  12.129 -0.0294  0.1262  0.0111
22984W        W39458  16.930   5.951   0.569  0.0464  0.0786  0.0907
22985W        W39459   9.851  16.942   1.534  0.3192 -0.3704  0.1707
22986W        W39460   2.410   2.374  11.823 -0.1918 -0.0071 -0.1402
22987W        W39461  14.180  13.029  15.305 -0.0058 -0.0701  0.0546
22988W        W39462   6.866   4.726   2.944 -0.1670  0.2212 -0.1225
22989W        W39463   9.248  18.616  10.739  0.0573  0.1470 -0.2068
22990W        W39464  10.832   2.135   4.694  0.0841 -0.1495  0.2305
22991W        W39465  10.757   2.094   4.153 -0.0677 -0.1673 -0.0714
22992W        W39466   8.193  15.295   4.124 -0.0631 -0.0307  0.1893
22993W        W39467  11.360   6.822  11.486 -0.1646  0.1921  0.2781
22994W        W39468  15.874  15.251   3.248  0.2239  0.0050  0.1312
22995W        W39469   5.498  17.204   3.870 -0.0425  0.2696  0.0172
22996W        W39470  14.558   3.357  15.612 -0.3497  0.6207  0.1908
22997W        W39471   5.070   1.315   4.594 -0.1328  0.2112 -0.0332
22998W        W39472  12.546   7.892   5.378  0.1512 -0.3859 -0.0778
22999W        W39473  17.034  10.396   4.485 -0.1721 -0.1951 -0.0189
23000W        W39474   5.195   6.604   3.675 -0.0312 -0.3937  0.2624
23001W        W39475  16.265  11.697  10.507 -0.1340 -0.0246  0.1409
23002W        W39476  12.526  15.473  15.026 -0.1474  0.1977 -0.1664
23003W        W39477  16.765  15.143  12.266 -0.1613  0.1147 -0.1331
23004W        W39478   9.680   8.356  15.071  0.3238 -0.1953  0.2466
23005W        W39479  16.006  17.765   0.063 -0.2352 -0.1448 -0.2542
23006W        W39480   7.596   5.762  11.974 -0.0447 -0.1500  0.1032
23007W        W39481  13.153   4.152  13.804  0.3263 -0.1056  0.0468
23008W        W39482   3.543  16.678  15.194 -0.0954  0.0546 -0.2142
23009W        W39483  16.842  14.442  13.578  0.1552  0.1023  0.0755
23010W        W39484  15.754   7.732   4.178  0.2373  0.0119 -0.1910
23011W        W39485   5.839  16.402  11.354 -0.0756  0.3688  0.0370
23012W        W39486   1.429   2.412  10.791 -0.0141  0.1417 -0.0134
23013W        W39487   2.706  16.207   3.425 -0.3439  0.0215 -0.1336
23014W        W39488  15.408   4.176  11.224  0.0905 -0.2239  0.0882
23015W        W39489  15.332  10.127   2.085 -0.1371 -0.2531  0.0110
23016W        W39490   3.896  17.632   3.659  0.0532 -0.1190  0.1952
23017W        W39491  17.452   5.369   4.280  0.2053 -0.1049 -0.0022
23018W        W39492   9.072  16.663  12.110  0.2093 -0.2621  0.3677
23019W        W39493  10.112  11.560   4.807  0.1089  0.1536  0.0608
23020W        W39494   6.572  17.428   1.210 -0.0530  0.2553 -0.3078
23021W        W39495   9.972  12.056  12.583 -0.0040  0.2653 -0.0194
23022W        W39496  15.215   7.140   1.007 -0.2650 -0.4898  0.1281
23023W        W39497  10.348  18.171   2.839  0.0808  0.1286 -0.0553
23024W        W39498   0.675   1.253  15.121  0.2092 -0.2982  0.0451
23025W        W39499  12.042   4.764  13.333 -0.2192  0.2676  0.0133
23026W        W39500   4.184   5.654  10.987  0.3237  0.1732  0.0123
23027W        W39501   1.663   5.015  11.485  0.0188  0.1303 -0.0569
23028W        W39502   6.340   3.654   3.883  0.1165  0.2701 -0.1209
23029W        W39503   3.420  10.636  11.862  0.1892 -0.1553 -0.2062
23030W        W39504  18.001   6.575  13.181 -0.1392 -0.1148  0.1607
23031W        W39505  16.355   5.566  15.042  0.0866  0.0470  0.1464
23032W        W39506   9.681  10.537   2.402 -0.2243  0.3335  0.0162
23033W        W39507   2.430   9.001   3.281  0.2252  0.0230  0.1152
23034W        W39508   2.522  12.977   2.500  0.1848 -0.0963  0.1755
23035W        W39509  18.685   5.663  10.630  0.0118 -0.1698  0.1691
23036W        W39510   4.379   6.767  12.109 -0.1430 -0.1039 -0.2055
23037W        W39511   0.145  14.407   4.215 -0.0192 -0.2976 -0.0204
23038W        W39512  18.434  10.290  12.709 -0.1936 -0.1424 -0.3634
23039W        W39513  15.221   1.738   3.020 -0.2594  0.3064 -0.0693
23040W        W39514  11.071  16.565   1.813  0.0870  0.1537  0.1351
23041W        W39515   2.885  12.117   4.667 -0.0852 -0.0014  0.1334
23042W        W39516  11.881  10.063   1.120  0.0612 -0.0052  0.0869
23043W        W39517   4.401  15.818   2.507 -0.1077 -0.1950  0.0503
23044W        W39518   0.187  14.594  14.099 -0.1173 -0.1699 -0.0416
23045W        W39519   7.511  14.137   0.422 -0.0047  0.0627 -0.1261
23046W        W39520   8.826   2.056  11.713 -0.1833 -0.0757  0.0294
23047W        W39521   8.443   7.466   3.089 -0.0709  0.0700 -0.0929
23048W        W39522   8.132  14.737   1.984 -0.0112 -0.1967  0.2155
23049W        W39523   4.450   5.489   1.774  0.3851 -0.3496 -0.2042
23050W        W39524   4.597   9.289   1.917 -0.0362  0.1153  0.3371
23051W        W39525   8.443   7.672  15.236  0.1287 -0.1841  0.0277
23052W        W39526  14.677  15.985   4.290 -0.1697  0.0058 -0.2082
23053W        W39527   7.241   4.280   5.250  0.0901 -0.1742 -0.1180
23054W        W39528   0.847   0.736   1.260 -0.0420 -0.1445 -0.1984
23055W        W39529   9.095  11.521   1.648  0.0919 -0.0020  0.1265
23056W        W39530   7.062   1.238   1.521 -0.0106  0.0320  0.0409
23057W        W39531   1.535  11.845  15.482 -0.3624 -0.0989 -0.0250
23058W        W39532   7.221   2.526   3.721  0.0367  0.2819  0.4576
23059W        W39533  13.869   7.007  11.247 -0.2900 -0.1168 -0.1480
23060W        W39534  17.945  18.028  12.005 -0.2018  0.0077 -0.0539
23061W        W39535   3.241   3.869  13.283 -0.3096 -0.0888 -0.1893
23062W        W39536   3.301  13.171   2.176 -0.0748  0.0165 -0.0112
23063W        W39537   6.717   6.254  11.760  0.3137 -0.5886  0.1412
23064W        W39538  10.998   6.521   4.319 -0.3471  0.1479 -0.2490
23065W        W39539  18.052  11.956  11.817 -0.2050  0.1357  0.0879
23066W        W39540  10.687   8.752  14.234  0.0591 -0.0265 -0.1128
23067W        W39541   1.864   9.156  10.528  0.1340 -0.1965  0.2441
23068W        W39542   0.370   7.766   1.608  0.1066  0.0309  0.1013
23069W        W39543   0.807   8.023   5.167  0.0779 -0.0380 -0.1111
23070W        W39544   5.006  11.900   0.841  0.0512  0.1293  0.2536
23071W        W39545  14.875  18.765   1.836 -0.1925 -0.4960  0.2319
23072W        W39546   2.999  12.050  12.202  0.2426 -0.0385 -0.0978
23073W        W39547  16.860   9.415   2.138 -0.0476  0.0567 -0.1372
23074W        W39548   8.183  10.092   1.714  0.0899  0.2061  0.0542
23075W        W39549  13.565  16.980   1.909 -0.1574  0.0155  0.0242
23076W        W39550   0.990  13.575  13.138 -0.7475  0.2740  0.0579
23077W        W39551   7.149  11.919   4.242  0.2002  0.0703  0.0592
23078W        W39552   4.504   9.514   4.744 -0.0429  0.0205  0.3900
23079W        W39553   0.772   0.265  15.068 -0.2960  0.0313  0.0132
23080W        W39554   1.268   5.204  11.808 -0.1918  0.1246  0.0274
23081W        W39555   9.813  15.979  15.404 -0.0862 -0.0548  0.3232
23082W        W39556   9.662   6.568   0.626  0.2201 -0.3330  0.3805
23083W        W39557   3.266   1.543   0.440  0.3314 -0.0903 -0.0138
23084W        W39558   2.911   3.031  14.072  0.0183  0.2191  0.2873
23085W        W39559  16.851  13.090   0.452  0.0754  0.1429  0.0627
23086W        W39560  15.896  17.696  14.965  0.1748 -0.0672  0.1190
23087W        W39561  14.017  15.271   2.270 -0.1916  0.1166 -0.2411
23088W        W39562   5.017  10.762   0.790 -0.2110  0.1370  0.2548
23089W        W39563   7.625   3.012   4.393 -0.0361 -0.2128  0.2663
23090W        W39564  10.344  13.679  12.008 -0.5557  0.3359  0.0773
23091W        W39565   4.920  10.584   4.783  0.0161 -0.0526  0.0757
23092W        W39566  18.580  12.934   4.322 -0.1110  0.5072  0.1308
23093W        W39567  11.543  11.728  12.355  0.0080  0.0312  0.0169
23094W        W39568  11.554   7.522  13.409 -0.0194 -0.0868 -0.1868
23095W        W39569   3.608   8.610  12.646  0.0961  0.3064 -0.3439
23096W        W39570  17.444  14.444  14.952 -0.2123 -0.3073  0.0324
23097W        W39571  12.352   4.109  12.777  0.0206 -0.1021  0.1749
23098W        W39572  14.541  16.167  14.361 -0.1930 -0.2038 -0.0151
23099W        W39573  14.009  17.037   3.868  0.3316  0.1420  0.0660
23100W        W39574   4.713  12.188   1.851 -0.2736  0.1354 -0.2328
23101W        W39575   6.822   3.689  10.840 -0.0287  0.2802  0.0263
23102W        W39576   1.374  13.689  13.432 -0.0102 -0.1444 -0.1245
23103W        W39577   2.214  18.395  14.801 -0.1178  0.0908 -0.0159
23104W        W39578  13.304  14.736  14.875 -0.2107 -0.4009 -0.0230
23105W        W39579  10.815   6.865  11.642  0.0331 -0.1094 -0.0310
23106W        W39580  12.317  16.345   0.700 -0.0856  0.0962 -0.1026
23107W        W39581   5.228  15.832   3.798 -0.0680 -0.1076  0.0551
23108W        W39582  17.360  16.168   0.818 -0.0738  0.2389  0.3648
23109W        W39583   1.863  17.900   2.213  0.2191  0.0050 -0.0184
23110W        W39584   5.090   0.253  12.483 -0.0582  0.0620  0.3482
23111W        W39585  11.389   7.631   4.886  0.3333 -0.0951  0.2464
23112W        W39586  14.438  15.227  11.518 -0.0571 -0.2937 -0.0199
23113W        W39587   4.573  11.224  11.040 -0.0002  0.2434 -0.1751
23114W        W39588  17.745  17.370  14.508 -0.4037 -0.0326 -0.1868
23115W        W39589   4.078  18.036  12.224 -0.0098  0.1306 -0.0065
23116W        W39590   5.074   8.300   0.321 -0.1624  0.0032 -0.0683
23117W        W39591  15.594  16.788  15.637  0.0063 -0.1221  0.0287
23118W        W39592  13.979  15.246   4.045  0.0126  0.3504 -0.2019
23119W        W39593  11.774   0.471  13.982 -0.0508  0.0031  0.0210
23120W        W39594  12.298   8.867   0.425  0.1118  0.0955  0.0649
23121W        W39595  11.930   9.212   0.619 -0.0740 -0.0775  0.2091
23122W        W39596   0.549   7.181   3.655  0.0623 -0.1724  0.1041
23123W        W39597  10.234  10.916  13.948  0.0742 -0.1587  0.2018
23124W        W39598   9.862   6.277  14.766 -0.0466  0.0972 -0.2205
23125W        W39599   7.266  17.700   3.006 -0.0160 -0.1089 -0.0394
23126W        W39600   7.082  10.069   2.441 -0.0332 -0.1997 -0.4515
23127W        W39601  15.417  13.226  13.490  0.0527 -0.1390  0.5127
23128W        W39602  16.208   8.917  10.672 -0.0677 -0.1128  0.1377
23129W        W39603  15.583  12.281   1.404  0.1737  0.1961  0.0205
23130W        W39604  17.306   4.729   3.753  0.3013  0.3324 -0.0058
23131W        W39605  15.061   5.439  10.420 -0.2445 -0.0012 -0.1598
23132W        W39606   4.981  11.299  15.510 -0.0595  0.3133  0.3788
23133W        W39607  18.143  13.836  10.782  0.2445 -0.0966 -0.2923
23134W        W39608  14.622   3.194   0.426 -0.2169  0.1281  0.0231
23135W        W39609   2.539   6.152   0.569 -0.2934  0.0186  0.1860
23136W        W39610  14.441  13.298   1.182 -0.0612  0.0567  0.0821
23137W        W39611   7.900   7.572  13.855  0.1379 -0.2239 -0.0669
23138W        W39612   2.485  12.473  11.370 -0.1007 -0.1145  0.1756
23139W        W39613   0.583   2.055  11.727 -0.0129 -0.4252 -0.1539
23140W        W39614  15.174   1.581   4.286 -0.0524 -0.1195  0.2536
23141W        W39615  14.989   9.675   1.296  0.3086  0.0290 -0.2011
23142W        W39616   5.673   7.000   1.290  0.1190 -0.0528 -0.3767
23143W        W39617  15.000   9.440   0.067  0.2034 -0.0619  0.3978
23144W        W39618   0.939   6.164   2.540  0.1478  0.2804  0.0076
23145W        W39619   6.370   8.542  12.423 -0.1777  0.0212  0.2063
23146W        W39620  16.832  17.019   4.556  0.1051  0.1661  0.2304
23147W        W39621  15.963   9.276   2.262  0.1023 -0.0100 -0.1651
23148W        W39622   5.441  14.893   1.884  0.1941  0.2236 -0.1318
23149W        W39623   5.926  10.121   0.493 -0.2488 -0.2970  0.1762
23150W        W39624  14.680   5.364   0.080  0.1759  0.3880  0.1506
23151W        W39625   9.993  13.718  15.662  0.2400  0.3005  0.0195
23152W        W39626   4.704  10.151   4.729  0.0679  0.1439 -0.0931
23153W        W39627   4.038   1.229   3.007 -0.1359 -0.0573  0.2172
23154W        W39628   3.281  18.333   4.726 -0.2286  0.1948 -0.0630
23155W        W39629  13.946  10.701   2.167 -0.0482  0.0941 -0.0627
23156W        W39630  11.851  15.684  12.066  0.2057  0.0546 -0.1800
23157W        W39631   4.887  13.526  13.270 -0.1598 -0.1560 -0.0426
23158W        W39632  15.700  12.136   4.640  0.0524 -0.0179 -0.1785
23159W        W39633  18.383  15.559  12.465  0.2556 -0.1833 -0.4493
23160W        W39634  12.228   2.522   2.437  0.2663 -0.1131 -0.1093
23161W        W39635  12.780  10.706  12.030 -0.1635  0.0826 -0.0269
23162W        W39636  16.495   0.122   1.849  0.0117 -0.0132 -0.3094
23163W        W39637   8.668  13.719  14.161  0.0770  0.1132 -0.1102
23164W        W39638   4.773  15.988  14.779  0.1473 -0.0814  0.2757
23165W        W39639  12.723   5.908   1.832 -0.1384  0.1151  0.0471
23166W        W39640   9.077   7.417  11.320  0.4044 -0.2040  0.0861
23167W        W39641   3.880   2.542   1.570  0.2369  0.2789  0.0810
23168W        W39642   5.647   5.744   1.033 -0.3377  0.0138 -0.1158
23169W        W39643   7.560  14.873   5.110 -0.1333  0.3996 -0.0588
23170W        W39644   7.188   4.261  11.690 -0.0764 -0.3136  0.0572
23171W        W39645  17.238  13.374   1.874  0.1254  0.1712 -0.0279
23172W        W39646  14.672  10.896  10.666  0.2831  0.1433 -0.3172
23173W        W39647   4.153   5.099  14.698  0.2881 -0.1306 -0.0673
23174W        W39648   6.522  15.072   3.436 -0.4057 -0.3704 -0.1653
23175W        W39649  12.765  11.710   5.323 -0.0541 -0.0733 -0.3151
23176W        W39650   4.941   2.121  14.482  0.0413  0.2780 -0.0136
23177W        W39651   6.980   6.150   3.500  0.3006  0.0141  0.0630
23178W        W39652  11.363   0.093  11.542 -0.0758  0.3309 -0.0974
23179W        W39653  11.696  17.767  12.934  0.0881  0.0469  0.2863
23180W        W39654   4.723   7.358   3.939  0.2595 -0.0795 -0.0668
23181W        W39655   8.000   6.448   0.178  0.1879  0.0481  0.2834
23182W        W39656  14.069   3.954  14.162 -0.1289  0.0230  0.1945
23183W        W39657  15.127  18.004  13.175  0.0493 -0.0608  0.0769
23184W        W39658   9.392   5.264   0.699  0.2008  0.2347  0.3418
23185W        W39659   0.078   7.840   3.937 -0.0480  0.0249  0.1319
23186W        W39660  17.840  15.491  15.108  0.2433 -0.1235 -0.2040
23187W        W39661   1.806   9.461   4.811 -0.0846 -0.1690  0.1400
23188W        W39662  12.932  15.228   5.186 -0.2241 -0.0089  0.1650
23189W        W39663   0.577   4.933  10.970  0.2153 -0.1429  0.3675
23190W        W39664  17.630   9.843   4.931 -0.2463 -0.0941 -0.2016
23191W        W39665   7.680  17.117  15.531  0.2664  0.3045  0.5039
23192W        W39666  14.919   6.970   3.154  0.0447 -0.2865  0.3035
23193W        W39667   4.108  10.293   4.503  0.1741 -0.1963 -0.0958
23194W        W39668   5.243  12.299  13.826 -0.0397 -0.0204 -0.0971
23195W        W39669  12.850  16.278   3.817 -0.1129 -0.0156  0.0492
23196W        W39670  17.602  11.697  14.520  0.4249  0.1374  0.0407
23197W        W39671  13.219  11.572   2.370 -0.1446 -0.2074 -0.1446
23198W        W39672   6.255  18.764   2.026  0.2616 -0.2598 -0.0589
23199W        W39673   0.318   9.637   4.499 -0.0236 -0.0862 -0.2052
23200W        W39674   0.787  10.855  11.439  0.2629 -0.2556 -0.0784
23201W        W39675  17.461   4.985  15.510 -0.2325  0.1567  0.0023
23202W        W39676  14.041   5.671   3.040 -0.1201 -0.2418  0.3423
23203W        W39677   5.966  10.114   3.288  0.2178 -0.1050  0.0084
23204W        W39678   7.130  16.463  13.299 -0.2383 -0.1437 -0.0080
23205W        W39679  10.615   2.909  14.912 -0.2871 -0.3602 -0.1686
23206W        W39680  10.760   6.828   5.754 -0.3585  0.1035 -0.2356
23207W        W39681   9.998  13.949  12.393 -0.1516  0.1967  0.1501
23208W        W39682  16.570  15.737   2.105 -0.0489  0.0448 -0.2119
23209W        W39683   7.918   8.938  13.315 -0.0405 -0.1795  0.1081
23210W        W39684   2.170  10.418  13.870 -0.0098  0.0712  0.2410
23211W        W39685   7.449   0.130   1.604 -0.0413  0.1747  0.0230
23212W        W39686  18.382   3.038   2.860 -0.1767 -0.1050 -0.0598
23213W        W39687  15.459  16.639   2.862  0.4295 -0.0854  0.0107
23214W        W39688  10.843   9.526   1.027 -0.0498  0.0776 -0.0474
23215W        W39689  16.581   0.710  11.955  0.2085  0.4009  0.0099
23216W        W39690   2.195   9.785   4.684 -0.3526 -0.0835  0.0443
23217W        W39691  14.294   0.857   3.725 -0.2197 -0.2495 -0.0451
23218W        W39692  10.324   8.861   0.959 -0.1042  0.0574 -0.0431
23219W        W39693   5.596  18.745   0.581 -0.2246  0.0152  0.0553
23220W        W39694  11.583   2.595  12.525 -0.1219 -0.0830  0.4574
23221W        W39695  18.630  17.934   4.446  0.0087  0.0216  0.0660
23222W        W39696   3.450  14.226  11.178  0.0025  0.0851 -0.1795
23223W        W39697   0.469   8.155   3.667 -0.1696 -0.0523 -0.2647
23224W        W39698   3.544   3.794   0.895 -0.2703 -0.2676 -0.1010
23225W        W39699  16.418   2.836  13.788  0.0907 -0.0814  0.3966
23226W        W39700  18.042  11.565  11.466 -0.2464 -0.0797  0.2283
23227W        W39701  14.661   7.502  14.903 -0.0176  0.0738  0.3277
23228W        W39702   5.277   7.248  13.041  0.1608 -0.0697 -0.2995
23229W        W39703  18.783  12.806  14.360  0.0890  0.1717  0.2961
23230W        W39704   0.641   2.361   0.871 -0.1566  0.4603  0.1867
23231W        W39705   8.344   8.690  11.451 -0.0295  0.1424 -0.1843
23232W        W39706   9.858  17.517  13.480 -0.0050  0.5402  0.1405
23233W        W39707  10.684  16.468  14.873  0.1409  0.1526 -0.1022
23234W        W39708   2.500  15.156  11.338  0.2836  0.1989  0.0600
23235W        W39709   5.755  12.979   3.314  0.0419  0.2627  0.1067
23236W        W39710  13.956   7.164  11.708 -0.1923 -0.0350 -0.1373
23237W        W39711  15.552   8.490   2.877 -0.0064  0.0522 -0.0002
23238W        W39712  16.700  12.406  14.717  0.0680 -0.1833 -0.0165
23239W        W39713   3.665  11.614  13.512  0.1206 -0.0633 -0.1465
23240W        W39714  17.380   0.325  10.828  0.0580 -0.0555 -0.1825
23241W        W39715  18.057  17.704  11.202  0.1611  0.0649 -0.1307
23242W        W39716   8.490  15.530  13.494 -0.1162  0.0014  0.0869
23243W        W39717   5.795   0.490  11.361  0.0682  0.2188 -0.1223
23244W        W39718   7.048   9.627  15.635  0.1037  0.0833  0.1045
23245W        W39719   5.401   6.021   2.963 -0.3043 -0.3360 -0.1250
23246W        W39720   6.089   1.964   3.260 -0.3291 -0.1164 -0.0918
23247W        W39721  13.971  17.747   0.512 -0.0807  0.1142  0.0662
23248W        W39722  18.834   9.725   2.523 -0.1574  0.0135 -0.1005
23249W        W39723   5.215   9.172  13.085  0.1451 -0.0941 -0.0702
23250W        W39724   8.908   9.830   2.142  0.2975 -0.0792  0.3095
23251W        W39725  10.700   7.678   1.862 -0.0699  0.1353 -0.0207
23252W        W39726  15.721   0.302  12.857 -0.2953  0.3291 -0.2516
23253W        W39727   4.637   1.709   5.441 -0.1709  0.0925  0.0163
23254W        W39728   9.847   4.307  14.219  0.1983 -0.2204 -0.0483
23255W        W39729   8.197   2.557  12.430  0.0327  0.2295  0.0732
23256W        W39730  14.183   9.452   3.258 -0.1350  0.2565 -0.0084
23257W        W39731  18.566   2.766  15.360 -0.0827 -0.1093 -0.2142
23258W        W39732   6.465   8.118  14.783  0.1004  0.1648 -0.2302
23259W        W39733  18.154   5.147  11.730 -0.1776 -0.0205  0.1822
23260W        W39734  10.058   9.113   2.226 -0.1009  0.2438 -0.2095
23261W        W39735   6.114  14.170   2.463  0.0239 -0.3888 -0.0730
23262W        W39736  18.062  14.818  15.293  0.2983  0.0702 -0.0915
23263W        W39737  10.750   4.671   2.500 -0.1834  0.3492 -0.1542
23264W        W39738   4.541  11.636  13.415  0.0077  0.1403 -0.1206
23265W        W39739  18.616   1.076  12.683 -0.0227  0.1488 -0.2077
23266W        W39740  18.584  14.735   0.703  0.2399 -0.1898 -0.0479
23267W        W39741  14.832   8.961   2.700  0.0063 -0.4148 -0.0416
23268W        W39742   2.947  17.742  13.623 -0.2717 -0.0829 -0.4592
23269W        W39743  16.487  13.621  14.399  0.1789  0.1472 -0.2447
23270W        W39744  14.169  16.864   0.510  0.0023  0.2637  0.1535
23271W        W39745  11.876   8.988  15.134 -0.1512  0.0621  0.0602
23272W        W39746  15.370   2.858  14.411  0.0004 -0.1662  0.2906
23273W        W39747   7.191   6.546   0.877 -0.3056 -0.2463 -0.2048
23274W        W39748   8.989   0.066  11.120  0.0674 -0.0828  0.0149
23275W        W39749  18.028  18.717  12.620 -0.3635  0.1011 -0.0084
23276W        W39750   0.706   7.407  13.759  0.0979 -0.2125 -0.0918
23277W        W39751   8.214  11.960   1.159  0.3221  0.0978  0.0488
23278W        W39752   0.416  16.981   3.143 -0.0400  0.1805 -0.3165
23279W        W39753   2.290  10.034   2.312 -0.1286 -0.0373  0.1793
23280W        W39754  12.851  10.644  14.171 -0.1673  0.1240  0.2243
23281W        W39755  14.273  15.763  14.695  0.1424 -0.1653 -0.1786
23282W        W39756  12.975   1.103   2.285 -0.1649  0.2516 -0.2196
23283W        W39757   6.721  14.059  14.981  0.0493  0.2837  0.3032
23284W        W39758   5.307   8.739   2.333 -0.1748 -0.1416 -0.2219
23285W        W39759  12.266   1.572   2.877  0.0772  0.2036 -0.2456
23286W        W39760   9.618  18.722  13.982 -0.1850 -0.5383  0.1700
23287W        W39761  12.511  11.872  12.706  0.3003  0.0424 -0.2862
23288W        W39762  13.650  11.797   3.946  0.0132  0.0850 -0.3233
23289W        W39763   8.852   0.789  11.505 -0.0498  0.1966 -0.0952
23290W        W39764   3.311   5.894   0.304  0.2938  0.0603  0.3731
23291W        W39765   1.627   3.817  12.115  0.0534 -0.0863 -0.1904
23292W        W39766   7.653  15.339   5.010  0.1765  0.0492  0.0632
23293W        W39767  13.799   2.140  14.509 -0.0923 -0.1575 -0.3986
23294W        W39768  11.427  14.506   4.439 -0.0052  0.2170 -0.0961
23295W        W39769  12.266   6.190  15.081  0.2072  0.1178 -0.0967
23296W        W39770   4.859  16.259  15.179  0.1628 -0.2094 -0.1773
23297W        W39771  18.484   3.271   0.995  0.1207 -0.1293  0.1312
23298W        W39772   2.107   9.552  12.199  0.1621  0.1691 -0.1425
23299W        W39773   9.328  13.293   5.058 -0.2594 -0.0476  0.2151
23300W        W39774   5.084  16.772   0.818 -0.2537 -0.1068  0.0251
23301W        W39775  11.016  17.284   0.565  0.1754  0.1867  0.0076
23302W        W39776   6.062  17.977   4.202  0.1669 -0.5288 -0.0863
23303W        W39777  10.163   0.911  10.488  0.0443  0.0317 -0.7054
23304W        W39778  13.550   7.031   3.384 -0.2881  0.0892  0.1550
23305W        W39779  17.308  15.658  12.458 -0.2628  0.0863  0.0452
23306W        W39780   0.374   4.553  11.496 -0.0501  0.2199  0.1794
23307W        W39781  10.956  12.974  15.149 -0.2067  0.0758 -0.1018
23308W        W39782  12.993   3.838   2.342  0.0492  0.3121  0.0531
23309W        W39783   0.065   0.342   3.351  0.1964  0.1071  0.1855
23310W        W39784  17.058  14.522   4.181 -0.2926  0.1394  0.1180
23311W        W39785   7.336  14.441   2.953  0.0335  0.0244 -0.1694
23312W        W39786   5.304  14.389   1.929 -0.0255 -0.0466  0.3406
23313W        W39787  16.377  13.002  11.770  0.0926 -0.0866 -0.0059
23314W        W39788   1.881   1.602  14.899 -0.1338  0.1458  0.0862
23315W        W39789  11.737   0.605  15.292 -0.2973 -0.2026 -0.0922
23316W        W39790  14.914   2.730  15.309  0.0559 -0.1342  0.0233
23317W        W39791   3.716  11.504   1.230  0.3013 -0.0341  0.2072
23318W        W39792   2.726  14.763   2.043  0.1283  0.1667  0.0580
23319W        W39793   6.222   7.336  13.630  0.0846  0.0617 -0.1031
23320W        W39794  14.523   7.083   2.956  0.2671 -0.0656  0.4644
23321W        W39795  12.199   1.655  12.665  0.1654 -0.1252 -0.1035
23322W        W39796  13.201   1.305   4.499  0.1600  0.1199  0.3147
23323W        W39797  17.039   1.056  14.528 -0.0475 -0.2014  0.0156
23324W        W39798  17.818  13.314   1.915 -0.0252 -0.2085  0.0910
23325W        W39799   4.150   6.124   4.380 -0.0347 -0.0798  0.1717
23326W        W39800  13.854   1.523   2.474  0.0854  0.1871  0.0294
23327W        W39801   1.519   8.390   4.331 -0.2869  0.4181 -0.5121
23328W        W39802  16.684   1.335   1.463 -0.3266  0.1361  0.1626
23329W        W39803   7.682   0.165  15.352 -0.2138 -0.2368 -0.1326
23330W        W39804  12.584   2.890   3.858  0.1387 -0.0042 -0.1120
23331W        W39805  10.104  13.539   4.063  0.2558 -0.0477  0.0939
23332W        W39806   0.379  18.680  11.801  0.1534  0.3290  0.1762
23333W        W39807   5.317   7.481  12.592 -0.0572 -0.1729  0.0964
23334W        W39808   0.520   8.048  15.087 -0.2878 -0.0488  0.1188
23335W        W39809   8.918  18.085   2.061  0.2578  0.2310  0.2192
23336W        W39810   7.387   9.111  12.619 -0.1945 -0.1411  0.1790
23337W        W39811  15.276  14.703   1.017 -0.0380  0.1476 -0.2853
23338W        W39812   0.430   4.466   1.972  0.1793 -0.0897  0.2917
23339W        W39813   2.700  17.631  12.614 -0.0070 -0.3341  0.3073
23340W        W39814   1.645   8.744   3.519  0.0019 -0.3145 -0.0270
23341W        W39815   1.047   0.722  11.160  0.0228  0.2468  0.1236
23342W        W39816  13.786  15.274  14.401  0.0081  0.1734  0.3735
23343W        W39817   7.016  10.464   0.224  0.1346 -0.1133  0.1557
23344W        W39818  15.679   1.656   1.132 -0.3343 -0.2029  0.1672
23345W        W39819   3.250  10.135  14.965 -0.0240  0.2138  0.0450
23346W        W39820   6.213   7.779   1.754 -0.2003  0.0682 -0.1467
23347W        W39821   1.595   8.612   2.120 -0.1538 -0.2996  0.2502
23348W        W39822   2.425   3.157   0.359  0.0524  0.3535 -0.1977
23349W        W39823  12.858   2.639  15.293 -0.0114  0.1300  0.0408
23350W        W39824   0.491  13.091  10.600  0.1757 -0.0175 -0.1209
23351W        W39825   7.479  16.979   2.949 -0.1356 -0.3858 -0.4486
23352W        W39826  10.372  18.756  11.394 -0.1577  0.0423  0.3003
23353W        W39827   7.596  11.583   4.212  0.0893  0.2666 -0.0307
23354W        W39828   2.065  16.855  10.700 -0.1430 -0.3204  0.2062
23355W        W39829  14.993   0.166   4.401  0.1853  0.0451  0.4175
23356W        W39830  13.086   2.350  11.641 -0.0472 -0.1251  0.1414
23357W        W39831   4.107   4.819   4.094 -0.1597  0.3174  0.2305
23358W        W39832   8.111   1.035  14.136  0.1429  0.1709  0.1236
23359W        W39833  10.203   9.795  15.524  0.1579  0.0837 -0.1319
23360W        W39834  10.134   4.392   4.838  0.1963  0.2437 -0.0361
23361W        W39835   1.765   9.772   2.647 -0.1126 -0.2497  0.3026
23362W        W39836  15.958   7.700   0.269  0.1703  0.3613 -0.1116
23363W        W39837  12.338  16.609   3.350  0.0437  0.1498 -0.2704
23364W        W39838  12.718  17.601  14.374 -0.2076  0.2308  0.3190
23365W        W39839   1.677  16.196  11.850  0.2516  0.3160  0.0064
23366W        W39840   0.540   1.646  15.536 -0.1415  0.1655  0.0378
23367W        W39841  18.601   5.346  12.245  0.1546  0.2116 -0.0899
23368W        W39842   5.840   3.277   1.999  0.4499 -0.2579 -0.1385
23369W        W39843  14.057  18.570   0.363  0.1567 -0.1441 -0.0614
23370W        W39844  13.731  15.004  11.529 -0.2945  0.1759 -0.0179
23371W        W39845   1.710  13.525  12.512  0.0341  0.1350  0.1576
23372W        W39846   6.105  12.547   0.956 -0.0221 -0.1300  0.2086
23373W        W39847   7.650  15.389  11.454  0.3998  0.0477  0.0413
23374W        W39848   4.044   2.432  11.029 -0.3431  0.0286  0.3564
23375W        W39849   5.341  10.918   3.622  0.0505 -0.0425 -0.0704
23376W        W39850   7.742  16.756  11.367 -0.0879 -0.2352  0.0596
23377W        W39851   2.647  18.070  12.346 -0.0737  0.0171 -0.5466
23378W        W39852   0.326   3.476  13.774 -0.2216 -0.2070  0.2983
23379W        W39853  15.093   1.318  11.775  0.1073 -0.0207 -0.1272
23380W        W39854   2.961   8.008  15.061  0.2478 -0.0665  0.0820
23381W        W39855  12.201  16.888   1.301  0.1137 -0.0629 -0.0767
23382W        W39856  12.319  11.781  10.649 -0.1120 -0.4931 -0.1834
23383W        W39857  17.777   7.493  11.014 -0.4440 -0.2545  0.4642
23384W        W39858   9.538  16.362   0.110 -0.1582  0.2459  0.3000
23385W        W39859   8.410   0.432  12.470  0.1056  0.0580  0.0558
23386W        W39860   5.900  16.671  12.625  0.0127  0.4954 -0.1552
23387W        W39861   8.487  15.210   0.521  0.0615  0.0802  0.2918
23388W        W39862   8.615  16.003   0.055 -0.0099 -0.0813  0.1436
23389W        W39863  16.596   2.623  13.316  0.1272 -0.0227  0.1055
23390W        W39864  11.614  13.346   2.232 -0.1896 -0.3762 -0.0668
23391W        W39865  15.046   6.343   5.582 -0.0562 -0.0825 -0.0843
23392W        W39866   0.081   2.016  12.506  0.1426  0.1311 -0.0366
23393W        W39867  12.159  15.868  12.455  0.1647  0.1547  0.1236
23394W        W39868   6.165  10.153  13.534  0.3158 -0.1520  0.2313
23395W        W39869  17.021   5.652  10.415  0.3090 -0.1477 -0.2303
23396W        W39870   8.965  10.673   1.110 -0.1466  0.2447 -0.0089
23397W        W39871   6.032  14.279  13.166 -0.2095  0.5208 -0.1795
23398W        W39872  12.160  10.579   4.727  0.1588 -0.4680  0.2504
23399W        W39873   6.778   7.974  13.930  0.3220 -0.0128 -0.2029
23400W        W39874   2.257   1.083   0.041  0.1733  0.2823  0.0662
23401W        W39875   6.623   2.647   2.317 -0.0740 -0.1685  0.0066
23402W        W39876  18.676   8.500   1.740  0.3317 -0.3491 -0.0039
23403W        W39877  15.895  12.783   9.395  0.0813 -0.0038  0.4017
23404W        W39878  16.317   9.012   2.548 -0.0016 -0.2846 -0.2101
23405W        W39879  15.375   3.810  13.279 -0.0592 -0.2666 -0.2758
23406W        W39880  16.153   9.400  11.865 -0.2050  0.1276  0.0132
23407W        W39881  12.653   3.655   4.601 -0.0186 -0.2608  0.1072
23408W        W39882   1.828   3.055  14.041  0.0332 -0.0228 -0.2420
23409W        W39883   8.179  10.890   0.177  0.0728  0.3242 -0.1504
23410W        W39884   1.350  16.301  14.800 -0.0077 -0.1586 -0.0564
23411W        W39885  16.763   7.238  12.990  0.1853  0.0112  0.1958
23412W        W39886  10.726   2.862   4.110 -0.0657  0.0478  0.3413
23413W        W39887  11.775   4.161  15.398  0.1526  0.2895 -0.1454
23414W        W39888  10.413  17.441   6.229 -0.2350  0.1651  0.0408
23415W        W39889  17.473   8.078  14.088 -0.3958  0.2961  0.3745
23416W        W39890   3.942  13.349  11.346 -0.3059 -0.0654  0.2342
23417W        W39891  12.018   4.663   1.390 -0.3827 -0.1116  0.1261
23418W        W39892   0.115  17.303  15.147 -0.3108 -0.1210 -0.5194
23419W        W39893  14.320  10.140   5.124  0.1412 -0.2036  0.2079
23420W        W39894   8.066   8.463  15.690 -0.2196  0.1145 -0.1865
23421W        W39895   9.972  15.184  13.054 -0.0334 -0.0422  0.0949
23422W        W39896  14.213   0.124   3.087  0.4006 -0.1174  0.0591
23423W        W39897  12.225  11.242  14.515 -0.1224  0.3106 -0.0492
23424W        W39898   6.601   4.830  13.451 -0.1485  0.0524 -0.2864
23425W        W39899   0.894   5.742  14.225 -0.1302 -0.2331  0.1325
23426W        W39900  12.179   7.860   0.532  0.0046 -0.1059  0.1703
23427W        W39901   4.754  10.201   0.196  0.1786 -0.3435  0.4118
23428W        W39902   3.084   0.390   3.525  0.0789  0.0738 -0.1887
23429W        W39903  10.215   4.412  10.172 -0.1652 -0.1353  0.1211
23430W        W39904   9.954  13.145  13.980 -0.0241  0.0953 -0.2253
23431W        W39905  16.244   3.894   0.773  0.0422  0.0168  0.1422
23432W        W39906  13.978  17.315   5.685 -0.1156 -0.0434 -0.3523
23433W        W39907  14.808   4.254  10.961  0.0971  0.0828 -0.2958
23434W        W39908   8.531   1.137   5.118  0.0867  0.0800 -0.4508
23435W        W39909  11.006   4.705  13.545 -0.0013  0.2199  0.2679
23436W        W39910  12.137   7.163   4.671  0.1368  0.2911 -0.2886
23437W        W39911   6.270  15.865  14.923  0.3429  0.2599  0.2924
23438W        W39912  12.195  11.758  11.627 -0.3330  0.3284 -0.1369
23439W        W39913  18.620  16.705   0.959 -0.1497 -0.0505  0.2558
23440W        W39914  18.472   1.387   0.195  0.2202 -0.1057  0.3180
23441W        W39915  11.274   8.601   3.456 -0.0303  0.4446 -0.1786
23442W        W39916   2.608  11.648   3.675 -0.1727  0.0151 -0.5542
23443W        W39917  14.246  13.102  11.887 -0.2950  0.1127  0.3662
23444W        W39918   6.299   3.187  14.556 -0.1283 -0.0347 -0.3060
23445W        W39919  14.736   8.723   4.398  0.0210 -0.2159 -0.1314
23446W        W39920  16.704   6.978   1.630 -0.2852 -0.2080  0.4981
23447W        W39921  13.201   9.224   1.437 -0.0849  0.0060  0.1006
23448W        W39922  11.934   3.917  12.004  0.4228  0.0863  0.2635
23449W        W39923  11.233  17.664   2.081  0.2645 -0.2853  0.3679
23450W        W39924  14.107   5.034  12.936 -0.3491  0.1112 -0.0029
23451W        W39925  17.817  13.827  15.490 -0.0504  0.0665 -0.1793
23452W        W39926   9.788  11.786  11.701  0.5155  0.2138 -0.4359
23453W        W39927   9.998  10.181   1.123  0.1929  0.0789 -0.1769
23454W        W39928   0.006  10.112   3.159 -0.3058 -0.0512  0.0378
23455W        W39929  13.206  12.227   0.515  0.0772 -0.0906 -0.0459
23456W        W39930   1.721   2.264  12.832 -0.2859 -0.0224 -0.1084
23457W        W39931  10.064   5.158   5.726  0.0719 -0.4880 -0.0406
23458W        W39932   6.795  14.449   2.898 -0.0802  0.0029 -0.1242
23459W        W39933   6.161   4.301  12.194  0.1644 -0.0182 -0.0591
23460W        W39934   0.027   6.318   5.300 -0.0880  0.2400 -0.1098
23461W        W39935  13.600   6.256   4.308  0.1125 -0.1157 -0.1702
23462W        W39936  16.893  16.258  13.647  0.1088  0.1567  0.0858
23463W        W39937   7.198  13.168  14.563 -0.0485 -0.1257 -0.1441
23464W        W39938  17.194  14.425   4.809  0.0603  0.3002  0.2721
23465W        W39939   0.101   1.484   4.018  0.2468 -0.3920  0.2566
23466W        W39940  14.982   1.924  10.737 -0.3838  0.1473  0.1252
23467W        W39941   6.597   3.478  12.792  0.2711 -0.2165  0.0882
23468W        W39942  13.216  18.327   3.205 -0.0505  0.0111 -0.3253
23469W        W39943  15.363   9.749   2.871 -0.0340  0.0434 -0.0320
23470W        W39944   9.440   5.170  11.725  0.0654 -0.0992 -0.2894
23471W        W39945   0.906  16.368  15.053  0.0745  0.0863 -0.2316
23472W        W39946   5.561   7.271   0.431  0.2573 -0.2179  0.1808
23473W        W39947   2.327  16.769  10.243  0.1461  0.3788  0.1312
23474W        W39948  17.455   8.378   0.791  0.0713 -0.1636 -0.3235
23475W        W39949   6.451  12.901   0.243 -0.0685 -0.0974  0.1852
23476W        W39950  14.315   7.150   1.164 -0.0317  0.0192  0.0924
23477W        W39951  10.227   4.442  14.550 -0.0754 -0.1303 -0.0198
23478W        W39952   4.123   2.936   2.115 -0.1174  0.1445 -0.2855
23479W        W39953   4.370   4.007  14.375  0.0928 -0.4311  0.1558
23480W        W39954   2.231  17.944  12.806 -0.0007  0.2192 -0.4602
23481W        W39955   0.330   5.326   3.446  0.1074  0.0545 -0.0034
23482W        W39956  13.744   6.497  12.772 -0.0350 -0.1568  0.1648
23483W        W39957  15.188   7.135   3.699 -0.0708  0.0091  0.4097
23484W        W39958  15.991  17.063  12.447  0.4214 -0.3894  0.2030
23485W        W39959  11.952   5.243   2.267  0.1229  0.0087  0.0609
23486W        W39960   3.906   5.818  13.739 -0.2866 -0.1021  0.2486
23487W        W39961  17.030   3.796  12.306 -0.1785 -0.0071 -0.2668
23488W        W39962  14.399   2.498  11.365  0.0998  0.1051  0.5052
23489W        W39963   6.566  10.240  12.297  0.3258 -0.1612  0.0682
23490W        W39964   1.691  11.877  12.073 -0.3806 -0.0639  0.2553
23491W        W39965  13.748   5.046   0.250  0.1750 -0.0313  0.1589
23492W        W39966  12.192   6.115   3.923  0.1207  0.1757  0.0124
23493W        W39967   0.571   9.248  10.818 -0.0511 -0.0271  0.4318
23494W        W39968   4.981   3.479  14.813  0.2193 -0.2068 -0.1822
23495W        W39969   4.319  10.275  13.966 -0.4124 -0.1244 -0.3266
23496W        W39970  10.595   6.917   3.616  0.1607  0.1248  0.0074
23497W        W39971  16.762   0.032  14.959  0.1608 -0.3931 -0.1317
23498W        W39972  18.845  16.587   0.520 -0.1274  0.0010  0.0881
23499W        W39973  13.016   1.266  12.607 -0.1531  0.0367  0.0922
23500W        W39974  10.724  12.453   2.609  0.1864  0.2325 -0.3354
23501W        W39975  13.988   3.480   4.693 -0.1402  0.1064  0.0366
23502W        W39976  10.214   1.620  15.662 -0.5277  0.0021 -0.0165
23503W        W39977  10.954   9.349   0.612  0.2601 -0.1526  0.0522
23504W        W39978  10.951  13.141   6.238 -0.0821  0.1944  0.0409
23505W        W39979   7.304  17.870   1.565  0.2139 -0.3556 -0.3377
23506W        W39980   6.996   5.079   4.207 -0.0780 -0.3903  0.2856
23507W        W39981   9.302  16.408   6.135 -0.0663 -0.1464 -0.1169
23508W        W39982  10.676  16.569  12.941  0.1298 -0.2098  0.1166
23509W        W39983   7.774  10.971  15.463  0.1418 -0.0341  0.1709
23510W        W39984  15.900  16.551   3.501  0.0886 -0.1155  0.2313
23511W        W39985  18.694  17.386  14.207  0.0578 -0.2697  0.2092
23512W        W39986  11.194  10.187   2.750 -0.2603  0.1212 -0.2414
23513W        W39987   9.529  11.953  12.273 -0.1246  0.0410 -0.1626
23514W        W39988  11.916   4.593  14.580 -0.2814 -0.3085 -0.1669
23515W        W39989   4.285   4.334   4.140  0.0084 -0.0331  0.0149
23516W        W39990  14.567  13.231   5.415  0.1461 -0.1383 -0.0463
23517W        W39991   3.199  12.787   1.795 -0.0874  0.1628  0.0835
23518W        W39992  13.727  14.911  13.096 -0.3068  0.2417 -0.3908
23519W        W39993   1.285   0.656  13.018  0.1465 -0.0041  0.1460
23520W        W39994   6.777  10.427  14.207 -0.2172  0.0135 -0.0314
23521W        W39995  17.415   2.604  13.875 -0.3798 -0.3324 -0.1973
23522W        W39996  14.950   7.314  13.166 -0.1238  0.1178 -0.1661
23523W        W39997   3.063   9.890  11.784  0.1190 -0.3141  0.5091
23524W        W39998   6.102   9.851   0.081  0.0725  0.0657  0.4091
23525W        W39999  16.299  17.951   1.334  0.0089  0.0978  0.0444
23526W        W40000   3.349   6.789   0.295 -0.1364  0.1143  0.1146
23527W        W40001   8.269   4.056   4.842 -0.0792  0.1878 -0.1824
23528W        W40002   0.737   6.139   3.023  0.3061 -0.0028 -0.4142
23529W        W40003  13.624   0.934   3.108 -0.2025  0.0885 -0.0317
23530W        W40004  15.865   8.128  13.101  0.1023 -0.4550 -0.0043
23531W        W40005   6.811   6.798  14.740  0.1702  0.3602  0.2630
23532W        W40006   2.671  15.085   3.057  0.0711  0.0036  0.1613
23533W        W40007  11.796   1.772   4.678 -0.3267 -0.2513 -0.1865
23534W        W40008  10.986  15.053  12.352  0.1677  0.2423  0.1639
23535W        W40009   8.511  11.337   5.055 -0.1309  0.0933  0.0745
23536W        W40010   6.156   1.007   0.900 -0.1750 -0.1288  0.1742
23537W        W40011   9.724   2.515  14.100  0.0095  0.2351  0.0092
23538W        W40012   5.538  14.137   4.336  0.2856  0.3444 -0.1712
23539W        W40013  10.819   5.320  14.104 -0.0435  0.1099 -0.2060
23540W        W40014   6.341   7.687   3.114 -0.4511 -0.1667 -0.0610
23541W        W40015   0.304   1.725   1.555 -0.0020  0.1714 -0.0082
23542W        W40016  14.883  16.102   1.372 -0.1968  0.2272 -0.0424
23543W        W40017  10.957   8.392  14.101 -0.1885  0.2407 -0.0588
23544W        W40018   8.454   1.938   0.466  0.2637  0.2094 -0.1603
23545W        W40019   7.443   4.443   3.491 -0.0056 -0.1066 -0.1052
23546W        W40020   8.026   9.080  11.440 -0.0553 -0.0448 -0.0116
23547W        W40021   3.740   1.403  12.963 -0.1444 -0.1715  0.0421
23548W        W40022  13.058  17.548  10.758 -0.1105  0.1491 -0.1352
23549W        W40023  14.593   2.387   0.827 -0.2292  0.0713 -0.1317
23550W        W40024  10.361  17.128   3.140  0.0537 -0.0770 -0.0732
23551W        W40025   7.959  17.122   1.907  0.0832 -0.2643 -0.1637
23552W        W40026  15.127   5.072  10.106 -0.0513 -0.0441 -0.0804
23553W        W40027  15.439  12.136   1.816  0.2524  0.0419  0.0212
23554W        W40028   4.600  15.183  15.133  0.1495 -0.4098 -0.2447
23555W        W40029   8.432  18.049  11.856  0.1126  0.4233  0.0529
23556W        W40030  13.816   0.311   5.114  0.2704  0.0213 -0.0189
23557W        W40031  12.442   2.644   4.294 -0.0349 -0.0064 -0.0606
23558W        W40032  17.377   8.028  11.734 -0.2766  0.1328 -0.1211
23559W        W40033   7.275   9.354   4.028 -0.2829  0.2335 -0.3315
23560W        W40034   7.934   2.807  10.815  0.0787  0.0580 -0.0229
23561W        W40035  11.081   0.212   5.414 -0.0982 -0.1478  0.2914
23562W        W40036  16.337  16.520   1.565  0.0293  0.1202 -0.3759
23563W        W40037   3.344  17.540  11.822 -0.0395 -0.2148 -0.3290
23564W        W40038  11.952  14.691   2.968 -0.0178  0.1905 -0.1673
23565W        W40039  12.778   8.557   3.167  0.0161  0.0302 -0.1462
23566W        W40040   9.780   1.073  12.504  0.2912  0.1419 -0.1182
23567W        W40041  13.015   1.661   0.605  0.1868 -0.2250  0.0269
23568W        W40042  13.565   1.451  12.360  0.0294 -0.0004 -0.1251
23569W        W40043  18.213   3.433  14.358 -0.0221 -0.2757  0.2308
23570W        W40044   0.893   4.222   1.091 -0.1691 -0.0566 -0.3034
23571W        W40045   3.903  11.833   2.724  0.0530  0.0001 -0.0316
23572W        W40046   1.476  17.616  12.902 -0.0746  0.0595  0.1686
23573W        W40047  11.576   4.082   5.529  0.2355  0.1217  0.0121
23574W        W40048  11.104   6.963   0.473 -0.0257 -0.0043 -0.1915
23575W        W40049   1.131   2.037   5.804 -0.1621  0.2019  0.2441
23576W        W40050   3.500   1.051   5.698  0.1713  0.0211  0.0365
23577W        W40051   6.321   0.385   1.864  0.0554  0.2062 -0.2597
23578W        W40052  15.253  11.570   2.493  0.1432 -0.6334  0.0146
23579W        W40053  10.253  15.552  13.708 -0.2015  0.3666 -0.1252
23580W        W40054  17.702  10.662   2.700  0.0670 -0.3303 -0.2205
23581W        W40055   0.829   4.500  11.310  0.2011  0.0218 -0.0710
23582W        W40056  11.001   5.361   4.974 -0.0199 -0.1715  0.1513
23583W        W40057  14.690  12.587   2.195 -0.0975  0.1438  0.0413
23584W        W40058   6.540  15.812   5.015 -0.1526 -0.1384  0.0168
23585W        W40059  15.485  10.294  14.015  0.2736 -0.3133  0.0158
23586W        W40060  16.454  13.641   0.459  0.1468  0.1572 -0.2360
23587W        W40061  15.120   9.232  12.506  0.3081  0.2033 -0.0511
23588W        W40062   5.990   7.949  15.289  0.1815 -0.0766  0.2011
23589W        W40063   4.982   0.730   3.206  0.1708  0.1275  0.1548
23590W        W40064   6.052   1.577  14.603  0.1872  0.1902 -0.3192
23591W        W40065  15.757   0.967   3.647 -0.2470  0.0860  0.1769
23592W        W40066   6.523   7.616   5.267 -0.2358 -0.0106 -0.3248
23593W        W40067  16.769  11.337   0.813 -0.0956  0.0885 -0.0989
23594W        W40068  13.376   7.242  12.536  0.0258 -0.0595  0.3347
23595W        W40069   6.755   0.123  13.629  0.3130  0.3095  0.0111
23596W        W40070  18.054   4.161  15.375 -0.0550  0.0030 -0.0398
23597W        W40071   8.090   9.497  14.619  0.1165  0.0349 -0.2387
23598W        W40072  18.143  12.891  12.423  0.1345  0.0332  0.0934
23599W        W40073   9.910   4.771  14.770  0.0154  0.0907 -0.3985
23600W        W40074  10.037  11.857   2.730  0.2248  0.1465 -0.0330
23601W        W40075  18.094   6.858  12.624  0.1545  0.1052  0.1202
23602W        W40076   5.162   6.910   0.439  0.0496 -0.0386  0.0420
23603W        W40077   1.191  10.246  10.623  0.0809 -0.1407 -0.5883
23604W        W40078  11.084   3.689  15.104  0.1856 -0.0521  0.1296
23605W        W40079  18.531   1.763   3.323 -0.0545  0.0336  0.1106
23606W        W40080   2.229   8.475   4.885 -0.1057 -0.0462 -0.2648
23607W        W40081  14.718   5.424  10.819  0.0868  0.1707  0.0151
23608W        W40082   7.404   0.902  11.372  0.0875 -0.1901  0.2069
23609W        W40083   6.656  14.675   1.899 -0.0614  0.1538 -0.2167
23610W        W40084  17.732  16.377   0.338 -0.0773  0.0870 -0.3164
23611W        W40085   2.187  12.126   5.499 -0.3673 -0.0875  0.1111
23612W        W40086   6.291   7.093  10.507 -0.1749  0.0360 -0.2623
23613W        W40087   1.292   9.939   4.207 -0.0451  0.0258  0.0052
23614W        W40088   8.678   9.508  11.746 -0.2500 -0.1588 -0.0311
23615W        W40089  17.426   8.073  12.212 -0.0800 -0.1784 -0.1911
23616W        W40090   1.592   9.764  13.823 -0.1143  0.1186 -0.2805
23617W        W40091   5.213   7.759   0.130 -0.1224  0.0601  0.1739
23618W        W40092  15.684  17.364  11.642  0.3156 -0.3052 -0.1797
23619W        W40093  16.269  16.583   2.712  0.1105 -0.6822 -0.2147
23620W        W40094  15.653  14.713   3.297 -0.0930 -0.2192  0.1860
23621W        W40095   4.355  17.123   0.335 -0.0845  0.1634 -0.0214
23622W        W40096  14.546   4.371   0.620  0.1508  0.2464 -0.1877
23623W        W40097   9.885   3.417   5.217 -0.0898  0.0109  0.1773
23624W        W40098  10.285   1.966   4.942 -0.2658 -0.0189  0.0395
23625W        W40099   6.667   4.176  12.318  0.4236  0.0679 -0.0889
23626W        W40100   0.789   1.206  14.238 -0.1109 -0.1265 -0.2320
23627W        W40101   6.579   5.743   3.811  0.1760  0.2861 -0.1558
23628W        W40102  16.626  11.650   5.010 -0.0319  0.2375 -0.0457
23629W        W40103   7.126  11.268   4.502 -0.0287  0.0428  0.0114
23630W        W40104  12.716   3.007  13.570 -0.1505 -0.1215 -0.0709
23631W        W40105   1.550  18.755   1.695 -0.2497 -0.2042 -0.1666
23632W        W40106   1.892   4.653   1.385  0.1710  0.3589 -0.1426
23633W        W40107   9.085   9.376   4.294 -0.1934  0.3256 -0.1714
23634W        W40108  18.316  11.394  11.060  0.1083 -0.1995  0.4373
23635W        W40109  12.219   4.587  11.923 -0.1596  0.1017  0.3022
23636W        W40110  10.212  12.599   5.785  0.0303  0.0536 -0.0062
23637W        W40111   9.833   6.312  12.058 -0.4498  0.3280  0.3133
23638W        W40112   1.646  10.275  11.500 -0.0452 -0.0748 -0.0073
23639W        W40113   8.568   8.377   5.424 -0.0337 -0.2322 -0.2057
23640W        W40114   0.800  13.534  11.023  0.1328 -0.2663  0.2600
23641W        W40115   0.701   8.049  14.069 -0.2227 -0.3160 -0.2009
23642W        W40116   8.191  15.436  14.862  0.2663  0.0230  0.0935
23643W        W40117  14.207   2.432   4.790 -0.0421  0.1902 -0.0803
23644W        W40118   1.016   6.582  13.314 -0.3293 -0.0976  0.3312
23645W        W40119   3.696   7.455   4.562 -0.0769 -0.2935 -0.0795
23646W        W40120  17.993  13.369  10.748  0.2442 -0.1185  0.0651
23647W        W40121   3.376  12.536  15.184  0.1598 -0.1267 -0.1095
23648W        W40122  13.590   1.844  15.557 -0.0732  0.1812 -0.1420
23649W        W40123   7.330  15.372  15.171  0.0659 -0.1230  0.0317
23650W        W40124   3.343   7.092   0.906  0.0011 -0.0261  0.2322
23651W        W40125   5.447  13.677  14.388 -0.0143 -0.4031 -0.1866
23652W        W40126   0.688   0.867  10.764  0.0920 -0.5022  0.1969
23653W        W40127  14.460   3.944  11.133 -0.1124 -0.0591  0.1843
23654W        W40128  10.214   7.103   3.419  0.2247 -0.1137  0.1201
23655W        W40129   0.324  13.439   5.179 -0.0486 -0.0207 -0.2739
23656W        W40130   5.011  14.564  12.886 -0.2128 -0.1665 -0.2447
23657W        W40131   8.580   9.277   4.443  0.2048 -0.1353  0.2294
23658W        W40132  14.290  17.903   1.390 -0.0588 -0.0521  0.0625
23659W        W40133   0.214  11.795  10.731  0.3173  0.5244  0.1970
23660W        W40134  13.113   7.598  12.061  0.2014 -0.2653 -0.0279
23661W        W40135  14.352  12.272   3.826 -0.0900  0.0446  0.3325
23662W        W40136   4.615   2.023   2.035  0.1844 -0.0313 -0.0572
23663W        W40137  18.353   8.023   1.585  0.1876 -0.0791 -0.2022
23664W        W40138  11.447   4.560  14.471 -0.2129 -0.1323 -0.1379
23665W        W40139   0.633   8.869   3.487 -0.2013 -0.0469 -0.1263
23666W        W40140  16.810  17.317   3.463  0.0085  0.0228  0.0302
23667W        W40141   0.186   4.032   1.223 -0.0197 -0.0061  0.6500
23668W        W40142   7.505  11.996   1.815 -0.2134 -0.3532 -0.0707
23669W        W40143  18.279  14.798   4.217  0.2850 -0.2325 -0.0394
23670W        W40144  14.207  14.558   2.063  0.1639 -0.0301  0.2076
23671W        W40145  15.432  17.067   1.864  0.1668  0.0340 -0.0474
23672W        W40146   5.355   0.368   1.279 -0.5079  0.0434 -0.1470
23673W        W40147  11.192  18.311  14.487 -0.0384 -0.2492 -0.1328
23674W        W40148   5.460  15.345  12.488 -0.2752 -0.2645 -0.2305
23675W        W40149  18.225   4.704   1.442 -0.0751 -0.4021  0.2797
23676W        W40150  17.103   7.127  15.602  0.1298  0.0328  0.1285
23677W        W40151  11.250   0.466   2.873  0.0915  0.1719 -0.0900
23678W        W40152  18.488  11.499  12.321 -0.3544 -0.1554 -0.1643
23679W        W40153   4.979  12.344  15.005  0.3611  0.3013 -0.0117
23680W        W40154   6.674  17.763   1.784  0.3276  0.0291  0.0273
23681W        W40155  15.938  15.676  10.929 -0.1045 -0.3033  0.1678
23682W        W40156   4.198   6.633   3.515 -0.0667 -0.0518  0.1046
23683W        W40157   6.081  16.603  11.709  0.3082  0.1121  0.2657
23684W        W40158   7.707  12.840  15.336  0.0780 -0.2148  0.4263
23685W        W40159  16.096  13.448   0.152  0.0672 -0.1086 -0.0990
23686W        W40160  16.325   1.941   4.984  0.0296  0.0400  0.0334
23687W        W40161   9.932   9.622  13.612  0.1492 -0.3252 -0.1142
23688W        W40162  14.810   0.771   1.778  0.3186 -0.1216 -0.0145
23689W        W40163   1.513   7.303  12.806  0.0014 -0.0098  0.0378
23690W        W40164  12.275   9.038   5.217 -0.4233 -0.1544  0.2098
23691W        W40165  15.732   5.753   0.239  0.1543  0.0107  0.0362
23692W        W40166   0.881  10.354  11.011  0.2355  0.0902 -0.1626
23693W        W40167  13.318   8.647  15.568  0.4885  0.0249  0.0328
23694W        W40168  18.106  11.632  12.814  0.0172 -0.0324  0.1998
23695W        W40169   2.751   2.258   3.592  0.1724  0.0425 -0.4275
23696W        W40170  14.924   4.457  13.814 -0.1173  0.0776  0.4540
23697W        W40171  17.791   3.221  14.995  0.3095  0.2041  0.1973
23698W        W40172  16.943   9.451  14.764 -0.0006 -0.0081  0.0181
23699W        W40173   2.726  13.110   1.257  0.2151 -0.3437 -0.0019
23700W        W40174  18.593   7.488   0.912  0.0904 -0.1075 -0.1477
23701W        W40175   1.787   0.325  12.317 -0.0886  0.2372 -0.0338
23702W        W40176  11.640  14.941  13.869  0.0573  0.1972 -0.1326
23703W        W40177  15.642  11.143   1.406 -0.2014 -0.2811 -0.0029
23704W        W40178  12.321   0.895   3.025  0.3190 -0.1233 -0.1505
23705W        W40179  14.051  13.795  11.987  0.2546  0.3937 -0.0591
23706W        W40180   9.420  14.753   2.614  0.1417 -0.1942  0.0623
23707W        W40181  12.275  11.439  15.365 -0.0775  0.1496  0.1935
23708W        W40182   0.193  17.972  14.281 -0.0538 -0.1613 -0.0070
23709W        W40183  15.558  17.350  11.091 -0.0109 -0.0788  0.1481
23710W        W40184   2.618   0.670  11.350  0.0027 -0.2985 -0.2217
23711W        W40185  16.641   1.748  12.523  0.0215 -0.0635  0.0626
23712W        W40186   4.689   4.184  13.393 -0.0459  0.2651 -0.0984
23713W        W40187   6.369  11.038  14.941  0.1785 -0.1972  0.0394
23714W        W40188  17.986   6.937   5.114  0.0318 -0.0828  0.0532
23715W        W40189   8.014   4.043  14.804 -0.0397 -0.1415 -0.0230
23716W        W40190   4.019   2.934  11.191  0.1567  0.0383 -0.2562
23717W        W40191  10.024  14.573   1.982 -0.1733 -0.3185  0.0502
23718W        W40192  15.394   5.665  14.165  0.2439  0.2139  0.0608
23719W        W40193   0.531   7.365   3.142  0.3731  0.1353 -0.4338
23720W        W40194  17.149   6.253  11.583  0.1766  0.0260  0.2747
23721W        W40195  14.853   3.906  13.453  0.1672  0.1860 -0.1224
23722W        W40196  10.679  13.331   4.072 -0.1902  0.0488 -0.1208
23723W        W40197   3.021   5.430   2.952  0.0718 -0.0351 -0.1273
23724W        W40198  16.904   3.938  14.204 -0.1702 -0.4901 -0.3155
23725W        W40199  15.006   0.384  12.237 -0.0732 -0.1767 -0.2330
23726W        W40200  12.626   8.360  14.362  0.0373 -0.1202  0.0437
23727W        W40201  10.694  12.006   2.907 -0.2922  0.1591  0.0121
23728W        W40202   7.448  17.469  15.135 -0.1406 -0.2441 -0.0382
23729W        W40203  16.584   8.252  12.855  0.0438  0.1641 -0.3720
23730W        W40204  18.423  17.779  13.044 -0.0273 -0.1351  0.0381
23731W        W40205  17.387   5.912  10.689 -0.3548 -0.0345 -0.3784
23732W        W40206  13.941   5.633   4.055  0.1095  0.0149  0.1728
23733W        W40207  10.144  10.184   2.687 -0.0375  0.0185  0.1294
23734W        W40208  15.717  17.520   1.184  0.0080 -0.2295 -0.2402
23735W        W40209  15.439  15.411   4.426  0.2160 -0.3005  0.0797
23736W        W40210   0.621  13.116  14.861  0.1446  0.0352 -0.1472
23737W        W40211   8.013  11.279   0.546  0.1128  0.2618 -0.0083
23738W        W40212  15.759  11.454  14.765  0.2693  0.0784  0.0088
23739W        W40213  14.357  15.698  15.402 -0.1664 -0.0444 -0.0154
23740W        W40214  12.378   8.143   5.780  0.0799  0.0406  0.0920
23741W        W40215   2.055   3.397   3.489 -0.2692 -0.3063  0.0418
23742W        W40216   0.167  16.282   5.610  0.1187 -0.2577  0.1957
23743W        W40217  13.591   9.477   1.748  0.0619 -0.0514  0.1576
23744W        W40218  18.744   8.208  12.867  0.0193  0.2010  0.3625
23745W        W40219  11.834  13.943  12.184 -0.0210 -0.2074  0.2135
23746W        W40220   0.276  10.876   2.700  0.0769  0.1140  0.0426
23747W        W40221  13.415  16.102   1.103  0.4355  0.1083 -0.3183
23748W        W40222  12.781   6.458  13.333 -0.0686 -0.1352  0.3047
23749W        W40223  15.177  10.909   4.210  0.0357 -0.1039  0.4883
23750W        W40224   4.126   7.275  12.089 -0.2734 -0.0409  0.3547
23751W        W40225   0.070  11.278   0.185  0.1202 -0.0010  0.1463
23752W        W40226  11.852  17.608  11.708  0.0251  0.0111 -0.0053
23753W        W40227   7.322   3.460   3.145  0.0828 -0.0413  0.2186
23754W        W40228   7.742  10.371  11.481  0.1984 -0.2957 -0.2317
23755W        W40229   0.038   9.145   3.649  0.2201  0.0204 -0.1821
23756W        W40230  10.387   0.831   0.070  0.1369  0.4098  0.2117
23757W        W40231   9.162   9.421   0.227  0.0651 -0.1461 -0.0571
23758W        W40232  15.615  16.496  10.577 -0.0642 -0.3595 -0.2430
23759W        W40233  18.430   0.736  14.380 -0.1760  0.0932  0.0095
23760W        W40234  11.274   5.718   3.162  0.0250 -0.2870  0.2784
23761W        W40235  15.069  16.894  12.847 -0.1837  0.3447 -0.2521
23762W        W40236  15.803   3.112   9.390  0.1949  0.0056 -0.0446
23763W        W40237   4.628  11.917  11.443  0.0744  0.0300  0.2771
23764W        W40238  13.641   0.845   5.241 -0.1306  0.2675 -0.0098
23765W        W40239   7.053   9.544  14.661  0.0559  0.4046  0.1014
23766W        W40240  14.139   0.891   4.321 -0.3190  0.5980  0.0588
23767W        W40241   9.867   4.491  12.634  0.3594 -0.1714  0.1030
23768W        W40242   8.730   1.790   0.043 -0.0799  0.0912  0.1440
23769W        W40243   0.071  17.329  13.659  0.2690  0.1635  0.0541
23770W        W40244   3.433  16.822   2.182 -0.0349 -0.0308 -0.0370
23771W        W40245   1.130   7.229   0.561 -0.1158  0.1520 -0.0116
23772W        W40246  13.847   8.436   1.178 -0.0200  0.0215 -0.0628
23773W        W40247   2.325  13.933   2.171 -0.1577 -0.0922  0.0031
23774W        W40248   1.898  14.905  15.610 -0.3118  0.2896 -0.1083
23775W        W40249   4.112   7.927  15.148  0.5179 -0.0286 -0.3432
23776W        W40250   3.673   7.900  14.232 -0.1748 -0.0144  0.1762
23777W        W40251  17.310  17.420  11.670  0.1228  0.1648  0.4897
23778W        W40252   4.909   8.409   3.236 -0.0385 -0.2467 -0.0825
23779W        W40253  15.932   3.434  11.054 -0.0783  0.4002 -0.0789
23780W        W40254  16.435  17.563  11.646  0.1326  0.2479 -0.1324
23781W        W40255   8.144  16.881   5.582 -0.1317 -0.0594  0.2263
23782W        W40256   6.148   0.287   1.350  0.2569 -0.1854 -0.0834
23783W        W40257  11.392   8.832   0.855 -0.1531  0.0186 -0.1786
23784W        W40258  16.874   5.680  14.123 -0.1962 -0.1565 -0.0726
23785W        W40259  10.986  11.605   2.755  0.0401 -0.1892 -0.2543
23786W        W40260   7.096  14.143   2.619  0.2366 -0.0689  0.0456
23787W        W40261  18.639   9.933  12.443  0.3733 -0.0610  0.3699
23788W        W40262  14.059  14.433  14.557  0.1455 -0.0476 -0.3739
23789W        W40263   3.300   7.240   1.409 -0.2969 -0.0286  0.0864
23790W        W40264   6.025  14.539   0.460  0.0471  0.2399 -0.3183
23791W        W40265   2.840  18.262  15.694 -0.1385  0.3274 -0.0811
23792W        W40266   8.100  15.278   1.016  0.1395 -0.2490  0.4286
23793W        W40267   1.226  17.367   0.820 -0.1160 -0.2009 -0.0805
23794W        W40268   1.625   6.719   2.199 -0.0999  0.2391 -0.0004
23795W        W40269  12.304   6.530   1.236 -0.2055 -0.0431  0.1032
23796W        W40270  16.789  17.907  14.549  0.0694 -0.1544 -0.1736
23797W        W40271  12.362   8.245  14.811 -0.2259 -0.0976  0.1290
23798W        W40272   4.560  12.107  12.027 -0.1365  0.0875 -0.3198
23799W        W40273   3.599  17.494   4.652  0.0772 -0.3307  0.2599
23800W        W40274   6.392   1.920  13.944  0.0764  0.1648 -0.4449
23801W        W40275  16.995  14.328  11.509  0.2091  0.1572  0.4396
23802W        W40276   7.009   0.766   3.790  0.1805  0.3464  0.3439
23803W        W40277  10.433   8.321  13.202  0.0159  0.1976 -0.2105
23804W        W40278   4.069  14.448  14.631  0.0887 -0.3430 -0.2262
23805W        W40279  16.286   2.708   1.025  0.1014  0.1684 -0.0603
23806W        W40280   5.224   9.731   0.931  0.0345  0.1838  0.1909
23807W        W40281  10.225  16.818   4.069  0.2492  0.0797  0.1704
23808W        W40282   1.470   2.348   0.735  0.0167  0.1984 -0.1429
23809W        W40283   0.703  17.000  15.137 -0.1578  0.1358 -0.2531
23810W        W40284  11.060   9.470  15.113 -0.1254  0.0193 -0.3093
23811W        W40285   0.409   6.269   5.714 -0.0136 -0.1530 -0.2578
23812W        W40286   7.050  10.493  15.377 -0.2637 -0.5051 -0.1209
23813W        W40287  15.170  16.962   3.835 -0.3718  0.1683 -0.2884
23814W        W40288   8.282   1.597   2.821 -0.0673  0.0956 -0.3111
23815W        W40289   9.950  11.114   4.990  0.2258 -0.0365 -0.1376
23816W        W40290   0.365  13.189  11.137  0.0418 -0.0281 -0.0347
23817W        W40291  10.034  16.421   4.602 -0.1490  0.0591 -0.1082
23818W        W40292   9.389  16.413  14.565 -0.4955 -0.0715 -0.2729
23819W        W40293  18.291   9.047  12.516  0.1319 -0.1354  0.1703
23820W        W40294   4.380  10.121  10.959 -0.2311  0.1661  0.4575
23821W        W40295  17.035   1.786   3.100  0.0478 -0.0624 -0.1798
23822W        W40296  15.837   7.126  14.944  0.0307 -0.1020 -0.3801
23823W        W40297  17.511   1.319  15.655 -0.0148  0.2149 -0.4068
23824W        W40298   3.617   9.094  13.499 -0.0706 -0.0930 -0.0079
23825W        W40299   1.521   9.889  11.763  0.0889  0.2203 -0.2350
23826W        W40300  11.702  14.818  11.101  0.3646  0.2098  0.0314
23827W        W40301  13.709   1.906  15.043  0.0546  0.0501 -0.4287
23828W        W40302  10.553  18.598   4.028  0.2533 -0.0737 -0.1638
23829W        W40303   7.942  14.868   1.307  0.0609 -0.0901  0.1209
23830W        W40304   6.264   9.638  11.123 -0.0919 -0.2489 -0.1415
23831W        W40305  11.813  14.403   0.482  0.1367  0.1093  0.1223
23832W        W40306  15.292  11.528  13.284  0.2097 -0.4151 -0.1243
23833W        W40307   9.014   6.833  11.874  0.1296 -0.1292  0.3297
23834W        W40308   0.331  18.325  14.988  0.3359  0.2157 -0.2309
23835W        W40309  15.938  17.739  13.860  0.0589 -0.2785  0.1331
23836W        W40310   9.637   5.883   5.433  0.2557 -0.1381 -0.1076
23837W        W40311   3.642  11.769   1.728 -0.0238  0.0442 -0.4314
23838W        W40312   2.614   5.102   5.141  0.0252  0.1054 -0.1002
23839W        W40313   0.797   2.387  13.005 -0.1775  0.1686 -0.2001
23840W        W40314  12.557  12.211   3.929  0.1696  0.2457  0.2333
23841W        W40315   4.766   8.923  15.321 -0.1084 -0.1182  0.2315
23842W        W40316   8.410  17.835   0.458  0.1979  0.2277 -0.0543
23843W        W40317   2.382   2.118   1.942 -0.0003 -0.0759 -0.2273
23844W        W40318   9.708  18.649   0.310  0.0336  0.0045  0.0975
23845W        W40319   4.141   5.377   3.884 -0.1466 -0.0949 -0.1319
23846W        W40320   2.107  12.667   2.601  0.1333  0.1665 -0.1359
23847W        W40321  18.698   4.395  11.574 -0.2903  0.0169  0.0628
23848W        W40322   4.606  15.874   3.829 -0.0902  0.0740 -0.1522
23849W        W40323  16.563  17.353  14.780  0.2513 -0.1516 -0.3005
23850W        W40324   9.795   6.154  15.260 -0.0705 -0.1779  0.2262
23851W        W40325  17.813   6.507   1.723  0.1032  0.0352  0.1320
23852W        W40326  17.645   2.468  12.848 -0.0816 -0.3191 -0.0304
23853W        W40327  16.152   5.890   4.199 -0.0458  0.0231  0.0348
23854W        W40328  17.040   2.982   2.776  0.1998 -0.2812  0.1682
23855W        W40329   8.265  17.897   2.358  0.0222 -0.0308 -0.1873
23856W        W40330   1.184   3.545  11.591  0.2044  0.3129 -0.2115
23857W        W40331   6.570  13.460  15.118 -0.3157  0.0663 -0.0232
23858W        W40332  18.527   0.835  10.881  0.3621  0.0314  0.0222
23859W        W40333  18.451   8.133  14.287  0.1122 -0.0227 -0.0849
23860W        W40334  14.047  14.281  12.636 -0.1965  0.4612  0.2788
23861W        W40335   6.322  14.315  15.257 -0.2289 -0.1461  0.0350
23862W        W40336  10.282   8.186  12.719 -0.3754  0.0257  0.2539
23863W        W40337  14.240  10.760   2.665 -0.0938 -0.1905  0.0716
23864W        W40338  18.227   0.643   9.511 -0.0332  0.3301  0.0566
23865W        W40339   5.879  11.081  12.661  0.0254 -0.0115 -0.1452
23866W        W40340  17.724  15.401   4.751  0.1308 -0.0209 -0.3735
23867W        W40341  12.860   7.947  13.551 -0.3699  0.0164 -0.0245
23868W        W40342   3.452   1.779   0.066  0.5581 -0.0208  0.2321
23869W        W40343  15.005   5.053  11.181 -0.1021 -0.2086 -0.0427
23870W        W40344   6.861  11.725  12.576 -0.0041  0.0507 -0.0056
23871W        W40345   7.869   8.684   4.566 -0.1616  0.2354 -0.2017
23872W        W40346  15.948   3.724  14.007  0.0843 -0.0921 -0.2680
23873W        W40347  16.386   7.707  14.732 -0.1551  0.2831  0.4503
23874W        W40348   8.551  12.965   4.548  0.0874 -0.1281  0.1641
23875W        W40349  10.464  12.811   2.281 -0.2575  0.0922  0.2042
23876W        W40350  12.662  17.667  15.598  0.0241  0.0254  0.1603
23877W        W40351  12.495  15.832  15.398 -0.3748 -0.0744 -0.1254
23878W        W40352  18.142  16.384  13.358 -0.1617 -0.0508  0.1644
23879W        W40353  17.524  11.057   3.954  0.1498 -0.0572  0.1371
23880W        W40354  15.564  10.985   0.675  0.0677  0.1139 -0.1581
23881W        W40355  10.065  12.545  12.395  0.1188  0.3816  0.0083
23882W        W40356   8.792   1.469  15.321  0.0413  0.0013  0.0668
23883W        W40357   8.119  11.036   1.588  0.4669  0.1583 -0.0299
23884W        W40358   2.199   7.267   3.485 -0.1442 -0.0051 -0.3449
23885W        W40359   0.955  12.364  13.973 -0.2309 -0.0094 -0.4385
23886W        W40360  15.557  12.262  12.672 -0.1331 -0.3952  0.1062
23887W        W40361   5.343  13.613   2.554  0.1266 -0.1832 -0.4177
23888W        W40362   3.398   3.974   1.347  0.1275 -0.0555  0.2420
23889W        W40363   9.772   0.725   3.226 -0.3166 -0.0428  0.3269
23890W        W40364   4.951   6.129   3.808  0.1692  0.1271  0.3037
23891W        W40365   9.111   4.991   2.839 -0.1300 -0.3250 -0.0220
23892W        W40366   2.219  13.537  13.291  0.2472 -0.2824 -0.2298
23893W        W40367  17.987   8.601  12.524 -0.1610 -0.1483  0.2381
23894W        W40368   9.728   4.674   5.043  0.2258  0.3925 -0.2705
23895W        W40369  12.305  12.254  12.400 -0.2650  0.0408  0.1103
23896W        W40370   2.461   0.515  15.518 -0.0523  0.0492  0.0534
23897W        W40371   9.278  18.171   3.414 -0.0304 -0.0247 -0.1381
23898W        W40372   8.493   5.637   0.091  0.1087 -0.0015 -0.1202
23899W        W40373   0.827  14.765   0.700 -0.5006 -0.1677  0.0323
23900W        W40374  16.915  11.216   1.667  0.0774 -0.0628  0.0636
23901W        W40375  17.359  12.215  10.340 -0.1970 -0.0446 -0.1587
23902W        W40376   1.052  17.785   4.553  0.3342  0.1657 -0.1366
23903W        W40377   7.363   4.066  14.505 -0.0314 -0.1967  0.1182
23904W        W40378  14.733   6.420   5.198 -0.1568  0.0103 -0.0309
23905W        W40379   4.379  12.889   0.278 -0.0577  0.0660  0.1208
23906W        W40380   0.680  17.334  12.761  0.1901  0.1483  0.1432
23907W        W40381   0.078   4.196   1.708 -0.1058  0.0235 -0.3419
23908W        W40382   9.669  12.997  12.840 -0.0033 -0.0669 -0.0854
23909W        W40383   7.033  13.835   3.560 -0.2864 -0.0196 -0.3221
23910W        W40384  11.544  17.486   1.745 -0.1040  0.0621  0.1087
23911W        W40385  14.947  10.030   1.686  0.3409  0.0375 -0.1029
23912W        W40386  11.073   2.044  11.790  0.3733  0.0687 -0.1719
23913W        W40387   5.419   3.083  11.944  0.0118  0.1900 -0.4167
23914W        W40388  14.672   7.178  12.064  0.3000  0.0866 -0.0836
23915W        W40389   2.080   5.017  12.224  0.1124 -0.1676  0.0563
23916W        W40390  17.163   0.467  14.822 -0.0641  0.1185  0.1785
23917W        W40391   6.744   9.265   2.975 -0.1574  0.0917 -0.2091
23918W        W40392  11.646  10.779   4.648  0.1452 -0.1204 -0.0040
23919W        W40393   8.722   7.437   2.645  0.2769 -0.0848  0.1538
23920W        W40394  11.336  16.668   2.539  0.0273  0.0887 -0.1200
23921W        W40395  18.562  14.705  14.139  0.1944  0.0940 -0.2655
23922W        W40396   8.458   3.934   2.170 -0.0885  0.0492 -0.1650
23923W        W40397  16.910   3.445   3.026  0.1699  0.4096 -0.1078
23924W        W40398   9.937   4.468   3.233  0.1522  0.0561  0.3318
23925W        W40399   2.712  14.889  12.018  0.0902 -0.4346  0.2956
23926W        W40400   0.377  14.995   2.930 -0.1233 -0.2211  0.1127
23927W        W40401   2.403  10.409  12.680  0.3803 -0.3121  0.0773
23928W        W40402  17.657  15.939  15.315 -0.0315  0.1383  0.2443
23929W        W40403   3.258   8.837  12.230  0.2038 -0.2758  0.3461
23930W        W40404   7.714   4.640   2.679 -0.1386  0.1147  0.1953
23931W        W40405   8.515   1.746  11.479  0.1824 -0.0078  0.0604
23932W        W40406  16.726   5.533  14.654 -0.2910 -0.3449 -0.0077
23933W        W40407   9.243  12.041  13.608 -0.2004  0.5516 -0.0798
23934W        W40408  17.165   5.284  12.795 -0.1692 -0.1989 -0.0428
23935W        W40409  13.665  11.160   2.429 -0.2617  0.0312  0.0632
23936W        W40410  18.257   1.711  12.890 -0.0107 -0.1784  0.0303
23937W        W40411   7.470   4.132  11.308  0.2517 -0.0927  0.0030
23938W        W40412  15.608   4.535   0.716 -0.0029  0.1752  0.2504
23939W        W40413   0.675  13.681   8.905 -0.0226  0.0920 -0.1056
23940W        W40414   3.266   3.283   0.679 -0.1357  0.2014  0.0362
23941W        W40415  18.134   1.765   3.014  0.0307  0.2792 -0.2945
23942W        W40416   7.315   8.709   0.915  0.0544  0.0134 -0.2389
23943W        W40417  17.556  14.916  15.241  0.2260 -0.1183 -0.0210
23944W        W40418   3.268   1.218   0.048  0.0682  0.2355 -0.0407
23945W        W40419  14.750   0.527   3.927  0.1882 -0.0074  0.0959
23946W        W40420   7.630  12.371  12.304 -0.1350 -0.0846  0.0043
23947W        W40421  17.474   2.962  14.204  0.1207  0.2013 -0.0363
23948W        W40422  10.042  16.984  13.691  0.1338 -0.0924 -0.1473
23949W        W40423   7.628   1.768  11.589 -0.0007  0.3198 -0.2522
23950W        W40424  12.110  14.850   0.354  0.0264 -0.0774  0.0400
23951W        W40425  15.478  10.879  14.195 -0.0329  0.0915 -0.2693
23952W        W40426  14.942   2.687   4.482 -0.3571 -0.1162  0.0601
23953W        W40427   3.374  10.184  15.669  0.1158  0.2701 -0.1239
23954W        W40428  12.291  12.821   2.380 -0.0712  0.1351 -0.3212
23955W        W40429  13.853  16.930   2.891 -0.0816  0.0669  0.0426
23956W        W40430   7.883  18.459   5.848  0.0278 -0.0448 -0.0009
23957W        W40431  12.920  10.345   5.303 -0.1195 -0.0393  0.0646
23958W        W40432  15.937   4.011  15.107 -0.0350  0.0976  0.1807
23959W        W40433   9.643   3.675  14.015 -0.6330  0.1948 -0.3894
23960W        W40434   7.813  17.099   4.018  0.2007  0.0492  0.3694
23961W        W40435  12.631  16.587  10.733 -0.2334  0.0027  0.1015
23962W        W40436   8.156   5.382   5.407  0.0590  0.2035 -0.0360
23963W        W40437   3.469  14.123  13.734 -0.1971 -0.1044 -0.0953
23964W        W40438   1.326   9.015  10.663  0.1300  0.0144 -0.0173
23965W        W40439  17.542  17.178   3.423 -0.0813 -0.1096 -0.0612
23966W        W40440   6.674   1.179   1.088  0.0329 -0.1341 -0.0294
23967W        W40441  18.580   2.916   1.657  0.2438 -0.0537 -0.0407
23968W        W40442  15.370   7.230  12.914 -0.1337 -0.2387 -0.1471
23969W        W40443   9.250  12.299  15.592 -0.1114 -0.2687  0.0421
23970W        W40444  11.186  18.474  11.851 -0.1825  0.1701 -0.2751
23971W        W40445   7.847   6.715  14.390  0.0991 -0.0789  0.3485
23972W        W40446  14.500   6.240  11.400  0.0274  0.3619  0.2078
23973W        W40447  13.786  17.321  11.593  0.1494 -0.2085  0.3783
23974W        W40448   6.598  16.943   0.391 -0.0565  0.0869  0.3360
23975W        W40449   6.954   0.784   1.288  0.0316 -0.3713  0.2566
23976W        W40450   5.756  14.143  12.144 -0.2054 -0.1535  0.1340
23977W        W40451   8.277  17.121   0.012 -0.1312 -0.0778  0.0259
23978W        W40452  13.659  11.857   1.405 -0.0490  0.0805 -0.0845
23979W        W40453   1.054   9.524  10.659  0.0781 -0.1479  0.3241
23980W        W40454   2.856   7.089  11.533 -0.0787 -0.0309  0.2153
23981W        W40455   4.636   7.822   3.910 -0.1481 -0.2297 -0.1650
23982W        W40456  12.268  17.881  14.372 -0.0403  0.1294 -0.1684
23983W        W40457   5.764  12.593   1.934 -0.0333 -0.1465  0.3202
23984W        W40458  10.010   2.730   3.659 -0.1088 -0.1076  0.1209
23985W        W40459  11.691  12.827   3.681  0.0689  0.0020 -0.1688
23986W        W40460   6.208  14.697  14.343  0.2492  0.2268  0.1361
23987W        W40461   8.490  12.895   2.185  0.1362 -0.0010  0.0627
23988W        W40462   6.517  17.556  15.501 -0.1343  0.1451 -0.1037
23989W        W40463   3.268   0.359   4.651  0.0344  0.1833 -0.2078
23990W        W40464   9.204  18.310  14.569 -0.1073 -0.5198 -0.0585
23991W        W40465  16.041  15.059  14.579  0.2588  0.1146  0.2596
23992W        W40466  12.318  17.811  13.031 -0.1492 -0.1268 -0.1156
23993W        W40467   3.405  13.179   5.330  0.1314 -0.1477  0.4824
23994W        W40468  15.534  13.460  10.910 -0.0272 -0.2416 -0.1114
23995W        W40469  12.486   4.916   3.291  0.0931  0.1781 -0.2383
23996W        W40470  18.425   5.449  12.778  0.0566  0.2141 -0.0836
23997W        W40471  16.311   9.286   2.971  0.1922  0.0338 -0.2804
23998W        W40472  10.338   4.095  13.336  0.4088 -0.0424 -0.0629
23999W        W40473  16.101   5.352  12.269 -0.0878 -0.6012 -0.1755
24000W        W40474  16.671  10.927   9.365 -0.1947  0.1426 -0.0648
24001W        W40475   7.767  16.490  12.626  0.2911  0.1219 -0.2703
24002W        W40476   2.331  17.490   0.565  0.1671 -0.1138  0.1918
24003W        W40477   2.484  11.416   2.986  0.0669 -0.0439 -0.0859
24004W        W40478  16.080  16.784  11.721  0.0149 -0.0438  0.1684
24005W        W40479  14.124   6.194  14.454  0.4142 -0.3579  0.1638
24006W        W40480   6.195  13.482   3.830  0.1388  0.0771 -0.1099
24007W        W40481  12.064  18.018   1.328  0.1415  0.0316 -0.2299
24008W        W40482   4.882   6.291  15.138  0.0390  0.2932 -0.1479
24009W        W40483   0.123  11.216  14.597  0.1689  0.0815 -0.2173
24010W        W40484  17.114  10.039  14.624 -0.1481 -0.1747 -0.0170
24011W        W40485  17.857  17.756   4.651  0.3902  0.0381  0.2355
24012W        W40486  16.320   9.443   0.082 -0.2382 -0.2629 -0.0738
24013W        W40487   3.987   6.302   1.463  0.2663 -0.1251 -0.1215
24014W        W40488   5.013   9.378  12.310 -0.0774  0.0498 -0.1402
24015W        W40489   5.992   4.549  13.423 -0.2946  0.2685 -0.0353
24016W        W40490  11.882  10.681  13.724 -0.0520  0.3321 -0.2165
24017W        W40491  10.756  14.305   2.764 -0.0267 -0.1981 -0.0219
24018W        W40492   8.379   6.009  12.618  0.1165 -0.0825  0.3877
24019W        W40493  18.449  15.224   1.600  0.0594 -0.0564 -0.0690
24020W        W40494  14.457   2.930   1.879  0.1776 -0.1112  0.0335
24021W        W40495  12.563   5.182   2.915  0.5840  0.2768  0.2472
24022W        W40496   6.468   7.904  12.508  0.0863 -0.0315  0.2688
24023W        W40497  10.988  10.327   4.338  0.0320  0.2669 -0.0108
24024W        W40498   1.050  17.718  14.604 -0.0334  0.0890  0.0393
24025W        W40499  14.127   7.196   2.099  0.1318 -0.0810 -0.0173
24026W        W40500   9.138   0.691  11.908 -0.2075 -0.0157  0.1062
24027W        W40501  18.462   9.351  10.590  0.2891 -0.1252  0.1025
24028W        W40502   0.179  15.913   2.067  0.0484  0.1148 -0.1063
24029W        W40503  11.638  15.136   0.313  0.2487 -0.1559 -0.1607
24030W        W40504  10.674  10.094   2.789 -0.3393  0.1643 -0.2867
24031W        W40505  15.940  10.286  12.099 -0.0896 -0.2460  0.2227
24032W        W40506   2.778  13.028  13.306 -0.0951  0.2298 -0.0486
24033W        W40507  15.619   1.514  11.117 -0.2688  0.1730  0.3355
24034W        W40508   6.680  10.751  13.279 -0.1781  0.1236  0.0080
24035W        W40509  12.595  10.927  15.505 -0.0210 -0.0713  0.3279
24036W        W40510   4.477   4.460   3.294 -0.1359  0.1441  0.0357
24037W        W40511   7.301  11.607   1.576 -0.0604  0.3673  0.2146
24038W        W40512   9.882   7.483   0.294  0.1266 -0.1048 -0.0277
24039W        W40513   5.979  17.997  14.181 -0.0271 -0.1759  0.2670
24040W        W40514   1.463  13.193   3.914 -0.1195  0.2453  0.1896
24041W        W40515  12.568   8.698  12.470  0.0047 -0.2414  0.1267
24042W        W40516   0.187  15.841   0.058 -0.2755 -0.4733 -0.0130
24043W        W40517   0.871   3.150  10.413 -0.3310  0.2091  0.2022
24044W        W40518   4.266  18.366   0.459  0.0328  0.2261 -0.4074
24045W        W40519  16.419   9.716  10.495  0.0825  0.2487 -0.3875
24046W        W40520   8.338  14.825  13.594 -0.0219 -0.2249  0.1327
24047W        W40521   0.892  10.853  12.438  0.0279 -0.1561 -0.0818
24048W        W40522   6.909   6.336   4.000  0.1015  0.3580  0.0278
24049W        W40523  16.595  10.165  10.644 -0.2679 -0.2089  0.0223
24050W        W40524   5.947   8.104   0.957 -0.2513 -0.3179 -0.1057
24051W        W40525  17.552   9.927   4.404 -0.1444 -0.2673  0.0614
24052W        W40526   6.679  12.613  11.090  0.1713 -0.2300 -0.0584
24053W        W40527   1.494   0.502  14.418  0.1805 -0.0384 -0.1081
24054W        W40528   9.895   7.133   1.920  0.2742 -0.0865 -0.1071
24055W        W40529  14.352   5.322   3.278 -0.1907  0.0770 -0.0751
24056W        W40530   7.078   6.352  13.015  0.1387 -0.0861  0.1948
24057W        W40531   8.594   8.547  11.070 -0.1119 -0.0504  0.1915
24058W        W40532  16.177  13.621   0.999  0.3297 -0.0157 -0.0448
24059W        W40533   2.801   1.357   3.665  0.0667 -0.1111  0.0652
24060W        W40534   5.639  10.950   3.187 -0.0480 -0.3052  0.0327
24061W        W40535  11.127  12.016  13.886  0.1168 -0.0300 -0.0749
24062W        W40536  10.565   7.443  14.560  0.2446  0.3567 -0.4039
24063W        W40537  11.941  10.218   5.321 -0.0588 -0.0370 -0.1832
24064W        W40538   2.969   9.496  12.484 -0.0367 -0.2901  0.1836
24065W        W40539  14.168   8.270  13.951  0.1812 -0.0540 -0.0445
24066W        W40540   7.026   5.154   2.172  0.0448 -0.2321 -0.2337
24067W        W40541   4.493   0.204  11.101 -0.0568  0.2230 -0.1506
24068W        W40542  15.524  10.661   4.516 -0.1737 -0.3564 -0.0674
24069W        W40543  14.166  16.249  11.441 -0.0667  0.2686 -0.0066
24070W        W40544   5.943   8.735  11.546  0.0377 -0.1383  0.1565
24071W        W40545   0.401   4.388   4.528 -0.3677 -0.3096  0.2769
24072W        W40546  14.639   1.637  11.672 -0.1821 -0.1635  0.2003
24073W        W40547  11.501  17.028   4.911  0.5824  0.1780 -0.1411
24074W        W40548  17.108  11.664   1.366 -0.0988  0.1070  0.0076
24075W        W40549   1.982  13.947  12.350  0.4225  0.2830  0.1043
24076W        W40550   9.981   9.505  11.375 -0.1936  0.2009  0.0430
24077W        W40551  16.040   9.754  13.214 -0.1029 -0.0396  0.0697
24078W        W40552   3.913  13.583   0.998 -0.2869 -0.1102  0.2755
24079W        W40553  10.075   0.081  12.530 -0.2329  0.0239 -0.1481
24080W        W40554   9.616   8.627   1.322  0.3607  0.2352 -0.1934
24081W        W40555   9.137   5.529  11.525  0.1031 -0.1270  0.1174
24082W        W40556  12.366   9.397   4.872 -0.1836 -0.1353  0.1366
24083W        W40557  10.227   0.910   3.460 -0.0161 -0.0861 -0.1724
24084W        W40558  10.551  10.057  14.781 -0.0877 -0.1976  0.2044
24085W        W40559  13.342  15.726   5.537  0.0761 -0.0812  0.0897
24086W        W40560   7.429   1.132   0.064 -0.0058  0.0572  0.1680
24087W        W40561  14.181   7.022  12.563 -0.3325  0.1396  0.1952
24088W        W40562   5.245  16.598  11.818  0.0848 -0.0158 -0.0142
24089W        W40563  13.957  10.459   3.707  0.2470  0.1808  0.2804
24090W        W40564   6.659   6.236  15.160 -0.1653  0.2090 -0.0102
24091W        W40565   7.436   2.000   0.240 -0.0345 -0.1046 -0.0079
24092W        W40566   8.547   1.674   3.788  0.0177  0.0552 -0.0245
24093W        W40567   1.947   6.888  14.507  0.1806  0.0362  0.0073
24094W        W40568  16.924   2.862   3.837  0.1375 -0.1027 -0.1443
24095W        W40569   2.437  12.543   4.103 -0.0788 -0.0748 -0.0416
24096W        W40570  11.751  12.468   4.840  0.2325 -0.2949 -0.3050
24097W        W40571  13.761  18.029   2.462 -0.3769  0.1034 -0.1675
24098W        W40572  12.128   3.769  15.497  0.2200 -0.1230  0.0589
24099W        W40573   1.123  13.977   3.716 -0.1476 -0.2252 -0.1027
24100W        W40574   4.857  11.915  12.456  0.0692 -0.0069  0.3984
24101W        W40575  18.710  10.657   1.458 -0.0996  0.0984 -0.2073
24102W        W40576   6.478   0.717   1.284  0.0100  0.2518  0.2515
24103W        W40577   2.253   3.418  11.445  0.2051  0.4230 -0.0628
24104W        W40578   8.691  15.446  12.986  0.1581  0.0733  0.2032
24105W        W40579  13.613   3.212  15.237  0.0647  0.4492  0.2360
24106W        W40580  13.543  13.589   3.668  0.0598 -0.0168  0.3085
24107W        W40581  13.627  12.796   0.178  0.0054  0.0124  0.0033
24108W        W40582  13.441  10.550   0.085 -0.0326 -0.2695 -0.0793
24109W        W40583   6.707   0.158  15.290 -0.1626  0.0844  0.2141
24110W        W40584   0.614   5.975   4.593  0.3284 -0.1746 -0.2437
24111W        W40585  17.623  18.356   0.673 -0.2035 -0.0055 -0.1091
24112W        W40586   6.404   5.115   2.939  0.3611 -0.0668 -0.1883
24113W        W40587  17.246  12.123   0.688  0.2277  0.0399 -0.0230
24114W        W40588  12.331  14.514  13.283  0.0685 -0.0609 -0.3715
24115W        W40589  14.042   5.555   2.149  0.1864  0.2821 -0.1614
24116W        W40590  11.975   7.413   2.720 -0.1211 -0.3650 -0.2308
24117W        W40591   8.749  13.598   3.481 -0.2140  0.0097  0.4371
24118W        W40592  13.165  17.784  12.905  0.1189  0.0050  0.1338
24119W        W40593   3.325   0.747  11.527 -0.0111 -0.4304  0.0853
24120W        W40594  16.401   9.147   0.525 -0.1949  0.1095  0.0928
24121W        W40595   0.150  15.174   0.758  0.0022  0.0052 -0.0674
24122W        W40596   9.095   2.037   4.972 -0.1561  0.4129 -0.1910
24123W        W40597   6.608   5.757  13.707 -0.1006 -0.1432 -0.0203
24124W        W40598  13.954   8.926  13.217  0.2279 -0.2068  0.1567
24125W        W40599   6.468  17.600  12.852  0.0484  0.3708 -0.1929
24126W        W40600   0.530  13.350   3.589 -0.1582 -0.4027 -0.0986
24127W        W40601   9.597   6.718   4.808 -0.0152  0.2432  0.1625
24128W        W40602   2.390   2.538   1.509 -0.0997  0.1209  0.1092
24129W        W40603   0.448   9.597   2.419  0.2221 -0.2388  0.0602
24130W        W40604  18.057   0.316  12.820  0.2907  0.0403  0.2030
24131W        W40605  14.731  17.062   2.418  0.0690  0.1199 -0.1321
24132W        W40606   1.942  14.243   2.283 -0.1077  0.2151  0.0439
24133W        W40607   2.234  17.740  13.562  0.0885 -0.3899 -0.1304
24134W        W40608  18.668  13.921  11.083 -0.1861  0.2181 -0.0630
24135W        W40609  15.987  13.237  12.012 -0.1765 -0.1416  0.0506
24136W        W40610  15.476   6.472  14.202  0.0095 -0.1167  0.2282
24137W        W40611  12.272   6.729   2.048  0.0375  0.1030 -0.1443
24138W        W40612   5.636  15.475   4.543  0.0081  0.0320  0.0251
24139W        W40613   7.657   8.072   6.181 -0.0199 -0.0009 -0.1290
24140W        W40614  10.913  16.929   3.286 -0.1600  0.1151 -0.2395
24141W        W40615  15.473   4.402  12.669 -0.0607 -0.0200 -0.1733
24142W        W40616   1.586   8.644   5.289 -0.1325  0.3347 -0.2488
24143W        W40617   0.038   3.691  11.040 -0.1279  0.0928  0.5925
24144W        W40618  13.209   9.879   4.534  0.0346 -0.1817  0.0256
24145W        W40619  17.875  18.450   2.812  0.2940  0.0613 -0.1110
24146W        W40620   8.342   2.016   3.108 -0.0360 -0.2171 -0.1849
24147W        W40621  17.214  13.290  11.789  0.0775 -0.3331  0.1524
24148W        W40622  15.160   8.828  14.794  0.1640 -0.0182 -0.3172
24149W        W40623   8.490  11.022   0.537 -0.0102  0.0305  0.0436
24150W        W40624   8.737  13.583  15.350 -0.1542 -0.1746 -0.2221
24151W        W40625   5.082   6.148  11.049 -0.0672  0.0059 -0.1124
24152W        W40626   1.239  17.155   3.920 -0.0120  0.0844  0.1615
24153W        W40627  17.887  11.983   3.998  0.1961  0.0652 -0.3715
24154W        W40628  11.051  15.862   2.596 -0.0176 -0.2346  0.2129
24155W        W40629   5.337   1.371  11.552 -0.1425  0.0891 -0.0310
24156W        W40630   5.172   3.486  11.204  0.1483 -0.0640  0.0159
24157W        W40631   2.008   9.761  14.168 -0.0468  0.2206 -0.1414
24158W        W40632  11.751   0.781   2.064  0.1585  0.4016  0.1682
24159W        W40633  12.196  13.652  14.355 -0.1487 -0.0941 -0.2693
24160W        W40634  14.973   4.157   0.174 -0.1669 -0.3329  0.3184
24161W        W40635   8.025   8.729  11.900  0.3032 -0.1822  0.3882
24162W        W40636  15.047   6.181  14.099 -0.0730  0.3119 -0.2506
24163W        W40637   8.897  12.971   0.463 -0.2731  0.0855  0.1052
24164W        W40638  12.077  10.734  11.446  0.0529 -0.3389 -0.1874
24165W        W40639   6.454  12.134   3.499 -0.2044  0.0219  0.2633
24166W        W40640  10.951   2.644  11.952 -0.0278  0.1077  0.0920
24167W        W40641  13.826  11.906   1.974 -0.0182 -0.1326  0.1706
24168W        W40642  15.000  16.503   1.600 -0.3603 -0.1366 -0.0338
24169W        W40643  17.557   0.088   3.845 -0.0126  0.1215  0.3434
24170W        W40644  14.038   0.395  10.820 -0.2755  0.0483 -0.4465
24171W        W40645   2.260   5.442  13.951 -0.0910 -0.1315  0.1473
24172W        W40646  15.914   6.139   1.671 -0.0935 -0.0796 -0.3270
24173W        W40647   2.861   3.496  14.760  0.1789  0.4576  0.0071
24174W        W40648  15.616  15.908  15.192  0.3429 -0.1813  0.1768
24175W        W40649  11.073  10.628  14.406  0.2010  0.2952  0.0318
24176W        W40650  11.049  13.493  12.382  0.1062 -0.3549  0.4034
24177W        W40651   7.992  18.529  13.718  0.2094  0.0306  0.0258
24178W        W40652  16.712   2.193   2.936 -0.1147  0.0003  0.1145
24179W        W40653   4.721   1.669  11.039  0.0867  0.1221 -0.6353
24180W        W40654   3.149  16.689   1.541 -0.0394  0.0846  0.0658
24181W        W40655  10.815  10.240  11.944  0.1522  0.3452  0.2908
24182W        W40656   0.584  12.611  14.148  0.4053  0.3548 -0.1536
24183W        W40657  17.126  16.930  11.872  0.1575 -0.2450 -0.0027
24184W        W40658  10.646  12.281   0.218  0.1476 -0.1073 -0.3779
24185W        W40659  17.607  15.253  12.674 -0.1136 -0.0241  0.1366
24186W        W40660   3.466  18.331  14.053  0.2732 -0.2182  0.1411
24187W        W40661   0.441  12.778  15.198  0.0459 -0.0872 -0.0508
24188W        W40662  13.688   3.928  14.694  0.2451 -0.2446 -0.1606
24189W        W40663  17.339  17.831   3.904 -0.2992  0.0643 -0.0008
24190W        W40664   5.652   7.948  12.371 -0.1915 -0.1218 -0.4296
24191W        W40665   5.131  16.818   1.802  0.2395 -0.0864  0.1681
24192W        W40666   0.255  16.161   1.653  0.1572 -0.2228  0.0324
24193W        W40667  11.801  17.403   4.772  0.0730  0.2714 -0.1958
24194W        W40668   4.687   0.768  15.297  0.2244  0.1552 -0.1418
24195W        W40669   8.063  10.240   1.229  0.1289 -0.0782  0.3845
24196W        W40670  15.913  18.030  14.340  0.0829  0.1355 -0.1130
24197W        W40671   2.566  11.619  11.416  0.0121 -0.0395 -0.0632
24198W        W40672  10.338   0.076  10.714 -0.2234 -0.0949  0.2311
24199W        W40673  13.134  14.099   2.744 -0.1182 -0.3936 -0.1085
24200W        W40674  17.730  12.736  11.334 -0.0070  0.0057  0.3510
24201W        W40675   5.024  15.691  10.710  0.0152  0.0784  0.2377
24202W        W40676   1.932   3.669  14.903  0.2833  0.0192 -0.2905
24203W        W40677  15.497  10.151   1.070  0.1500 -0.2194 -0.1366
24204W        W40678   5.097  13.686   3.039  0.0968  0.0549 -0.0545
24205W        W40679   6.294   4.487   0.380  0.0334  0.3302  0.0287
24206W        W40680  13.119  17.915   4.266 -0.0513 -0.0709  0.2493
24207W        W40681  10.359   8.501   0.646 -0.2011  0.2657 -0.1287
24208W        W40682   2.074   8.577   1.886  0.0670  0.1427  0.0178
24209W        W40683  11.701   6.004   3.878 -0.4617 -0.0048  0.2492
24210W        W40684  15.517   0.823   2.960  0.1939 -0.1691  0.1689
24211W        W40685  12.256  13.649  11.522 -0.0538  0.1838 -0.0142
24212W        W40686   6.461   5.242   3.988 -0.0617  0.0282 -0.2598
24213W        W40687   0.282   3.089  13.126  0.2902 -0.2053 -0.1985
24214W        W40688   0.483  15.678   3.465  0.2908 -0.1318 -0.0752
24215W        W40689   0.743   1.288  13.431 -0.1821  0.1007 -0.1084
24216W        W40690   0.325   2.063   3.114 -0.3886 -0.3592 -0.3468
24217W        W40691   4.626  17.756  14.167 -0.0721  0.1967 -0.0297
24218W        W40692  15.866  12.404   0.320  0.2890  0.0163  0.1586
24219W        W40693  11.948  11.162   2.870 -0.2768  0.1920  0.2497
24220W        W40694  17.203   8.674  14.673 -0.0363  0.0450  0.3961
24221W        W40695   0.329  16.554   2.852 -0.2971 -0.0176 -0.0183
24222W        W40696  16.589   4.845  13.521 -0.0665  0.0409 -0.0402
24223W        W40697  13.476  16.498   1.663  0.3074  0.3583  0.2041
24224W        W40698  11.642   5.928   0.597 -0.1283 -0.2151  0.0295
24225W        W40699  15.437  14.036   3.468  0.2286 -0.1206 -0.0361
24226W        W40700   4.064   0.295   4.618 -0.2221  0.1955  0.0616
24227W        W40701   0.389  11.489   4.795 -0.1318 -0.4377  0.1956
24228W        W40702  11.715   8.826   0.428  0.1732 -0.3702  0.4117
24229W        W40703   0.020  12.347   1.304  0.1214 -0.0747 -0.1977
24230W        W40704   6.822  13.896  14.081  0.0920  0.0588  0.2446
24231W        W40705   7.114  13.032  11.393  0.1576  0.0885  0.1537
24232W        W40706   9.004   3.998  12.358  0.0292  0.0810  0.0160
24233W        W40707   9.670   6.279   4.463 -0.0158  0.1323  0.0466
24234W        W40708  16.669  14.926   1.627 -0.2192  0.1302 -0.0356
24235W        W40709  15.619  10.112   2.583  0.3306 -0.1420 -0.1498
24236W        W40710  17.319   2.739   5.148 -0.1889 -0.1145  0.1090
24237W        W40711   6.970   5.420  13.051  0.2430  0.0965 -0.3161
24238W        W40712  18.663   3.317   3.659 -0.0969 -0.0093  0.2441
24239W        W40713   3.130  10.383   1.577 -0.0184  0.0890  0.2055
24240W        W40714  17.313   0.030  14.450 -0.3317 -0.1143  0.0014
24241W        W40715  11.773   2.790  14.557  0.0016 -0.0481 -0.0688
24242W        W40716  13.391   6.716   1.098 -0.2244  0.3310  0.3376
24243W        W40717  10.390   3.643   4.900  0.0857  0.0158 -0.3175
24244W        W40718  11.457  12.554   2.966 -0.3255 -0.2059 -0.0590
24245W        W40719  13.050   4.743  12.984  0.0831  0.3459 -0.1034
24246W        W40720  14.683  18.402  14.843  0.1867 -0.0397 -0.0715
24247W        W40721   7.614  15.998   2.094 -0.4340  0.0478  0.2376
24248W        W40722   6.767   6.364   1.053  0.0291  0.0714  0.0688
24249W        W40723  13.347   8.376  11.745  0.1898 -0.2048  0.0494
24250W        W40724   8.175  11.497  11.703 -0.1191 -0.1716  0.2414
24251W        W40725   5.250   2.109  12.341 -0.2260 -0.1889 -0.1051
24252W        W40726  18.537   9.777  12.937 -0.0846  0.2039 -0.0883
24253W        W40727  11.048  13.627   0.614 -0.3067 -0.0288 -0.1649
24254W        W40728  12.539  14.895   1.038  0.0230  0.3547 -0.1377
24255W        W40729   7.087   1.819  10.993  0.1130  0.2853 -0.1235
24256W        W40730   2.898  10.715   3.141 -0.2363 -0.1203  0.0288
24257W        W40731   6.754  16.288   2.666 -0.2615  0.0197  0.0199
24258W        W40732   3.148  10.810   0.586 -0.2223  0.3285 -0.1150
24259W        W40733  18.558  13.244   2.404  0.0637  0.0985  0.3933
24260W        W40734   9.529  10.689   3.249 -0.1576 -0.0044 -0.2001
24261W        W40735   1.293   6.957  12.512 -0.0620  0.0573 -0.1187
24262W        W40736  10.574   4.738   0.583 -0.2571  0.2123 -0.1747
24263W        W40737   8.120  17.717  14.294  0.2011  0.0766  0.0862
24264W        W40738   8.693   7.064   4.829 -0.0723  0.0203 -0.3963
24265W        W40739  18.612  11.678   0.184 -0.0269  0.2983  0.0562
24266W        W40740  16.454  18.425  11.165 -0.3628  0.1544  0.1530
24267W        W40741  10.993  17.703   0.284 -0.1807 -0.0506  0.1970
24268W        W40742   3.838   4.959  11.166  0.2104 -0.0976 -0.0664
24269W        W40743  16.309  12.435   9.460 -0.0938  0.0868 -0.5063
24270W        W40744  15.250   3.052  13.487  0.2159  0.4275 -0.1531
24271W        W40745  15.636   6.287  15.217  0.0752 -0.0806  0.2556
24272W        W40746  16.497   7.865  14.207 -0.3700  0.0623  0.1563
24273W        W40747  16.713   8.476  13.335 -0.1748  0.2853  0.1695
24274W        W40748   0.290  12.842   4.222 -0.1208 -0.2604  0.2130
24275W        W40749   1.373   6.936  14.374  0.3624 -0.4892 -0.1108
24276W        W40750   1.196  10.720   0.601 -0.1037 -0.2057 -0.1350
24277W        W40751  16.409  15.020  11.922  0.2500  0.2027 -0.0415
24278W        W40752   9.102  16.920   2.549 -0.1776  0.0201  0.0084
24279W        W40753   8.166   6.435   3.373 -0.3512  0.0350 -0.3634
24280W        W40754   3.825   9.040  14.709  0.1409 -0.1613  0.1138
24281W        W40755  12.487  12.805  13.169 -0.4380 -0.0624 -0.2104
24282W        W40756  13.006   4.603  13.767  0.0726  0.0958 -0.2437
24283W        W40757   0.400  10.536   1.958 -0.1214 -0.0849  0.3072
24284W        W40758  15.815  11.631   4.442  0.0326  0.2537 -0.1648
24285W        W40759   9.785  18.227   1.389  0.0276  0.0238 -0.0443
24286W        W40760  16.765   8.718  14.955 -0.1923 -0.2203 -0.1587
24287W        W40761   9.674  16.395   2.878 -0.1775 -0.2150 -0.0703
24288W        W40762  13.587  15.806  12.109  0.0027  0.1628  0.2422
24289W        W40763  12.384   6.597   4.865 -0.2080 -0.1963 -0.0804
24290W        W40764  13.370   5.070   2.493  0.2235  0.4015  0.0903
24291W        W40765   1.367  10.764   0.030 -0.0857 -0.0057 -0.0946
24292W        W40766   4.253  15.909  11.231  0.0325 -0.0106  0.0136
24293W        W40767   1.135  16.657   4.207  0.3030 -0.1286  0.0389
24294W        W40768   0.758  18.122   2.259 -0.1214 -0.0029  0.2548
24295W        W40769  16.323  13.131   0.572 -0.1810  0.0312  0.2312
24296W        W40770  18.362   0.626  12.583 -0.0926  0.1596 -0.1486
24297W        W40771  12.493   8.889  14.811 -0.1993  0.0005  0.0061
24298W        W40772   7.340   0.700   0.452  0.0191 -0.4833  0.0811
24299W        W40773  18.429   6.031  11.562 -0.0004  0.0123 -0.3292
24300W        W40774   1.764  11.565   3.599  0.0280  0.3225  0.1526
24301W        W40775   7.509   5.251   1.313  0.2011 -0.1539  0.2718
24302W        W40776   8.288   1.424  15.678  0.1195  0.0545 -0.3267
24303W        W40777   7.296  10.260  11.502  0.2523  0.2031 -0.1267
24304W        W40778  11.623  13.116  11.056 -0.2784 -0.3120 -0.1057
24305W        W40779   2.706  14.202   2.875  0.1765  0.0482 -0.0574
24306W        W40780  14.250   8.723   5.284 -0.1479 -0.0926  0.0428
24307W        W40781  11.508  16.566   4.722 -0.2091  0.1564 -0.2430
24308W        W40782   2.767  15.461   2.127  0.1722  0.0482 -0.1999
24309W        W40783  12.966  18.035   0.105 -0.1646 -0.3111 -0.1495
24310W        W40784  17.324  15.417  15.232 -0.4359 -0.0709 -0.1581
24311W        W40785   0.233  14.159  11.219  0.1739  0.1776  0.0900
24312W        W40786   0.979  14.670   4.721  0.2104 -0.2577 -0.0945
24313W        W40787  14.220  11.587  14.904  0.2395  0.1092  0.1374
24314W        W40788   4.962   1.142  14.580  0.0417  0.0322 -0.1619
24315W        W40789  11.150   3.175   6.248 -0.0853 -0.0879 -0.1286
24316W        W40790   0.968   8.171   3.580 -0.2347 -0.4231  0.3574
24317W        W40791  11.720  18.140  12.111  0.4278  0.0593 -0.1600
24318W        W40792   8.007  17.529  12.562 -0.1103 -0.1323 -0.0510
24319W        W40793  11.122  10.677   3.939 -0.0339  0.2835 -0.0225
24320W        W40794  16.242   9.568   3.889  0.2608 -0.0527  0.0303
24321W        W40795   1.718   8.977  11.036  0.3836  0.2623 -0.0867
24322W        W40796   3.956  16.951   3.874 -0.0503  0.1563  0.1808
24323W        W40797   7.373   9.419   4.704 -0.0058  0.1443 -0.3003
24324W        W40798   7.234  17.376  12.088  0.2289  0.3040 -0.0805
24325W        W40799  13.929   5.091   2.436  0.2067 -0.2215 -0.0112
24326W        W40800   0.281  12.811   0.023  0.0645  0.0582 -0.1483
24327W        W40801   1.599  11.856  14.987 -0.0603 -0.0343 -0.1723
24328W        W40802  14.999   3.210  14.686  0.3177  0.0353 -0.1212
24329W        W40803  10.973  14.221   1.925  0.1886 -0.0507  0.2332
24330W        W40804   9.728   9.639   0.406 -0.0973  0.1522  0.0848
24331W        W40805  12.903  10.875   1.398 -0.1535 -0.1077 -0.0397
24332W        W40806   5.220  16.624  13.575 -0.2907  0.3019 -0.0937
24333W        W40807   3.618   8.198   0.140 -0.1390 -0.1432 -0.2582
24334W        W40808   6.244  10.757   0.921 -0.1998  0.2380  0.1954
24335W        W40809   3.743   3.222   1.530  0.0600  0.0347  0.0881
24336W        W40810  10.495  17.556   1.591 -0.0791  0.1107  0.1756
24337W        W40811   0.040   0.820  13.967 -0.1440  0.0673  0.1669
24338W        W40812   6.936   3.831  12.579 -0.1742 -0.2116  0.0115
24339W        W40813  14.576  12.930   0.207  0.1911 -0.2886  0.1179
24340W        W40814  15.384   3.643  12.303  0.2854 -0.2609 -0.1273
24341W        W40815  13.900   8.406  12.321 -0.0471  0.3005 -0.1800
24342W        W40816   4.244   1.442  15.348  0.0896 -0.1547  0.1052
24343W        W40817  13.937   9.858   0.502 -0.0713  0.1036  0.1515
24344W        W40818  13.970  18.799  13.109 -0.3599  0.0948  0.0893
24345W        W40819   9.825  11.633   2.251  0.1656  0.3051  0.2082
24346W        W40820   5.599  14.772   1.342  0.1822 -0.1989 -0.1696
24347W        W40821   0.961   9.155   0.416  0.2562  0.1443  0.2989
24348W        W40822  18.305   7.309  12.825  0.2672  0.1219 -0.1523
24349W        W40823   9.430  13.473  11.101  0.2177  0.0703 -0.2148
24350W        W40824   8.933   8.887  11.263  0.3944 -0.2637  0.1345
24351W        W40825   0.457   6.461  12.831  0.1434  0.2851  0.2388
24352W        W40826  15.785   8.934  11.765  0.2659 -0.1297  0.1528
24353W        W40827  13.537   6.211  14.383  0.1427 -0.0546  0.0070
24354W        W40828   5.153   8.018  12.638 -0.0016 -0.2895  0.2254
24355W        W40829  18.725  16.579   2.877 -0.0090  0.6135  0.0440
24356W        W40830   9.470  10.342  15.056  0.0666  0.0331 -0.1839
24357W        W40831  12.051   1.288   1.223 -0.1461 -0.1777  0.0322
24358W        W40832   3.424   5.493   3.727 -0.0219  0.0610 -0.1641
24359W        W40833  17.169  13.907   3.207 -0.2275  0.0787 -0.0594
24360W        W40834  10.826  13.770  12.005 -0.2688  0.2301 -0.0563
24361W        W40835  15.931  12.110   3.459  0.0919 -0.0873  0.0882
24362W        W40836   9.649  10.941   2.793 -0.1922  0.2190 -0.1017
24363W        W40837   6.687   9.998   4.419  0.1899 -0.0213  0.1613
24364W        W40838  10.434   9.770   0.950 -0.0980  0.2410  0.1130
24365W        W40839  18.578   0.735  10.419  0.0039 -0.4481 -0.0303
24366W        W40840   9.288  16.584  12.633 -0.0904  0.2535 -0.0577
24367W        W40841  11.597  18.236  14.806 -0.0090  0.0813  0.0316
24368W        W40842   9.107  14.564   5.785 -0.1650 -0.1313  0.0366
24369W        W40843   5.241  11.788  14.875  0.0126  0.0556 -0.1051
24370W        W40844   2.098   9.665   1.990 -0.3005  0.3123 -0.0385
24371W        W40845  11.719  15.174  13.230 -0.1385  0.1059  0.4159
24372W        W40846  17.827  10.196  13.345  0.0487  0.5201 -0.1039
24373W        W40847  16.991  13.372  10.690  0.0354 -0.0423  0.1345
24374W        W40848   8.611   5.575   6.430  0.4426  0.1796 -0.0633
24375W        W40849   1.467   5.693  11.849 -0.1910  0.1377 -0.1291
24376W        W40850   6.516  17.491  13.336 -0.0278  0.0302 -0.2278
24377W        W40851  10.852  18.137  13.095  0.3033  0.1894 -0.1460
24378W        W40852  18.787  13.195  11.370  0.0274  0.0106  0.0156
24379W        W40853  13.553   9.240   0.867 -0.0542 -0.1510  0.2360
24380W        W40854  10.238   6.579   0.091  0.4200  0.2266  0.1302
24381W        W40855  16.375  15.114   3.218 -0.0089 -0.1092 -0.0274
24382W        W40856  17.693  12.025  11.233 -0.1163  0.1186  0.0539
24383W        W40857   8.253  17.482   6.328  0.1532  0.1842 -0.1256
24384W        W40858   1.593  10.338   4.147 -0.0768  0.3661 -0.1253
24385W        W40859   6.668  13.408   4.671  0.1614 -0.1773 -0.3637
24386W        W40860   6.367   6.126   0.938  0.0362  0.0435 -0.0861
24387W        W40861   4.958  18.517  15.545  0.2700 -0.0738 -0.1758
24388W        W40862   8.092   2.337  14.470  0.3266 -0.0899  0.1889
24389W        W40863  14.604   6.806   0.255  0.1077 -0.3107  0.2000
24390W        W40864   3.655  16.004   0.061  0.1237  0.1641  0.1950
24391W        W40865   2.665   7.026  13.316  0.0969 -0.1256  0.0080
24392W        W40866   6.894   4.977   1.727  0.1650  0.2989 -0.3085
24393W        W40867   3.056   1.976  11.139  0.0254  0.0468  0.0188
24394W        W40868   5.997   9.900  10.034  0.2073  0.1680 -0.1331
24395W        W40869   7.082   9.383  13.400  0.0253  0.0643 -0.1950
24396W        W40870  12.807  13.002  12.352 -0.1304 -0.0702 -0.0467
24397W        W40871   4.621   4.066   2.732  0.0863  0.0927 -0.3059
24398W        W40872   9.116   6.382  13.610  0.2465  0.2906 -0.1244
24399W        W40873  16.423   8.400  14.395  0.1005  0.0693  0.2691
24400W        W40874  18.119  15.255   4.453 -0.0584 -0.0228  0.2567
24401W        W40875   7.365   6.868  13.892 -0.0544  0.0300  0.0381
24402W        W40876   0.023   4.095   4.743  0.0463  0.0558 -0.0515
24403W        W40877   3.134  11.540   1.538  0.1349  0.2335  0.1555
24404W        W40878  15.968  10.734   0.961 -0.0354 -0.2154 -0.2153
24405W        W40879  12.771   8.569  12.864 -0.3593 -0.1357  0.3819
24406W        W40880   6.079   6.478   0.605  0.0968 -0.1885  0.1724
24407W        W40881   3.432   2.775   5.425  0.0119 -0.0697  0.2108
24408W        W40882   1.497  13.072  13.736  0.2844  0.0982  0.0428
24409W        W40883  14.830  15.950  13.385 -0.2087 -0.0515 -0.0272
24410W        W40884  17.959  15.930  14.912  0.1748  0.2095 -0.0611
24411W        W40885   7.843   3.208  14.999  0.0349 -0.1312 -0.0141
24412W        W40886  14.130  12.151  14.397  0.0923 -0.0718  0.2260
24413W        W40887   1.040  11.899   4.284 -0.1026 -0.3031  0.1517
24414W        W40888  11.589   1.657   1.613  0.0950 -0.1756  0.3016
24415W        W40889  16.112  13.162   4.342  0.3700  0.2350  0.1054
24416W        W40890   6.781  13.667  14.534  0.2398 -0.0642  0.0765
24417W        W40891  18.041  11.940   3.457  0.0590  0.2277  0.1482
24418W        W40892   1.211  18.345   0.106 -0.0518  0.1499  0.0416
24419W        W40893  18.006   4.198   0.668 -0.3313  0.0412 -0.2058
24420W        W40894  17.604  10.016  11.630  0.1577  0.2110  0.0210
24421W        W40895   5.489   8.261  14.364  0.3727 -0.0763 -0.0321
24422W        W40896   2.334  15.868   0.082  0.0021  0.4088 -0.1541
24423W        W40897   4.846   0.860  10.883 -0.1634 -0.0713  0.0271
24424W        W40898  15.133  18.652   3.438  0.1347 -0.0500  0.0396
24425W        W40899  18.470   0.644   4.227 -0.0470 -0.0878  0.2382
24426W        W40900   0.951  16.826  13.063 -0.0737 -0.1337  0.3143
24427W        W40901  10.611   7.371  13.511  0.0645 -0.0937 -0.2490
24428W        W40902   1.391  11.790   0.266  0.0949 -0.1745  0.2162
24429W        W40903   9.979   5.569   5.328 -0.0007  0.5701  0.1663
24430W        W40904   5.819   9.108   2.882  0.3427  0.2762 -0.4759
24431W        W40905  17.032  15.777  14.543 -0.1267 -0.1070 -0.1119
24432W        W40906  17.462  17.642  13.155 -0.1562 -0.0901  0.0383
24433W        W40907   0.363  13.029   4.846  0.3954  0.0540 -0.1383
24434W        W40908   8.851   8.520  11.580  0.1644 -0.0885 -0.1416
24435W        W40909   3.360   1.184   2.477 -0.1890  0.0279  0.0153
24436W        W40910   0.823  17.091   0.588  0.2907 -0.4748  0.1511
24437W        W40911   6.871   5.247   3.722  0.3774  0.2043 -0.0931
24438W        W40912   4.220   4.376   5.102  0.2329 -0.0900 -0.0602
24439W        W40913  18.657  17.017   4.494 -0.3370 -0.0543 -0.0622
24440W        W40914   0.533  18.702  14.781 -0.0440 -0.1317  0.2158
24441W        W40915   7.730   2.786  14.771 -0.1186  0.0126  0.0217
24442W        W40916   6.917   2.245  12.543  0.2780 -0.1115  0.1389
24443W        W40917   4.917  15.141  11.680  0.0426 -0.0279  0.1918
24444W        W40918  13.054  18.760   0.720  0.0589  0.1882  0.0623
24445W        W40919   0.791  13.669  14.540  0.0819 -0.0452 -0.3072
24446W        W40920   1.424   9.231   0.930  0.0421 -0.1764 -0.3165
24447W        W40921  17.043   1.233  13.927  0.1407  0.0116 -0.0171
24448W        W40922  15.495   5.840   3.025 -0.0272  0.1703 -0.2555
24449W        W40923   1.334  11.465  15.263  0.1179 -0.0802  0.1027
24450W        W40924   9.941  10.079   6.316  0.1502 -0.3743 -0.0401
24451W        W40925  17.952  10.806  12.123  0.1140 -0.0091  0.3347
24452W        W40926  16.624  12.736  12.198 -0.3505  0.1853  0.0854
24453W        W40927  16.269  14.495   1.139 -0.2076 -0.0197 -0.2480
24454W        W40928  10.598  18.211   1.768  0.0205  0.0254 -0.2742
24455W        W40929  11.955  17.593   0.513  0.3356 -0.0389 -0.1398
24456W        W40930  18.239   0.440   0.864  0.2384  0.1722  0.1453
24457W        W40931  15.073  10.751   0.683 -0.1816  0.0693 -0.3480
24458W        W40932   9.253  13.828   5.072 -0.3117 -0.0612  0.1752
24459W        W40933  18.139  11.345  13.287  0.2201  0.2935  0.1405
24460W        W40934   9.383  10.927  12.279 -0.0696 -0.4521 -0.3936
24461W        W40935  15.527   2.186   3.967  0.0924  0.2025 -0.0568
24462W        W40936   9.581   5.568   5.849  0.1000 -0.2481 -0.0312
24463W        W40937  10.070  14.513   3.850  0.2648 -0.0028 -0.0067
24464W        W40938   3.779   5.853   3.439  0.1452  0.2154  0.0691
24465W        W40939   2.800   8.580   0.120  0.4169 -0.0145  0.2426
24466W        W40940   6.676  18.539   2.078 -0.0224 -0.0794 -0.0274
24467W        W40941  12.129   0.223   3.173  0.1853  0.1839  0.2392
24468W        W40942   3.547   6.040  11.850  0.1188 -0.1854  0.0642
24469W        W40943  16.061  15.091   0.332 -0.0143  0.0182  0.2769
24470W        W40944   2.605   1.842  15.132  0.1704  0.0474 -0.2100
24471W        W40945   6.187   6.288  15.503  0.2062  0.1233 -0.1370
24472W        W40946   3.489   6.820  15.305 -0.0523  0.1736 -0.1532
24473W        W40947   6.217  17.235   2.275  0.1793  0.5627  0.0266
24474W        W40948  10.452  17.660   2.536  0.0135 -0.1845  0.3427
24475W        W40949  15.170  12.387   0.091  0.0888  0.1743 -0.3412
24476W        W40950   3.507   0.556   6.066  0.0517 -0.1814  0.3439
24477W        W40951  17.148   9.553  12.806  0.1467 -0.0092 -0.3036
24478W        W40952  14.146  14.544  13.044  0.2552  0.2791  0.0833
24479W        W40953   6.472  16.333   5.014 -0.0822 -0.3674  0.1802
24480W        W40954   9.752   4.336   0.948  0.1559  0.0600 -0.1828
24481W        W40955   3.764  16.047   1.029  0.0706  0.1106 -0.1918
24482W        W40956   0.062  17.040  12.990 -0.0669 -0.1633  0.5200
24483W        W40957  14.371   8.796  11.099  0.0523 -0.2086  0.2649
24484W        W40958   8.244  16.922   4.257 -0.0194 -0.0226  0.0219
24485W        W40959   7.132   5.770  13.503  0.2194 -0.0523 -0.1618
24486W        W40960   9.015   4.102  13.828  0.1114  0.0613  0.2180
24487W        W40961   9.289  15.325  12.604  0.2908 -0.1347  0.1235
24488W        W40962   7.655   4.643  10.544  0.0174  0.2224 -0.0466
24489W        W40963   6.186   1.319   4.096  0.1191  0.2808 -0.1842
24490W        W40964  18.271  13.995   3.901  0.1688  0.1659 -0.0620
24491W        W40965   4.288   1.600  11.384 -0.2367 -0.4086 -0.0691
24492W        W40966  12.156   6.556   2.615  0.0493 -0.3444  0.3068
24493W        W40967   8.820  11.786   0.439  0.1192  0.0425 -0.1680
24494W        W40968  15.384  16.746  11.014 -0.0292  0.3359  0.1999
24495W        W40969  13.873   6.526  14.197 -0.1930  0.1057  0.1379
24496W        W40970   3.058  11.746  12.869 -0.1359 -0.0949 -0.1176
24497W        W40971  13.031   7.609   4.403 -0.2585 -0.0694 -0.1160
24498W        W40972  10.543  18.284  13.849  0.0003  0.2180 -0.0082
24499W        W40973   8.094  13.807   3.945 -0.1199 -0.2708 -0.0270
24500W        W40974   8.167  13.489   0.336  0.1647 -0.0551 -0.1168
24501W        W40975   9.226  14.613  13.238  0.0365 -0.0244 -0.1050
24502W        W40976   2.091  13.574  14.267 -0.2929  0.1069  0.3008
24503W        W40977   6.399   2.342  15.309 -0.0645  0.1013  0.2001
24504W        W40978  15.923   6.642  15.021  0.1259 -0.1770  0.1216
24505W        W40979  10.056   6.820  13.482  0.1983  0.0162 -0.1071
24506W        W40980  12.069  15.389  14.820 -0.1912 -0.2696 -0.2103
24507W        W40981  18.329  18.603  14.711  0.0186 -0.1253 -0.0989
24508W        W40982  12.331   9.213  14.350 -0.0552 -0.0862  0.0725
24509W        W40983   3.550   9.865   0.773  0.1327 -0.1027 -0.0420
24510W        W40984   6.080  11.531  12.345 -0.6297 -0.1285  0.0754
24511W        W40985   2.126   7.078   3.020 -0.0770  0.4143 -0.0929
24512W        W40986   5.261  18.485  11.286  0.2477  0.0364  0.0776
24513W        W40987   0.632   3.053   4.001 -0.0921  0.2677 -0.1800
24514W        W40988   7.788   7.754  11.815 -0.0510  0.0414 -0.2579
24515W        W40989   0.947  10.095   0.061  0.1080 -0.1416  0.2192
24516W        W40990   2.432   6.707  10.572  0.1654  0.2860  0.1964
24517W        W40991  13.084   8.759  12.509  0.1544 -0.1412 -0.2696
24518W        W40992   8.759   2.468   5.548 -0.2538 -0.0164 -0.0393
24519W        W40993  13.316  16.662   2.261  0.0003  0.0135 -0.0223
24520W        W40994  17.413  13.827  12.875 -0.3093 -0.2047  0.0876
24521W        W40995   9.113   7.087  14.817 -0.0840 -0.0539 -0.3102
24522W        W40996   9.203   7.505   2.616 -0.0554 -0.0397  0.2665
24523W        W40997   9.136   6.655  12.392  0.2547 -0.1043  0.2776
24524W        W40998   3.260   1.754   1.736 -0.1311 -0.1661  0.2636
24525W        W40999  18.012  18.599   0.987 -0.0712  0.0025 -0.0779
24526W        W41000  16.507   7.000   4.355 -0.2610  0.1385 -0.1307
24527W        W41001   0.485  12.134  13.300 -0.0732  0.1505 -0.1475
24528W        W41002   9.602   3.130  11.890 -0.2535  0.0661 -0.1759
24529W        W41003  12.181  17.957  11.985 -0.0660  0.1703  0.1632
24530W        W41004   6.424   9.901   1.623  0.3525 -0.2742  0.2752
24531W        W41005   5.531   3.568  14.777 -0.0329 -0.3086 -0.3589
24532W        W41006  14.647  16.021  13.897 -0.0028 -0.0396  0.0300
24533W        W41007  10.668  10.341   2.355 -0.1348 -0.0450 -0.0233
24534W        W41008   5.155   0.110  14.573 -0.0333 -0.0469  0.0380
24535W        W41009   0.827   6.809   1.328  0.0024 -0.2844 -0.2014
24536W        W41010   0.501  10.712  14.701 -0.1433 -0.2444 -0.1056
24537W        W41011   4.828   3.489   2.635 -0.0544  0.1146  0.1304
24538W        W41012  12.058   1.392  12.201 -0.3218  0.1126 -0.1845
24539W        W41013   6.900  18.350  13.340  0.0230 -0.1911  0.2752
24540W        W41014   0.053  17.463   2.453 -0.3462  0.0651  0.1203
24541W        W41015  14.420   4.669  12.030 -0.2750 -0.1550 -0.2070
24542W        W41016   3.361   2.454  12.340 -0.1974  0.0765 -0.4013
24543W        W41017  13.054  15.768  13.823 -0.1375  0.1173  0.1655
24544W        W41018  11.766   5.744   1.626 -0.2046  0.3188  0.2933
24545W        W41019   4.154   9.149   0.473 -0.1659 -0.0266 -0.2289
24546W        W41020  13.633   7.873   1.962 -0.0501  0.2173  0.0529
24547W        W41021  16.694  17.065  10.347  0.2642 -0.1166 -0.1903
24548W        W41022  16.346  11.992  15.013  0.1354 -0.3555  0.0155
24549W        W41023  12.039   2.973  14.147 -0.0859  0.1851 -0.2180
24550W        W41024  13.727   0.658  13.515 -0.0876 -0.2629 -0.1514
24551W        W41025   9.780   0.679   0.836  0.2563  0.1878  0.0308
24552W        W41026   1.157  17.714  11.660  0.1000 -0.0139  0.2545
24553W        W41027  13.067   7.337  15.520  0.3302  0.0175 -0.3596
24554W        W41028   3.031   9.538  14.180  0.1532  0.1699 -0.1297
24555W        W41029   9.585  15.871   2.582  0.0262 -0.0516 -0.1755
24556W        W41030  10.385   6.151   3.880  0.0533 -0.0108  0.1047
24557W        W41031   5.080   9.461   5.488 -0.1993 -0.1582 -0.4661
24558W        W41032   8.950   3.178  13.331 -0.0858 -0.0105 -0.1286
24559W        W41033  10.972  18.120   2.170  0.0129  0.1982  0.0536
24560W        W41034   1.418   7.827   0.065  0.1477  0.1306  0.3442
24561W        W41035   8.516   5.069  15.500  0.1773  0.0979  0.1143
24562W        W41036  12.675  14.389   5.691 -0.1272 -0.4659 -0.0669
24563W        W41037   9.749   9.726  13.118  0.1375  0.0342  0.3289
24564W        W41038  14.176   5.371  14.270 -0.1158  0.5058  0.1187
24565W        W41039   9.546   7.886   2.872 -0.1602  0.1274  0.0136
24566W        W41040   0.350   0.387   2.952  0.0703 -0.3053  0.0344
24567W        W41041   0.151   9.811   0.655  0.1233  0.3903  0.2402
24568W        W41042   9.080   8.498  14.362  0.4256  0.0433  0.0209
24569W        W41043  18.382   5.497   0.763 -0.3814  0.1476 -0.0210
24570W        W41044   2.894   1.475   3.036 -0.0402  0.0283 -0.0098
24571W        W41045   3.987   6.275  10.975 -0.0231  0.1096  0.1490
24572W        W41046   0.206  12.320  13.712 -0.2428 -0.1816 -0.0173
24573W        W41047   2.526  13.433   0.140 -0.3156 -0.1255 -0.1621
24574W        W41048  17.338   4.103   1.502  0.0542  0.5350  0.0823
24575W        W41049  17.325   5.926   3.318  0.1183 -0.0728  0.1103
24576W        W41050  18.735  12.571   2.326 -0.0933 -0.0071 -0.1804
24577W        W41051   8.347  12.985   0.427 -0.2133 -0.0871 -0.4936
24578W        W41052  15.971  13.415   2.871  0.2443 -0.2794 -0.4823
24579W        W41053  11.929   6.282  13.182  0.2453 -0.0103 -0.3757
24580W        W41054  17.877   8.460  14.976 -0.1598 -0.1464  0.2220
24581W        W41055  10.302  12.186   2.428  0.2396 -0.1739 -0.2133
24582W        W41056   9.755   8.856  12.988 -0.2070  0.0437 -0.1487
24583W        W41057   3.716  13.279   3.033  0.3085 -0.0360  0.1615
24584W        W41058   4.565   5.233   4.080  0.1278  0.1727 -0.1732
24585W        W41059  18.541   7.670   3.656  0.0805 -0.0171  0.3788
24586W        W41060  14.602   8.718   1.250 -0.0777  0.0753  0.1640
24587W        W41061  11.834  17.976   2.787  0.1193  0.1349  0.0491
24588W        W41062   8.327  10.777   4.984  0.1682  0.1181  0.2328
24589W        W41063   2.657  11.984  13.356  0.2779  0.0978 -0.2488
24590W        W41064  15.650  16.586  14.098  0.1771 -0.2200 -0.3018
24591W        W41065   5.529  15.911   3.374 -0.0808 -0.1985  0.0866
24592W        W41066   7.801   5.424  11.097 -0.1466  0.1823  0.0552
24593W        W41067  11.366  13.632   3.290  0.2362 -0.1081 -0.3213
24594W        W41068   6.762  10.572   5.251 -0.0680  0.1577 -0.2408
24595W        W41069  18.248   0.175   2.860  0.1514  0.2033  0.0077
24596W        W41070   3.016   8.698  14.101  0.1330  0.0864 -0.0813
24597W        W41071   2.856  18.845   1.764 -0.1463  0.1440  0.0980
24598W        W41072  10.469  14.238   3.635 -0.0277  0.0884 -0.0459
24599W        W41073   8.009   0.834   1.839  0.0599  0.1125  0.1679
24600W        W41074   5.520  15.271  11.888 -0.0458 -0.1808  0.1482
24601W        W41075  10.081   0.383   2.439 -0.0435 -0.0680  0.1202
24602W        W41076   5.817   9.867  11.212 -0.0743  0.1836  0.1468
24603W        W41077   1.764  18.042   1.067 -0.4409  0.0481  0.2124
24604W        W41078   0.911  14.011  14.958 -0.1984 -0.0167  0.0183
24605W        W41079  16.894  18.689   4.454  0.0354  0.0303  0.1102
24606W        W41080   2.358  12.706  12.504  0.0410  0.1832  0.3824
24607W        W41081   5.824  17.202   2.935 -0.3537  0.0379 -0.2713
24608W        W41082  12.286  10.738  11.996  0.0047 -0.0439 -0.1603
24609W        W41083   0.999  15.071   1.155  0.0237  0.2044  0.2580
24610W        W41084  17.745   0.586   1.065 -0.0226  0.0092 -0.0141
24611W        W41085   9.574   1.950   3.356 -0.0890 -0.1829  0.1269
24612W        W41086  15.722   8.216  14.203 -0.1671  0.1729  0.3074
24613W        W41087   8.614   3.497  13.166 -0.0314  0.0880  0.1437
24614W        W41088   4.237  12.705   4.617  0.0280 -0.0003  0.2200
24615W        W41089   7.949   3.712   0.625  0.2260 -0.2141 -0.0515
24616W        W41090  11.337   7.951  13.673 -0.0251  0.0234  0.2966
24617W        W41091   8.113  15.774  14.483  0.1167 -0.1242  0.1966
24618W        W41092   8.684  15.311   4.612  0.3320  0.0717  0.1657
24619W        W41093   2.648  16.727  12.778  0.2490 -0.3353 -0.0193
24620W        W41094  12.852   6.602   5.479  0.1472 -0.1414  0.0116
24621W        W41095   1.101   8.653   3.347 -0.0416  0.0247 -0.1334
24622W        W41096  18.066   1.925  10.947  0.1445 -0.3235  0.1213
24623W        W41097   0.296   4.625  14.337  0.1642  0.0928  0.0275
24624W        W41098   3.225   2.990   2.747 -0.1819  0.3450 -0.0326
24625W        W41099   5.078  14.084   4.572  0.0396 -0.0003 -0.0446
24626W        W41100  16.307   7.718  11.226  0.4316  0.2547 -0.4480
24627W        W41101  16.264   3.977  13.180 -0.1992 -0.1972  0.2187
24628W        W41102   6.707   0.213  12.886  0.2275 -0.0584 -0.3441
24629W        W41103   3.152   5.300  11.195  0.0852 -0.3773  0.0198
24630W        W41104  11.215  11.283   3.301  0.1481  0.0254  0.0749
24631W        W41105   9.036  18.354   2.456 -0.1404  0.4797 -0.0544
24632W        W41106  12.950   8.644   2.190 -0.1653 -0.4138 -0.0314
24633W        W41107  17.868  13.008  10.324  0.1754  0.1653 -0.1177
24634W        W41108  12.910  16.618  13.966 -0.2038  0.0329  0.1447
24635W        W41109   0.243   1.173   0.833 -0.3879 -0.4238 -0.3477
24636W        W41110   9.852   4.402  13.506 -0.0665  0.1148  0.2081
24637W        W41111  17.198   3.638   1.710 -0.3499 -0.3434 -0.1451
24638W        W41112  13.259  10.808  12.091  0.1399 -0.0417  0.0938
24639W        W41113  14.883  15.247  12.348  0.1181  0.0281 -0.1634
24640W        W41114  18.014  16.775   0.215 -0.2091  0.1288  0.1473
24641W        W41115  14.211  13.005  11.409  0.2250  0.4274  0.0607
24642W        W41116  14.418  16.585   0.045  0.2487  0.0372 -0.0374
24643W        W41117   9.541  18.476   1.948 -0.2212 -0.2866  0.4551
24644W        W41118  11.338  14.325   1.603 -0.2645  0.1372  0.0087
24645W        W41119  17.458   7.698   5.205 -0.3839  0.0755 -0.0821
24646W        W41120   9.274  12.665   4.663  0.1764 -0.1181 -0.0345
24647W        W41121   7.672  13.434   2.789  0.2809 -0.1693  0.0890
24648W        W41122   1.165   5.765   3.820 -0.5771  0.0031 -0.0979
24649W        W41123  13.227   1.582   4.023 -0.0780  0.2514 -0.0103
24650W        W41124   7.944   2.576   3.386 -0.0137  0.3961 -0.0512
24651W        W41125  11.213  18.798   4.893 -0.0220 -0.1515 -0.0315
24652W        W41126   8.039  13.143   2.230 -0.2150  0.3233 -0.1579
24653W        W41127   6.584   6.460   4.964 -0.1331 -0.0756  0.0351
24654W        W41128   6.773   6.633   4.509 -0.1227 -0.0881 -0.1049
24655W        W41129   7.630  17.763  14.370 -0.0149  0.1402 -0.0122
24656W        W41130   4.802   4.861  10.769  0.4556 -0.3895  0.0857
24657W        W41131  10.924  12.313   4.304  0.2241  0.2883  0.1197
24658W        W41132   9.144   1.206  14.907 -0.1596 -0.3088 -0.0776
24659W        W41133   6.160  11.501  13.306 -0.4900  0.0819  0.3218
24660W        W41134   9.426   2.714   3.609 -0.1373  0.0418 -0.1645
24661W        W41135   0.483  10.114   3.530  0.3506  0.0773  0.0715
24662W        W41136  15.594  16.131  13.844  0.0612  0.1250  0.1462
24663W        W41137   1.729  13.423   4.261  0.2951  0.0022  0.0136
24664W        W41138  12.131   4.553   5.422  0.0799 -0.0015  0.2137
24665W        W41139   8.900   6.172  12.530  0.1347 -0.0637 -0.1306
24666W        W41140   0.369   5.822  11.196 -0.0092  0.0310 -0.0870
24667W        W41141  17.941   5.283   0.745  0.0789  0.2203 -0.0052
24668W        W41142   8.996   0.219   3.628  0.1269  0.0403  0.2330
24669W        W41143   8.394   4.332  11.729 -0.2272  0.2476 -0.2144
24670W        W41144   1.082   9.862  10.972 -0.1165  0.0903  0.1128
24671W        W41145   6.097  16.096   6.088 -0.0140  0.0284  0.0557
24672W        W41146   4.275   3.038   3.096  0.0170  0.1316 -0.2658
24673W        W41147  11.075  17.881   5.087  0.1976  0.1858 -0.0731
24674W        W41148   7.597  16.970   4.830  0.2248  0.0678 -0.0106
24675W        W41149  14.716   2.246   0.362  0.0922  0.0758 -0.0863
24676W        W41150   1.816   9.856   4.309 -0.0026 -0.1805 -0.0733
24677W        W41151   3.324   2.068  13.249 -0.0369 -0.2304 -0.3252
24678W        W41152  14.152  11.266   5.232  0.1827  0.1444  0.1657
24679W        W41153   5.670   5.742  14.944  0.3200  0.0165 -0.0411
24680W        W41154  12.256  10.732   2.601  0.0771  0.2035  0.3980
24681W        W41155   9.621   4.973   1.515 -0.1726  0.0621  0.1357
24682W        W41156   3.916   6.516  15.370  0.1417 -0.1137 -0.0821
24683W        W41157  16.765   5.765  13.104  0.1165  0.3071  0.0701
24684W        W41158  14.711   7.974  12.678 -0.1336 -0.1232 -0.0397
24685W        W41159  12.059  15.653   4.880  0.0446 -0.1518 -0.0954
24686W        W41160  10.699   5.601   2.978  0.0669 -0.0709 -0.0567
24687W        W41161  16.281  14.728   4.827 -0.0662 -0.1083 -0.2128
24688W        W41162   3.761   5.008  14.995 -0.3742  0.1483  0.3265
24689W        W41163   2.401   4.089  13.694 -0.2596 -0.0035 -0.3124
24690W        W41164  11.695  10.624   3.586  0.0954 -0.0844  0.1730
24691W        W41165  16.095   1.851   4.501  0.1721 -0.0600 -0.2811
24692W        W41166  16.748   7.980  11.126  0.3442  0.0500  0.4057
24693W        W41167  12.220   8.337   1.369  0.2954 -0.0196 -0.0976
24694W        W41168   0.033   5.424   0.362  0.2137 -0.0367  0.1144
24695W        W41169   5.103  13.708  15.277 -0.1676 -0.0866 -0.2994
24696W        W41170  11.378  18.851   3.635 -0.2631 -0.1124  0.0457
24697W        W41171   3.125   5.006   3.932 -0.2747  0.4805 -0.2600
24698W        W41172   5.607   5.748  15.516  0.1709  0.1550 -0.3295
24699W        W41173   7.069   3.251  10.678  0.2016  0.1622  0.1785
24700W        W41174   2.840   0.968  15.488  0.0699 -0.0476  0.2648
24701W        W41175  10.584   1.801  11.886 -0.0632 -0.5601 -0.0518
24702W        W41176  18.511  13.702   0.739 -0.0840 -0.2860  0.0065
24703W        W41177  14.726  18.058   1.234  0.0479  0.0637 -0.0482
24704W        W41178   0.826   5.833  14.730 -0.2131  0.0108 -0.1006
24705W        W41179   7.361   1.697  12.053  0.3111 -0.2127 -0.2777
24706W        W41180   5.010   8.800   1.913  0.2348  0.0857 -0.0359
24707W        W41181  17.697   9.494  15.636 -0.1507  0.0683  0.2341
24708W        W41182   6.672  11.813   1.433  0.3991 -0.3965 -0.0029
24709W        W41183   9.802   3.413  12.598  0.1588  0.2108  0.1194
24710W        W41184  12.909   8.405  13.312 -0.3979 -0.0045 -0.2680
24711W        W41185  13.537  16.880  11.955  0.3019  0.3585  0.1896
24712W        W41186   5.324  18.629   6.003  0.2156 -0.0160  0.0496
24713W        W41187  17.133   8.943   2.037  0.0515 -0.2686  0.5206
24714W        W41188  18.794  11.709   4.553  0.1321  0.1743 -0.3000
24715W        W41189  16.561  15.706   4.377  0.0266 -0.0641 -0.1641
24716W        W41190  18.361   2.212   2.795 -0.2978  0.0160 -0.0613
24717W        W41191  17.393   3.991   3.715 -0.0936  0.2470  0.1543
24718W        W41192  13.874  17.129   1.551  0.0244  0.0262  0.1495
24719W        W41193  13.437   6.755   4.323  0.4741  0.1648 -0.1036
24720W        W41194  10.420  15.841   5.034  0.0598 -0.0333  0.1572
24721W        W41195   3.907  15.646   0.726  0.1626  0.1757 -0.0375
24722W        W41196  15.228  10.638  15.010 -0.1441 -0.2172 -0.2047
24723W        W41197  15.007   7.097  15.048 -0.0547  0.1997  0.2341
24724W        W41198  18.770   8.596  14.192  0.1694  0.1616 -0.0333
24725W        W41199   7.524   2.356   4.121  0.2199  0.1212  0.0813
24726W        W41200  16.957   9.126   1.201  0.1000 -0.2782  0.1979
24727W        W41201   5.926  16.682   1.238 -0.1074  0.2147  0.0386
24728W        W41202  10.277  11.128  11.254 -0.0082  0.0402 -0.0351
24729W        W41203   1.585  16.761   2.238  0.2683  0.1029 -0.1219
24730W        W41204   0.109  10.181  11.512  0.3913  0.1415  0.1096
24731W        W41205  11.846  18.342   4.182  0.1729  0.1195  0.2955
24732W        W41206  13.859   9.026   4.033  0.5568  0.1251 -0.1045
24733W        W41207  12.199   5.586  13.770 -0.1264  0.1621 -0.0554
24734W        W41208  14.808  11.617   2.292 -0.1519 -0.2288  0.1864
24735W        W41209  13.011   4.647   0.847 -0.2722  0.0108  0.0112
24736W        W41210  17.646   5.337  13.092 -0.3293  0.0684  0.0850
24737W        W41211   0.832  18.845   2.469  0.0222  0.1002  0.0581
24738W        W41212  16.491   3.025  14.232  0.0017  0.2775  0.0488
24739W        W41213  17.054  15.852  10.251  0.1643 -0.0088 -0.3518
24740W        W41214  12.254  14.382   4.114  0.2451  0.2262 -0.2349
24741W        W41215   3.918   1.516  12.144 -0.0648  0.0003  0.0508
24742W        W41216   2.689  12.023  14.655  0.0655 -0.1541 -0.1234
24743W        W41217  16.721  14.514  14.943 -0.1566 -0.3364 -0.0498
24744W        W41218  12.123   5.819  14.760 -0.2080 -0.1504  0.1331
24745W        W41219  18.646   1.356   4.928 -0.0532  0.0610 -0.0923
24746W        W41220   0.431  15.632  12.157  0.1023  0.1895  0.1697
24747W        W41221   9.965  11.333   2.628  0.0097  0.0220  0.0915
24748W        W41222   3.634   7.015   2.076  0.1621  0.0576 -0.0016
24749W        W41223  18.796   6.471   3.041 -0.2212  0.1303  0.0322
24750W        W41224  15.703  16.916  12.061 -0.0674 -0.1680 -0.0561
24751W        W41225  18.596  17.386   0.363 -0.2631  0.2152 -0.0953
24752W        W41226   1.355   9.775   1.979 -0.0119 -0.1123 -0.0806
24753W        W41227  14.210   4.201   5.036  0.1113  0.0040 -0.0124
24754W        W41228   1.906   7.959   0.276  0.0598  0.3072  0.3774
24755W        W41229  11.053  15.143   1.930 -0.1078  0.1436 -0.0603
24756W        W41230   5.901  13.764  14.561 -0.3002  0.1543 -0.4078
24757W        W41231   6.403  10.168   0.293  0.3274 -0.0570  0.1018
24758W        W41232   0.708  11.666   3.075 -0.0163  0.1770 -0.1404
24759W        W41233   9.498   7.229   2.352  0.0961 -0.0851  0.2345
24760W        W41234   7.364  12.593  15.045  0.1859 -0.1497  0.3017
24761W        W41235  18.436   3.901  14.538  0.2113 -0.0661 -0.2124
24762W        W41236   9.609  14.312   0.807  0.1079 -0.3256  0.2431
24763W        W41237   4.850   2.511   4.133 -0.0302 -0.1543  0.1014
24764W        W41238  15.106  17.759  14.909  0.1315  0.1783 -0.0425
24765W        W41239  16.229   9.627   0.888 -0.1573  0.0023  0.0728
24766W        W41240   9.025   0.073   4.613 -0.0516  0.1954 -0.3199
24767W        W41241  17.431   1.052   1.261 -0.1782 -0.2536 -0.0226
24768W        W41242  15.494   5.772   2.077  0.2809  0.1296 -0.0514
24769W        W41243  13.012   0.473  13.235 -0.1003  0.1056  0.1013
24770W        W41244  18.777  12.642   4.908 -0.0413  0.0056 -0.0603
24771W        W41245   9.128   7.128   2.959  0.0105  0.1651 -0.0683
24772W        W41246   2.641  16.471   2.114 -0.1422  0.2491  0.1215
24773W        W41247   2.990  16.244   1.304  0.1786  0.1640  0.1546
24774W        W41248   8.060   4.830   6.648 -0.1564  0.0934 -0.2373
24775W        W41249   7.788  17.951   3.584  0.4239  0.2295 -0.0512
24776W        W41250   0.142  15.133   5.349  0.1456  0.2691  0.1321
24777W        W41251   7.537  13.172  13.030 -0.0313 -0.1933 -0.2185
24778W        W41252  18.587   7.047   5.117 -0.0194  0.2651  0.0956
24779W        W41253   3.607   6.847   1.571  0.0651  0.2119 -0.0277
24780W        W41254  15.883  11.908   2.975  0.0473 -0.0775  0.0461
24781W        W41255  10.741  17.588   1.971 -0.0959  0.1342 -0.0293
24782W        W41256  16.065   2.309   1.297 -0.2885 -0.1292  0.2388
24783W        W41257  10.515  12.088   4.831  0.3523  0.2995  0.0325
24784W        W41258   0.039   9.018  15.596  0.1165 -0.0662 -0.0463
24785W        W41259  12.601  16.928  12.097  0.0379  0.1638  0.1193
24786W        W41260   2.771   9.610  13.745  0.0229 -0.0684 -0.0997
24787W        W41261   4.396  14.876  14.753  0.2318 -0.0516  0.0882
24788W        W41262   0.158   7.448   0.609 -0.4021 -0.1263 -0.0455
24789W        W41263  10.383   4.995  12.991  0.1208 -0.0493 -0.0025
24790W        W41264  17.733  12.971   1.082  0.2179 -0.0830  0.1100
24791W        W41265   6.927  10.905   4.167  0.0745 -0.2092  0.0527
24792W        W41266   5.109  11.886  15.582 -0.2314 -0.4675  0.0738
24793W        W41267   1.662  14.070   5.246  0.0347 -0.0404 -0.1587
24794W        W41268   3.805  15.075   0.610 -0.1443  0.0892  0.2110
24795W        W41269  15.180  16.612  13.851  0.0874  0.2013 -0.2570
24796W        W41270  10.692  16.090  11.158  0.2183 -0.2023  0.0691
24797W        W41271   8.658  12.935   5.388 -0.1201  0.0840  0.1749
24798W        W41272   4.190   7.931   1.694  0.0588 -0.1164  0.2258
24799W        W41273  16.582   0.415  15.193  0.0365 -0.1200 -0.1093
24800W        W41274   8.111  14.533   4.559 -0.0888  0.4393  0.1569
24801W        W41275   8.145  16.604  13.013  0.1324  0.2396  0.0451
24802W        W41276  15.117   8.375  12.805  0.1891  0.1550  0.3055
24803W        W41277   8.196   7.637   2.637 -0.3427 -0.2623  0.0613
24804W        W41278   0.095   1.300  13.623  0.2961  0.1159  0.2918
24805W        W41279  14.736   5.034  10.474 -0.1634 -0.0756  0.0301
24806W        W41280   6.820   1.379   1.930  0.0477 -0.0953  0.2631
24807W        W41281   8.103   0.176   2.829  0.0640  0.0027  0.2291
24808W        W41282  13.187   5.311   4.444 -0.0839 -0.1563  0.1111
24809W        W41283   8.467   8.242   3.626  0.0256  0.0068  0.1262
24810W        W41284   1.245  15.827  14.384  0.1847  0.3850  0.2826
24811W        W41285   0.112   8.005  11.635  0.1344  0.1266 -0.2493
24812W        W41286   9.607   5.696   0.614  0.1421 -0.0264  0.0306
24813W        W41287  15.556   7.421   1.927 -0.3074 -0.3313  0.0500
24814W        W41288   8.622   3.988   5.166  0.0650  0.2494 -0.2083
24815W        W41289  11.413  11.209   2.735  0.2938  0.0721 -0.0409
24816W        W41290   9.743   2.702  15.355  0.1530  0.2766 -0.1001
24817W        W41291   7.249   6.562  12.425  0.0182 -0.1714  0.0300
24818W        W41292   9.819  17.107   4.092  0.0496 -0.1932 -0.0146
24819W        W41293   8.181  10.059  14.303 -0.1829 -0.0632 -0.2309
24820W        W41294   2.612  14.986  15.135 -0.1223 -0.0750  0.4276
24821W        W41295  17.442   0.438   2.860  0.0257  0.1449 -0.0693
24822W        W41296   2.939   4.441   4.382  0.0731  0.1929 -0.0936
24823W        W41297  11.532  13.326   3.713 -0.0490 -0.0804  0.1244
24824W        W41298   0.980   8.559  13.960 -0.0479  0.2932  0.0410
24825W        W41299   2.724  18.021   4.778 -0.0085  0.1239  0.1509
24826W        W41300   2.064   7.714   1.559  0.0800  0.3706  0.1102
24827W        W41301  10.727   8.627   1.322 -0.0043  0.1492  0.1840
24828W        W41302   3.977   5.045  11.784 -0.1532  0.0924  0.1458
24829W        W41303  14.951  11.833   0.044 -0.1637  0.2634  0.0397
24830W        W41304   7.966   0.223  12.512  0.0753  0.3463 -0.0747
24831W        W41305  16.967   8.581   1.037 -0.0703 -0.3541 -0.2003
24832W        W41306  10.459  18.204  12.182  0.1388 -0.0642  0.2228
24833W        W41307   8.480  14.444  11.932  0.2745  0.0987 -0.0928
24834W        W41308   2.487   6.732  14.783 -0.0761  0.0979 -0.1450
24835W        W41309  12.449   6.989   5.191 -0.0238 -0.0687 -0.0847
24836W        W41310  12.591  13.312  15.560 -0.0144  0.0587 -0.2801
24837W        W41311   2.592   3.409  14.170  0.0452  0.0815 -0.0002
24838W        W41312   3.807   5.526   2.632  0.0043  0.0519 -0.0511
24839W        W41313  16.276   0.907  12.823 -0.1802  0.0836 -0.0560
24840W        W41314  11.791   7.195  11.389  0.1669 -0.2016 -0.1908
24841W        W41315  12.461   1.256  14.127  0.0171  0.1375  0.3211
24842W        W41316   2.960   9.763  12.916  0.0756 -0.3509  0.0206
24843W        W41317   9.703   5.567  11.999  0.0375 -0.1568  0.0381
24844W        W41318   2.233  13.045   0.081  0.2398  0.0518  0.2298
24845W        W41319  18.506   2.853  12.436 -0.0510  0.0518 -0.3013
24846W        W41320   0.398   6.301  10.963 -0.2764 -0.2611  0.0787
24847W        W41321   3.276   2.713  13.813 -0.1549  0.0077  0.1019
24848W        W41322   0.450   6.202  14.907 -0.2581  0.3187 -0.1053
24849W        W41323  10.496   2.033  13.364  0.1117  0.2564  0.0471
24850W        W41324   8.594   7.796   3.507 -0.0361 -0.2417  0.2551
24851W        W41325  13.988  11.247   4.752  0.1764 -0.0293 -0.5155
24852W        W41326   6.647  18.561  13.860  0.1551  0.2841 -0.0038
24853W        W41327  14.950   1.302   3.100  0.0511  0.0043  0.1653
24854W        W41328   5.598  17.639   5.203 -0.1480  0.0828 -0.0535
24855W        W41329  16.210   2.757   1.727  0.0208 -0.0113  0.2315
24856W        W41330   9.410  16.970  12.322 -0.1454 -0.0590  0.3361
24857W        W41331  13.197   5.457   1.144 -0.2286  0.2202 -0.4132
24858W        W41332   5.245  17.601  11.368 -0.2643  0.0585 -0.0333
24859W        W41333   9.452  15.984  13.061 -0.0659 -0.2181 -0.2805
24860W        W41334  17.427  18.762  15.543 -0.2421 -0.2034  0.1407
24861W        W41335   8.761   2.423   5.015  0.1722 -0.0929 -0.0179
24862W        W41336  10.053   1.525   5.797 -0.1757  0.0011  0.1797
24863W        W41337  13.532  11.118  14.404  0.0136  0.1953 -0.5072
24864W        W41338   9.459  14.277  13.611  0.2012  0.1459  0.1323
24865W        W41339  15.625   9.305   1.772 -0.4064  0.2518 -0.1329
24866W        W41340   3.962  11.952  12.128  0.0886  0.1877  0.2369
24867W        W41341  18.690   8.639  13.657  0.2884  0.0686  0.0759
24868W        W41342   5.773   2.013   1.533  0.1754 -0.1766 -0.1730
24869W        W41343  15.746   4.697  13.902 -0.1915 -0.3955  0.0458
24870W        W41344  14.393   2.207   3.445 -0.0608 -0.0479  0.2062
24871W        W41345   8.988  17.458  11.447 -0.1464  0.2189 -0.2829
24872W        W41346   5.692   4.149  12.305 -0.0212  0.1987  0.0950
24873W        W41347   6.821  15.891  11.980  0.4166 -0.2195 -0.1575
24874W        W41348  11.851  11.469   1.565 -0.2573  0.2270  0.0299
24875W        W41349  10.924  14.456  13.734 -0.1720 -0.0206 -0.0967
24876W        W41350  17.553  12.493   3.308  0.0374 -0.1875 -0.0454
24877W        W41351  15.106   2.203  15.042  0.1662 -0.1979  0.1231
24878W        W41352  18.199  14.938  13.283  0.1475  0.1850  0.1216
24879W        W41353   9.244  15.424   3.876 -0.1594  0.2352 -0.2576
24880W        W41354  11.484  10.247   4.438  0.1722 -0.0085  0.1778
24881W        W41355  18.640  10.816  11.817 -0.2256  0.1009 -0.2484
24882W        W41356  12.826   4.180  15.107  0.1054  0.0767  0.0223
24883W        W41357   8.454   2.193  12.026 -0.1334 -0.0046  0.0845
24884W        W41358   6.564  17.152  15.172  0.1065 -0.0465  0.4213
24885W        W41359  18.248  10.331   1.617 -0.1694 -0.1547  0.1640
24886W        W41360   3.278  12.817  13.251  0.1485 -0.0727 -0.0088
24887W        W41361   1.818   4.024   5.335  0.1121 -0.0732 -0.0252
24888W        W41362  15.044   5.162  13.287 -0.0273  0.0904 -0.0420
24889W        W41363  14.690  16.626   1.142 -0.4166 -0.5747  0.1975
24890W        W41364  11.026   9.864  15.626 -0.2781 -0.0744  0.0721
24891W        W41365  16.120   9.204  13.298 -0.1067  0.1754  0.0111
24892W        W41366  15.905  11.655  11.446  0.2299 -0.1136 -0.0750
24893W        W41367   9.756  18.815  10.461 -0.2350 -0.1182  0.0745
24894W        W41368  13.277  14.203   3.183  0.0923 -0.0294 -0.0992
24895W        W41369   7.239  11.819   5.070 -0.0252 -0.2775 -0.3687
24896W        W41370   0.842   6.862   0.738  0.3181  0.0685 -0.1163
24897W        W41371   9.327  12.572  12.996  0.2048 -0.1963 -0.2786
24898W        W41372   7.974  18.107  13.322  0.0413 -0.4698 -0.0709
24899W        W41373  11.841   8.688  13.716 -0.1911  0.2790  0.1346
24900W        W41374  12.828  14.714   4.497 -0.2299  0.1185  0.0095
24901W        W41375  14.615   8.207   3.085  0.0728  0.3464  0.4101
24902W        W41376   5.259   9.672  11.937  0.2954  0.0254 -0.1626
24903W        W41377   6.093   7.408   2.720  0.0961  0.0168  0.0054
24904W        W41378   9.620  13.488   2.787  0.4950  0.2099  0.1106
24905W        W41379  17.393  10.661   0.031 -0.0291 -0.0947  0.1496
24906W        W41380   4.481  12.294  13.015  0.0125 -0.3462 -0.0765
24907W        W41381   2.512  15.259   3.531 -0.0253 -0.2215 -0.0131
24908W        W41382   8.859   9.832  12.191  0.0629  0.2638  0.1129
24909W        W41383   7.200   6.534   2.750  0.0840 -0.0899 -0.0732
24910W        W41384  16.021  15.009  12.291 -0.0772  0.0620  0.2715
24911W        W41385   2.342   1.385  12.117 -0.2322  0.3239  0.1044
24912W        W41386  17.385  12.979   3.205 -0.0012 -0.2077 -0.2089
24913W        W41387  17.740  15.556   5.232  0.2418 -0.0043  0.2214
24914W        W41388  13.360  11.390   0.731  0.1280 -0.1350 -0.1761
24915W        W41389  11.517  14.205   0.121 -0.0812  0.0409  0.2442
24916W        W41390   9.999  16.652   2.369  0.0916  0.1458  0.3677
24917W        W41391  17.660  16.802   4.827  0.1038  0.0236  0.2438
24918W        W41392   1.595  11.990   3.426 -0.2235 -0.3727  0.0919
24919W        W41393   3.136   7.930   2.679  0.1740 -0.3347 -0.1389
24920W        W41394   1.105  12.083   1.918  0.0285 -0.0268  0.1864
24921W        W41395   9.159  16.782   0.482 -0.0473 -0.1686  0.2426
24922W        W41396  18.186   9.310   0.671 -0.0656 -0.0789 -0.3233
24923W        W41397   9.440  10.473  13.673 -0.0498 -0.2831  0.3732
24924W        W41398   7.745  12.410  14.254 -0.1374  0.1102 -0.6209
24925W        W41399   9.052   6.468   4.469 -0.0002  0.1810 -0.3963
24926W        W41400  17.634  16.465   2.927 -0.2036 -0.1615 -0.1585
24927W        W41401  16.068   2.055   3.309  0.0631 -0.0163 -0.0778
24928W        W41402   2.894   2.705   3.383  0.2888  0.0540 -0.1479
24929W        W41403  12.136   7.849   2.959 -0.0090 -0.1033  0.2060
24930W        W41404   7.553   0.764  15.471 -0.0965  0.0863 -0.1095
24931W        W41405   0.740  10.366  11.519  0.3796  0.0170 -0.0037
24932W        W41406   1.173   4.545   0.867 -0.1859 -0.0358  0.0084
24933W        W41407   1.928  12.564  14.518 -0.0298  0.0723 -0.1196
24934W        W41408  10.863   6.256  15.655  0.0817  0.0981 -0.1723
24935W        W41409   3.981   4.516  13.038 -0.1013 -0.2706 -0.1561
24936W        W41410   3.618  15.754  11.993 -0.0054 -0.0356  0.0603
24937W        W41411   1.912   0.768  15.475  0.1466  0.0863 -0.1347
24938W        W41412  10.826  13.190  15.624  0.1730  0.0587  0.1146
24939W        W41413   0.748  10.320  12.141  0.1185  0.1961 -0.0315
24940W        W41414   5.007   1.923  10.561 -0.2250  0.0310  0.0392
24941W        W41415  17.643  15.006   2.388 -0.0845 -0.0206 -0.0827
24942W        W41416   7.756  13.007   3.567 -0.1118  0.2557 -0.1374
24943W        W41417  15.386  12.035   3.608  0.2131 -0.1055 -0.3080
24944W        W41418   5.524  18.029   3.551  0.0575  0.0416 -0.0229
24945W        W41419   6.624   9.551  12.397  0.0386 -0.1602 -0.1502
24946W        W41420   2.563   3.593   2.231 -0.0059 -0.0872  0.2555
24947W        W41421  15.997  16.985  13.466 -0.1580  0.0310 -0.1342
24948W        W41422  13.031  17.924  14.695 -0.0088 -0.0425 -0.2345
24949W        W41423  14.290   2.440  15.635 -0.0256 -0.3478 -0.0021
24950W        W41424  18.187   7.591   2.966 -0.1920  0.5655  0.0483
24951W        W41425   6.110  12.925  12.809 -0.2109  0.2828 -0.1988
24952W        W41426  17.136   0.724   0.026 -0.0740  0.2539  0.2371
24953W        W41427  15.721   5.750   4.538 -0.2116  0.0945  0.1835
24954W        W41428  17.481  14.244  15.487  0.0059  0.1111 -0.0485
24955W        W41429   8.171  11.974   3.044 -0.3039  0.1560 -0.1634
24956W        W41430  13.641  12.124   2.428 -0.0312 -0.0832 -0.4327
24957W        W41431   3.779  13.216   2.433  0.0484 -0.1633 -0.2925
24958W        W41432   3.781   4.251  13.471 -0.3083 -0.0923  0.2113
24959W        W41433  11.026   9.479   1.461  0.1331  0.0598  0.1844
24960W        W41434   9.543   6.829   3.999  0.2474  0.0026  0.2843
24961W        W41435  17.965  14.182   0.691 -0.1302  0.0882 -0.1806
24962W        W41436  10.582  12.572   4.923 -0.0288 -0.0706 -0.1868
24963W        W41437   2.593  11.170  12.142 -0.1210  0.0926  0.1588
24964W        W41438   8.325  18.566  15.424 -0.1643  0.1832 -0.4545
24965W        W41439   8.711  14.762   0.636 -0.0158 -0.2873  0.1648
24966W        W41440  15.922  12.327   0.877 -0.0869  0.0364 -0.1906
24967W        W41441  15.299  12.376   4.163  0.1168 -0.0565  0.2084
24968W        W41442  16.448   4.978   3.727  0.1612 -0.1173  0.0669
24969W        W41443   8.218  17.352   2.432 -0.0071 -0.1876  0.3081
24970W        W41444  14.151   9.215   4.989 -0.3947 -0.2469  0.3680
24971W        W41445   3.835  10.498   0.040  0.2712 -0.3987 -0.3723
24972W        W41446   2.527   4.345  11.864  0.1116 -0.0651 -0.0746
24973W        W41447  12.642   9.002   1.702 -0.1052  0.3781 -0.1048
24974W        W41448  11.408   9.872  15.208 -0.0029  0.1872  0.2341
24975W        W41449  15.273   8.319   3.554  0.1580 -0.1719 -0.1092
24976W        W41450   2.556   1.907  11.224 -0.0311  0.0840 -0.0408
24977W        W41451  11.754  17.926  11.038 -0.0818 -0.0032 -0.0978
24978W        W41452   7.482   9.154  13.623  0.0300 -0.1154 -0.0850
24979W        W41453  17.169  17.223   9.238 -0.0783 -0.1519  0.0530
24980W        W41454   5.109  16.011  13.803  0.1072  0.3110  0.3215
24981W        W41455  14.992   5.312   2.718 -0.1413  0.0226  0.4092
24982W        W41456  12.192  15.324   2.350  0.1529  0.5946 -0.2153
24983W        W41457  17.233  12.197   2.015  0.1255  0.2351 -0.2716
24984W        W41458   1.531  11.639  14.173  0.1769 -0.1376 -0.4081
24985W        W41459  17.793   5.749   3.549  0.0542  0.3225  0.1464
24986W        W41460   8.093   1.844  14.800  0.0933 -0.3024 -0.1057
24987W        W41461   2.362   1.816  10.475 -0.0019  0.0459 -0.1695
24988W        W41462   4.988  17.575   4.449 -0.1871  0.2655 -0.0663
24989W        W41463  14.767  13.658  15.493 -0.0876 -0.1419 -0.3378
24990W        W41464   7.087  11.083   1.925 -0.1633 -0.1773  0.0521
24991W        W41465   6.514   9.050   4.430  0.0128 -0.0048 -0.0011
24992W        W41466  17.314  18.313   1.075  0.0346 -0.1771 -0.3544
24993W        W41467   8.951  12.911   4.972 -0.1949  0.0042  0.2868
24994W        W41468   2.896  18.218  11.910 -0.1692  0.1231 -0.1692
24995W        W41469  17.261  14.259  12.696 -0.3083  0.2180 -0.0731
24996W        W41470   7.365  17.709  11.664 -0.3388 -0.0880 -0.4099
24997W        W41471   9.225   1.829   0.760  0.0101  0.0205  0.3475
24998W        W41472   5.300   7.616   4.673 -0.1426 -0.0920 -0.1727
24999W        W41473  16.138   5.800   3.613 -0.5124 -0.0455  0.2046
25000W        W41474   5.812  12.825  11.206  0.4717 -0.0308  0.2507
25001W        W41475   6.939   9.298  14.169 -0.2355  0.0683 -0.2210
25002W        W41476   2.369  12.251   2.638 -0.0872 -0.1791  0.2320
25003W        W41477   9.858   1.495   2.415  0.0122  0.1963 -0.0116
25004W        W41478   0.934   5.396   0.453  0.1101  0.2832 -0.2961
25005W        W41479  12.225  15.249  11.283 -0.1862  0.3990  0.1011
25006W        W41480  13.303  14.222  14.883  0.0228  0.1900  0.0622
25007W        W41481   5.303   8.900  11.594 -0.2190  0.0208 -0.2081
25008W        W41482  11.332   7.578   0.036  0.0041 -0.0307 -0.1725
25009W        W41483  17.266  16.928   1.419 -0.1825 -0.0988 -0.1822
25010W        W41484   0.543   3.582   3.900  0.0205  0.0634 -0.0263
25011W        W41485   9.404  17.965   2.084 -0.1687  0.0717  0.0461
25012W        W41486  15.823   8.865   1.389 -0.1557  0.0352  0.1331
25013W        W41487  17.787  15.743  12.555  0.0527  0.1822  0.1603
25014W        W41488   4.867  11.365   4.196  0.0621 -0.0722 -0.1855
25015W        W41489  12.934  10.781   0.166 -0.1321  0.2622  0.0947
25016W        W41490  14.370   2.548  14.477 -0.0105 -0.2701 -0.1693
25017W        W41491   2.637   1.995   5.042 -0.1747  0.4261 -0.2606
25018W        W41492   9.129   4.686   3.666  0.1225 -0.1128  0.0644
25019W        W41493  17.367   1.495   9.966 -0.0490  0.2605 -0.2793
25020W        W41494   5.966  14.760   0.965  0.0294  0.1145 -0.3520
25021W        W41495   4.565   8.652  14.902  0.3453  0.1332 -0.0157
25022W        W41496   5.150  10.803   3.107  0.3328  0.0753  0.3540
25023W        W41497  16.444   5.072   2.764 -0.6437 -0.0267 -0.4609
25024W        W41498  10.972   7.725  13.381 -0.3450 -0.0714  0.2371
25025W        W41499   1.869   2.589   5.220  0.1076  0.0568 -0.2294
25026W        W41500   8.814   8.407   0.658 -0.0606 -0.3541 -0.0500
25027W        W41501   1.214   6.013  15.031 -0.2883 -0.1389  0.1049
25028W        W41502   3.505   6.078  13.017  0.3573 -0.0271 -0.0640
25029W        W41503   3.602   0.976   0.330 -0.2264 -0.0226 -0.2243
25030W        W41504  16.277   5.506  13.175  0.1358 -0.0236 -0.1043
25031W        W41505   8.338   3.173  11.809  0.1176  0.1735 -0.0191
25032W        W41506   7.311  18.426   2.234  0.1487  0.3050  0.1408
25033W        W41507  18.116  12.859   4.451  0.1940  0.0810  0.2681
25034W        W41508   4.976  13.285  12.842  0.3496  0.1314  0.0178
25035W        W41509   5.271   2.222   3.138  0.1368 -0.3617 -0.0422
25036W        W41510   7.337  14.509   5.335 -0.3577  0.1452  0.0608
25037W        W41511   3.823  16.365   2.888  0.3304  0.1204  0.2362
25038W        W41512  15.503   7.542   0.124  0.1209  0.1204  0.2169
25039W        W41513  18.707   4.908  14.433  0.3052  0.1108  0.2515
25040W        W41514  14.678   8.829  13.852  0.2281 -0.3038 -0.2998
25041W        W41515  16.081  15.242  13.685 -0.2751 -0.0741  0.0761
25042W        W41516  15.530  10.143   1.637 -0.1222  0.0231  0.1061
25043W        W41517   6.475   4.757   2.622  0.1398 -0.2123  0.0457
25044W        W41518  14.371   0.341  13.026 -0.1956 -0.2169  0.1421
25045W        W41519   6.271  17.677  11.533  0.0348  0.0329 -0.2620
25046W        W41520   5.042  10.143   1.707 -0.0053  0.0576 -0.1598
25047W        W41521   8.056   9.200   4.463  0.1758 -0.2400 -0.0653
25048W        W41522   7.660  14.505  12.943 -0.0842  0.1300  0.1180
25049W        W41523  17.163   0.781  15.222  0.0433  0.1585 -0.1202
25050W        W41524  11.703   1.734  11.365  0.3001  0.1826 -0.1727
25051W        W41525  10.009   7.559  13.052  0.0095  0.1073  0.0934
25052W        W41526  17.078   0.915   5.320 -0.0025 -0.1779 -0.1443
25053W        W41527  16.922   6.346  15.278 -0.4113  0.2067  0.4479
25054W        W41528   5.323   3.406  14.350 -0.3218 -0.1011  0.1506
25055W        W41529   2.291  13.669  12.590 -0.0678  0.0374 -0.1630
25056W        W41530  15.508  14.690  14.219  0.0514  0.1273 -0.1179
25057W        W41531   5.193  16.848   3.805 -0.0214  0.1532  0.0407
25058W        W41532  17.209   4.446   4.477 -0.1274  0.3152 -0.1561
25059W        W41533   5.436   6.166  12.505 -0.2453 -0.0192  0.0441
25060W        W41534   7.752   8.767   4.056 -0.1560  0.0804 -0.1463
25061W        W41535  15.877   3.452  14.954  0.0835 -0.0557 -0.1030
25062W        W41536   6.297   9.344   0.176 -0.1245 -0.1120  0.0549
25063W        W41537  15.306  14.873  13.695  0.2312  0.2604 -0.2591
25064W        W41538   0.058   2.704  11.989  0.0221  0.0575  0.0122
25065W        W41539  12.492   3.069   0.709 -0.1180 -0.0194  0.0260
25066W        W41540   5.545  14.920   5.594  0.2662 -0.0305  0.0997
25067W        W41541  17.750  15.039   4.196  0.0945  0.2329  0.0022
25068W        W41542  11.454   6.780  12.767 -0.2643  0.3671  0.0604
25069W        W41543   6.122  14.323   1.366 -0.1249 -0.0767  0.2360
25070W        W41544   4.020   7.741  13.848 -0.0544 -0.2076 -0.1885
25071W        W41545   8.628   3.177   3.500 -0.2353  0.0701  0.2012
25072W        W41546   6.927   5.595   1.371  0.5131  0.0181 -0.2155
25073W        W41547  11.324  17.642  15.559  0.1847 -0.0144  0.2218
25074W        W41548   4.514   3.333   2.170 -0.3660 -0.1675 -0.1276
25075W        W41549   9.219  14.527   3.536 -0.1001  0.1442 -0.1402
25076W        W41550   8.765   5.762   3.347  0.4537 -0.0984  0.0218
25077W        W41551   6.385   6.009  12.484 -0.1755 -0.0969 -0.2562
25078W        W41552  12.117  16.525  13.386  0.0130  0.0767 -0.1600
25079W        W41553   2.951  11.898   0.546 -0.0169  0.0168 -0.1514
25080W        W41554  15.402   8.572  14.382 -0.1069  0.0297  0.2636
25081W        W41555   2.954   1.335  15.059  0.1470  0.2027  0.1375
25082W        W41556  18.416  16.978  12.827 -0.1980  0.0646  0.1273
25083W        W41557   2.582  18.547  14.514 -0.2882  0.1453 -0.3684
25084W        W41558  10.480  15.964   3.278  0.0367  0.1484  0.0800
25085W        W41559   2.929   8.712  15.122  0.0404  0.2212 -0.1383
25086W        W41560  15.410   4.419   0.200  0.1124 -0.0242 -0.0489
25087W        W41561   0.642  15.369   4.212 -0.3164  0.3649 -0.0756
25088W        W41562  16.473  14.020  15.331  0.1325  0.4124  0.0017
25089W        W41563  13.072   9.693  14.681  0.3405 -0.1836  0.3294
25090W        W41564   2.033  16.506  11.045  0.2005  0.3842 -0.1922
25091W        W41565   5.962   8.208  14.202 -0.2143  0.1620 -0.0657
25092W        W41566  13.805  16.751   4.266  0.0128 -0.0071  0.1225
25093W        W41567   5.481  14.703   4.066  0.1294 -0.2507  0.4962
25094W        W41568  11.121  16.397  13.039 -0.2423 -0.3736  0.0490
25095W        W41569  17.790   6.207   3.235 -0.0186 -0.1279 -0.2282
25096W        W41570  15.813  10.658   2.288 -0.0740  0.3065  0.2382
25097W        W41571  12.708  16.061  14.499  0.0662  0.2780 -0.0180
25098W        W41572  10.196   8.840  13.488 -0.1059 -0.0958 -0.2431
25099W        W41573  13.135   7.500   0.712  0.2051 -0.3169  0.0651
25100W        W41574   1.168  15.307   3.613 -0.0849 -0.1846 -0.1446
25101W        W41575   2.366  11.731   1.235 -0.0463 -0.3819 -0.0887
25102W        W41576  16.180  16.880  10.540 -0.1174  0.2690  0.4309
25103W        W41577   7.876   7.291  14.587  0.2462  0.4229 -0.1054
25104W        W41578  14.375   6.436   5.731  0.0154  0.1557 -0.0576
25105W        W41579  14.811  15.846   2.202 -0.2059 -0.0848 -0.0509
25106W        W41580   4.198   0.988  15.301  0.1907  0.0139  0.3001
25107W        W41581  15.210   8.759  12.435 -0.0362  0.0726  0.1179
25108W        W41582  13.360   4.858   3.364 -0.2410  0.0594 -0.0262
25109W        W41583  10.587  18.654  14.963 -0.1573 -0.0966  0.2717
25110W        W41584  12.237  13.711   3.021 -0.0236 -0.1680 -0.1898
25111W        W41585   5.693  12.340   4.830 -0.2424 -0.0337  0.3034
25112W        W41586   6.480   6.743  15.338 -0.1312 -0.1742  0.0247
25113W        W41587   8.949  15.267  13.460 -0.0525 -0.1194 -0.0150
25114W        W41588  12.720   7.296  14.262 -0.1513 -0.0062 -0.0662
25115W        W41589   3.689  17.486   0.742 -0.2044  0.0299 -0.2976
25116W        W41590  13.306  14.025   2.289 -0.2412  0.2713 -0.0204
25117W        W41591  14.358  15.590   4.098 -0.1881  0.1159  0.1678
25118W        W41592  16.156  10.805   3.979  0.1769  0.2421 -0.0883
25119W        W41593  16.147  13.940  10.538  0.1867  0.1056 -0.0984
25120W        W41594   7.260   0.675   5.470  0.1705 -0.0448 -0.1447
25121W        W41595   3.679  14.705  13.610 -0.0015  0.0860 -0.3709
25122W        W41596  13.355  11.004  15.021 -0.0394 -0.3147  0.0987
25123W        W41597  17.693  18.515   1.372  0.1742 -0.0271 -0.1388
25124W        W41598  13.175  10.443   0.500  0.2415  0.0406  0.1551
25125W        W41599  15.720   5.206   1.382 -0.0281 -0.0200  0.0653
25126W        W41600  10.786   8.054  12.730 -0.0804  0.0229  0.1387
25127W        W41601   8.720   1.800   2.912  0.2909 -0.0216  0.2241
25128W        W41602  11.737  11.161   0.699  0.1759  0.0988 -0.1159
25129W        W41603  13.024   6.409   1.273  0.0391  0.2143  0.1076
25130W        W41604  10.362   8.645   5.937  0.2453  0.2660  0.0241
25131W        W41605  17.164   8.321  15.057  0.3327 -0.3595 -0.0315
25132W        W41606  17.284   2.129   4.637  0.0075 -0.1208  0.2039
25133W        W41607  12.273  12.592  11.817 -0.0825  0.0843 -0.0446
25134W        W41608  14.935  11.332  11.978 -0.0882 -0.2088  0.0727
25135W        W41609   9.162  11.512  12.315  0.1322 -0.1118 -0.0290
25136W        W41610  13.913   8.851  14.083 -0.2760 -0.0433  0.2469
25137W        W41611  16.453   5.589  12.585  0.1308 -0.1609 -0.0551
25138W        W41612   2.400  11.264   5.531 -0.0248 -0.0545  0.0857
25139W        W41613   8.663   5.259   3.476 -0.0182  0.1415  0.1175
25140W        W41614  13.536  15.387  13.102  0.4334 -0.0172  0.0331
25141W        W41615  17.194  14.111  13.267 -0.1263 -0.2102 -0.2198
25142W        W41616   0.121   4.030   5.271  0.2558 -0.1711  0.2121
25143W        W41617   2.601   1.419  15.411 -0.1041  0.1697 -0.1955
25144W        W41618   2.871  17.951   3.088 -0.1866  0.2340  0.0873
25145W        W41619   2.704   8.159   2.830  0.2665 -0.0994 -0.5517
25146W        W41620  16.534   9.607   2.487  0.0428 -0.2347 -0.2018
25147W        W41621   5.177   9.564  10.591 -0.1194 -0.1307 -0.0282
25148W        W41622  15.635   5.804   5.200 -0.1936 -0.3394 -0.1299
25149W        W41623   6.013   2.122  11.883  0.3395 -0.2021 -0.0113
25150W        W41624   5.223  17.140  15.691 -0.2787 -0.0319 -0.3303
25151W        W41625   7.841   6.112  13.724  0.1474  0.3064  0.1267
25152W        W41626  16.878  12.057  15.189  0.0932 -0.1144 -0.1898
25153W        W41627   8.610   4.752   3.475  0.0857 -0.1054 -0.2074
25154W        W41628   6.101   2.185   4.013 -0.0712  0.0609 -0.2101
25155W        W41629  13.613   8.263  11.318  0.2304 -0.1923 -0.0246
25156W        W41630  16.318  16.314  13.393 -0.0673 -0.6133 -0.1552
25157W        W41631   8.003   4.205   1.805  0.0535 -0.0269  0.2747
25158W        W41632   7.395   1.023   5.825 -0.0251  0.0671  0.2099
25159W        W41633  12.829  16.273  15.362  0.0228 -0.1668 -0.0836
25160W        W41634   6.242  11.460  15.165  0.2319  0.2612 -0.1803
25161W        W41635   7.177   5.845   3.931  0.2022  0.0940  0.1465
25162W        W41636   3.887  13.633   2.743  0.1280 -0.0958  0.2442
25163W        W41637  15.910   8.561  14.492  0.0462  0.0316  0.0655
25164W        W41638   3.210  11.749  10.476 -0.2339 -0.0964  0.0938
25165W        W41639  14.368   1.762   1.071  0.1742  0.3208 -0.1874
25166W        W41640   4.439  14.782  10.185  0.1210  0.0698  0.2077
25167W        W41641   0.050  10.793   4.822  0.0816  0.1077  0.2300
25168W        W41642   1.289   0.165  15.106  0.0042 -0.2847 -0.2473
25169W        W41643   7.024   0.245   3.944 -0.0942  0.0317  0.1008
25170W        W41644  18.216   2.529   0.307 -0.0542  0.1263 -0.2329
25171W        W41645  10.549  17.180   0.707  0.0177 -0.1674 -0.0723
25172W        W41646  17.551  15.340   3.198 -0.0201  0.0143 -0.0502
25173W        W41647  10.572  13.415  11.644  0.2723  0.2123 -0.2236
25174W        W41648  11.758  10.814   0.393 -0.1137 -0.0948  0.2079
25175W        W41649  16.458  11.609  13.567 -0.1275  0.1528  0.1424
25176W        W41650   5.307  18.137   1.095  0.0255  0.0262  0.0791
25177W        W41651   4.939   2.618  14.662 -0.2669  0.0912  0.1277
25178W        W41652   3.800   2.426   5.323 -0.0276 -0.2343  0.2759
25179W        W41653   6.357  15.416  12.225 -0.1065 -0.0862 -0.3071
25180W        W41654   2.353  18.430  13.657 -0.2241 -0.0935  0.0383
25181W        W41655  12.497  14.463   4.880  0.0834 -0.1594 -0.0859
25182W        W41656   2.114  11.107  11.937 -0.0310  0.1908  0.0477
25183W        W41657  10.222   1.454   4.401  0.0054  0.0698 -0.2062
25184W        W41658  14.334   0.562   4.779 -0.0960  0.0501  0.1134
25185W        W41659  18.495  11.995  14.319 -0.1291 -0.1286 -0.5454
25186W        W41660  15.711  10.117  11.139  0.3447  0.0183  0.1344
25187W        W41661  18.554  11.583   0.759 -0.0624  0.1094 -0.2822
25188W        W41662   1.057   6.092  13.424 -0.0225  0.3399 -0.0973
25189W        W41663   9.741  10.597   4.832 -0.0735 -0.0736  0.1376
25190W        W41664   0.379   1.585  11.920  0.0474  0.1873 -0.0203
25191W        W41665   5.380   8.845  12.095 -0.2188 -0.0364 -0.0179
25192W        W41666  12.996   6.050  14.230 -0.2216  0.1196  0.1766
25193W        W41667  10.507   5.767  15.458 -0.0744 -0.0608  0.1484
25194W        W41668   5.098   5.306  14.293  0.0572  0.0359  0.0557
25195W        W41669  17.649  15.390  15.619  0.1340 -0.0101 -0.3144
25196W        W41670  18.013  13.238   2.353 -0.0845 -0.0750 -0.2805
25197W        W41671  18.090  18.523  15.188  0.0950  0.0315  0.0122
25198W        W41672  16.626  16.360   2.534  0.1694  0.0443 -0.2246
25199W        W41673   8.483   2.161  14.787 -0.0459 -0.0763  0.0932
25200W        W41674  15.559   5.192  14.170 -0.1826  0.0363 -0.0413
25201W        W41675  15.983   7.159   5.685 -0.0348  0.0538 -0.0077
25202W        W41676   8.361  16.566   0.198  0.1308 -0.3751 -0.0276
25203W        W41677  10.373  14.679   0.582 -0.2156 -0.0005 -0.0255
25204W        W41678  17.224   4.065   1.003  0.0179 -0.0742 -0.1120
25205W        W41679   9.853  16.023   4.841  0.3021  0.0909  0.0877
25206W        W41680   9.443  18.269  13.637 -0.1388  0.0029  0.1271
25207W        W41681   7.512  10.384  13.167 -0.1498 -0.1816  0.0779
25208W        W41682   4.845   5.767  15.198 -0.0489  0.0801  0.1273
25209W        W41683   4.624   5.825   2.189 -0.3558 -0.0693 -0.2138
25210W        W41684   7.517  16.990  14.371 -0.2984  0.2200 -0.1219
25211W        W41685   7.337   0.155   4.327  0.0312 -0.1386 -0.0310
25212W        W41686  17.652   5.041   1.875  0.0126 -0.1842 -0.0607
25213W        W41687  11.936   5.253   1.642 -0.2036 -0.0132 -0.2502
25214W        W41688   8.681   6.559  14.081  0.2589  0.0807  0.0359
25215W        W41689  14.521   6.218   3.535  0.1109  0.0997  0.1514
25216W        W41690   5.412  10.144   2.436  0.0667 -0.1714 -0.2996
25217W        W41691   7.735   3.616   2.021 -0.1145  0.1233 -0.2701
25218W        W41692  11.269  15.173   3.308  0.4448  0.4972 -0.1742
25219W        W41693  10.047  13.672   5.438  0.1445 -0.0397  0.0065
25220W        W41694  10.585   9.637  15.033  0.3925  0.0382 -0.1681
25221W        W41695  10.315  14.504  12.387 -0.0567 -0.1314  0.0782
25222W        W41696   5.709  15.589   5.087  0.1747  0.0968  0.3807
25223W        W41697   1.026  11.175  12.050 -0.1185 -0.0643  0.0139
25224W        W41698   4.387  16.268   4.068 -0.0632  0.0620 -0.0971
25225W        W41699  12.788  18.494   0.293  0.0192 -0.1148  0.0647
25226W        W41700   3.491   5.569   1.635 -0.1558  0.0636  0.2589
25227W        W41701  17.587   1.789  15.355 -0.1501  0.0990  0.0795
25228W        W41702  11.736  10.683  15.052  0.0598 -0.0079 -0.2845
25229W        W41703   3.499   2.836   0.646 -0.0099  0.2012 -0.2527
25230W        W41704   2.444  13.284  10.980  0.0526 -0.1534 -0.0324
25231W        W41705  18.307  13.164  10.410  0.2936 -0.2942 -0.0025
25232W        W41706   7.300  10.140  12.413 -0.1108 -0.1283  0.1796
25233W        W41707   6.818   3.614   5.100 -0.0400 -0.0788 -0.0718
25234W        W41708  17.508   4.650  11.119 -0.2043 -0.1649 -0.1709
25235W        W41709  13.194   1.809  11.809 -0.0620 -0.0661 -0.0540
25236W        W41710  15.862  18.148   2.186  0.1993 -0.1457 -0.1567
25237W        W41711  14.368   8.917   5.947  0.0475  0.1429 -0.1207
25238W        W41712  16.542   4.098  12.765 -0.0738 -0.0646  0.0653
25239W        W41713  11.473   5.400   1.420 -0.0713 -0.0048  0.0179
25240W        W41714   8.016   5.884  15.672  0.1701  0.1199  0.1283
25241W        W41715  17.206  12.251   1.207 -0.6451  0.2033  0.0252
25242W        W41716  10.251   6.065  15.105 -0.0275 -0.1114  0.0416
25243W        W41717  16.274   2.788  12.264 -0.0270 -0.0021  0.0530
25244W        W41718   2.265  17.555  15.267  0.2595 -0.1258 -0.0283
25245W        W41719   5.191   3.094   2.709  0.0841  0.0619  0.2708
25246W        W41720  18.578  15.654  14.214 -0.1808 -0.1885 -0.0052
25247W        W41721  15.486  11.603   4.829  0.2038  0.1681 -0.1242
25248W        W41722  14.923   8.049  13.150  0.3234  0.1046  0.2089
25249W        W41723  13.343  17.253   0.611  0.0874 -0.2350 -0.2114
25250W        W41724  10.450   7.499  13.984  0.0256 -0.0796 -0.1592
25251W        W41725   2.857   4.200   4.946 -0.0380  0.0624 -0.3380
25252W        W41726  10.851  18.659  13.540 -0.1124 -0.2176  0.0160
25253W        W41727  14.866  18.433  13.332  0.5077  0.1470  0.0312
25254W        W41728  10.144   8.907   4.816  0.1248 -0.0801  0.1167
25255W        W41729  17.161   9.234  11.090  0.1138  0.0984  0.0693
25256W        W41730  11.833  10.988  11.866  0.2123 -0.0585  0.4875
25257W        W41731  16.463   9.374  14.157 -0.2946 -0.1695 -0.1508
25258W        W41732  18.131   6.099  12.033  0.4253 -0.0484 -0.1519
25259W        W41733   5.110   4.656   4.676  0.0574  0.0520 -0.0395
25260W        W41734   7.188   0.739   4.947  0.2961  0.0258 -0.0171
25261W        W41735   2.750   4.379   2.903  0.0021 -0.3170  0.0797
25262W        W41736   5.111   1.366   1.315  0.3200  0.0207  0.2306
25263W        W41737  10.302  16.984   1.707  0.2256  0.1562 -0.2026
25264W        W41738   2.819  14.308   1.799 -0.0173  0.0186 -0.1606
25265W        W41739  13.351  15.343  14.107  0.0213  0.0670 -0.1298
25266W        W41740   4.337   6.772   2.569  0.2962 -0.0417  0.0096
25267W        W41741   3.031   7.226   0.258  0.0226 -0.0487 -0.3318
25268W        W41742  13.919  10.591  11.712  0.0545  0.1167  0.0473
25269W        W41743   6.966  13.025  11.874 -0.0746 -0.1289  0.0925
25270W        W41744   3.345   6.131   2.724 -0.0275 -0.2237 -0.0208
25271W        W41745   8.968   3.765   0.088  0.0814  0.2832 -0.2793
25272W        W41746   0.095   0.308  13.774  0.1929  0.1410 -0.2794
25273W        W41747  10.076   7.440  13.606  0.0701 -0.1143 -0.0773
25274W        W41748  12.027  18.561  14.773  0.1085 -0.0646 -0.0119
25275W        W41749  17.446   3.667  10.956  0.2232  0.0258 -0.2251
25276W        W41750   8.500  13.563  12.876 -0.1991  0.0629 -0.0730
25277W        W41751  11.038  16.908   4.804  0.0800  0.3555  0.1599
25278W        W41752  13.487   9.621  15.018  0.3354 -0.0981 -0.1159
25279W        W41753  17.645   0.537  15.605 -0.3205 -0.2096  0.1022
25280W        W41754  11.564  11.772  11.716  0.2540 -0.3164 -0.2554
25281W        W41755  10.142   9.023  12.340 -0.0576  0.0656 -0.1033
25282W        W41756   6.098  18.425  11.243 -0.1613  0.3826  0.4432
25283W        W41757   2.499   1.046  14.762  0.2754 -0.0574  0.1819
25284W        W41758   8.971   4.680  14.522  0.0023  0.0695  0.2774
25285W        W41759   8.866  10.750  11.081 -0.0701 -0.0573  0.0885
25286W        W41760  16.744   4.823  12.251  0.0176 -0.0443  0.1012
25287W        W41761   7.739   8.723   1.272 -0.1637 -0.0014  0.0351
25288W        W41762  16.232  12.663  10.925  0.0919  0.2063  0.1150
25289W        W41763   7.771   1.971  15.268 -0.2979  0.2050 -0.1029
25290W        W41764  15.750   5.792   3.935 -0.0744  0.1700  0.1173
25291W        W41765  16.244  14.462   3.364  0.2568 -0.1072  0.0346
25292W        W41766   6.613   1.046  11.933 -0.1361 -0.1430  0.0643
25293W        W41767   4.462   5.707  13.569 -0.0103  0.0569 -0.3011
25294W        W41768   8.045  17.103   1.331 -0.1320 -0.1449 -0.0649
25295W        W41769  10.297   4.005   4.554  0.0584 -0.2519  0.1768
25296W        W41770  11.830   3.536  11.658  0.0701 -0.0163 -0.0454
25297W        W41771   7.793   8.587  11.447 -0.1323 -0.1902 -0.0607
25298W        W41772  14.308   8.989   2.329 -0.1076 -0.1000  0.0652
25299W        W41773   4.571   6.187   2.552  0.0300 -0.2179  0.2242
25300W        W41774   1.638   2.795  11.683 -0.1164 -0.3697  0.0527
25301W        W41775  14.028  11.333  12.669  0.0658  0.0234 -0.0122
25302W        W41776   9.774   3.800  11.231  0.3511  0.0906  0.0114
25303W        W41777   6.054  11.598  10.655  0.1781  0.2177 -0.1241
25304W        W41778   6.593  16.381  12.060 -0.0285 -0.1075 -0.2293
25305W        W41779  16.925  13.358  11.262 -0.0212 -0.1501 -0.0208
25306W        W41780   9.972  14.653   5.698  0.0423 -0.0582  0.0042
25307W        W41781  18.399   6.200   3.206  0.2089  0.1515  0.0597
25308W        W41782   8.640   6.229   4.237  0.0977  0.0084  0.4539
25309W        W41783  15.214  16.331   3.197 -0.2253  0.0419  0.3433
25310W        W41784  13.433  13.648  14.349  0.1677 -0.0255  0.0372
25311W        W41785   3.316  11.721   4.470  0.2794  0.0420 -0.3002
25312W        W41786  16.592  16.217   2.004  0.3224 -0.1236  0.2625
25313W        W41787  14.762   3.912   2.132 -0.1312 -0.2113 -0.0983
25314W        W41788   9.035   6.715   4.936 -0.0177 -0.1116  0.1997
25315W        W41789   2.665   2.679   4.836  0.3177 -0.1226  0.1867
25316W        W41790  10.728  10.910  12.391  0.0022  0.2465  0.0638
25317W        W41791   7.037   3.753  14.739  0.0345 -0.2500 -0.0552
25318W        W41792  17.756  10.756  12.557 -0.1448 -0.3336  0.2101
25319W        W41793   6.967   8.915  11.384 -0.0786 -0.1103  0.1277
25320W        W41794  14.983   9.676   4.186  0.2861  0.2263  0.3846
25321W        W41795  15.491   3.794  10.486  0.3210 -0.0372  0.0647
25322W        W41796   2.302   6.452   4.722 -0.0196 -0.1336  0.1525
25323W        W41797   2.714  17.242   4.752 -0.1257  0.0652 -0.1985
25324W        W41798   5.904  11.767   0.854 -0.0935 -0.1483  0.4590
25325W        W41799  15.883   2.896   5.184  0.2550  0.2333  0.0502
25326W        W41800  12.297   7.964   1.685 -0.0176 -0.0725 -0.1917
25327W        W41801  10.067   8.587   2.192  0.0317  0.1937 -0.0743
25328W        W41802  16.884   3.858   1.307  0.3670 -0.1137 -0.0497
25329W        W41803   9.834  12.726  14.466 -0.3847 -0.0163  0.0397
25330W        W41804   8.714   3.968   1.074 -0.5087 -0.0101 -0.1832
25331W        W41805  11.466  10.221   0.883 -0.0425 -0.1982 -0.0980
25332W        W41806  18.110   1.340   2.477 -0.0729  0.3135  0.1204
25333W        W41807  16.196   9.980   2.929 -0.0654  0.0208 -0.0868
25334W        W41808  14.484   4.610  12.934  0.3491 -0.3470  0.1803
25335W        W41809  16.521   1.905   4.007  0.0667  0.1673  0.0090
25336W        W41810   1.408   8.474  12.413  0.3538  0.1041  0.0735
25337W        W41811   8.877  13.020   2.546 -0.2350  0.0990  0.0442
25338W        W41812   7.960  14.312   0.138  0.3528  0.1538  0.1514
25339W        W41813   1.332   9.303   0.017  0.0370  0.0516 -0.1379
25340W        W41814  10.386   6.442  14.783  0.0064  0.1139  0.3362
25341W        W41815   2.798   3.936   4.444 -0.0925 -0.0432  0.1188
25342W        W41816  15.731   7.175   4.076 -0.2736  0.1390 -0.0382
25343W        W41817  18.322  11.818  13.880  0.2626  0.2791  0.3007
25344W        W41818   5.013  18.509   1.363  0.1590  0.0640  0.2444
25345W        W41819   6.340   5.481   4.944 -0.4097  0.4354 -0.1584
25346W        W41820   5.683  14.786  13.563 -0.1534  0.0943  0.0881
25347W        W41821   1.942  14.563   5.105 -0.0485 -0.0024 -0.1275
25348W        W41822   0.727  12.250  11.127  0.0904 -0.0773  0.0929
25349W        W41823   4.224   9.421   3.853 -0.1199  0.0512  0.1429
25350W        W41824  17.980   6.307  14.213  0.0742  0.1281 -0.1256
25351W        W41825   0.791   1.964  11.249 -0.4919 -0.2644 -0.0173
25352W        W41826  13.131   6.909  13.176  0.1138 -0.0434 -0.2766
25353W        W41827   8.132   0.397   4.653  0.2241  0.1171 -0.0299
25354W        W41828  18.051   5.363   3.526 -0.0648  0.2139  0.0367
25355W        W41829  10.841   4.375  10.495  0.0498  0.2963 -0.0473
25356W        W41830  12.822  17.973  15.196  0.0141 -0.1134  0.1308
25357W        W41831  11.437   3.346   0.271  0.1604  0.0009 -0.3149
25358W        W41832   0.880   8.839  10.790 -0.1851  0.1086 -0.0211
25359W        W41833   8.961  13.749   0.072  0.1798  0.2318  0.0166
25360W        W41834   1.837   2.928   4.235  0.3740  0.2403 -0.1613
25361W        W41835  15.744   3.171  15.514  0.0131  0.4412  0.2530
25362W        W41836   4.892  12.905  14.850  0.0410 -0.2740  0.2386
25363W        W41837   7.808   1.227   6.085 -0.3448  0.4724  0.0490
25364W        W41838   7.519   1.171   1.967  0.0675 -0.1127  0.2858
25365W        W41839   8.824  17.005  14.127 -0.3241 -0.0270  0.1006
25366W        W41840   6.769   2.752  11.173 -0.1147  0.1095  0.0196
25367W        W41841   6.758   1.063  14.840 -0.1556  0.0640  0.0869
25368W        W41842   1.844   2.852  14.919  0.0283  0.1120 -0.2871
25369W        W41843   2.618   7.781   3.229 -0.0709  0.1845 -0.1640
25370W        W41844  17.897   9.565  10.575 -0.0061 -0.3145  0.3971
25371W        W41845  14.498  10.819  11.995 -0.0266  0.1382 -0.1269
25372W        W41846   0.931   9.015  10.348  0.0890  0.1982 -0.1745
25373W        W41847   6.767  14.912  14.315 -0.0105 -0.0269 -0.2912
25374W        W41848   2.002   6.499  14.889 -0.2183 -0.0226  0.1291
25375W        W41849   0.709  11.177  14.613 -0.1029 -0.1365 -0.0177
25376W        W41850  10.323   3.935  14.881  0.0249  0.0378  0.0627
25377W        W41851  18.576  10.378   0.249 -0.1034  0.0896 -0.0069
25378W        W41852  15.348  16.475  15.342  0.0185  0.1532  0.1014
25379W        W41853   9.448   9.144  13.255  0.0606  0.0728  0.4363
25380W        W41854  13.212   0.887   1.849  0.0143  0.3011  0.2781
25381W        W41855  16.669   2.526   3.305 -0.0810  0.1730 -0.0662
25382W        W41856   0.611  14.955   4.468 -0.0826 -0.2419  0.0921
25383W        W41857  15.796  15.711   2.973 -0.0147 -0.0065 -0.1707
25384W        W41858   9.621  14.472  14.115  0.0538  0.0703 -0.0236
25385W        W41859  14.042  14.399  10.902 -0.1766  0.0903  0.0021
25386W        W41860  17.216   4.425   3.379 -0.0157  0.2450 -0.2157
25387W        W41861   3.049  14.062   1.298  0.1203 -0.0429 -0.1819
25388W        W41862  14.613  13.837  14.539 -0.1381 -0.3596 -0.0070
25389W        W41863   5.516  18.671   1.321 -0.2454 -0.1584  0.1563
25390W        W41864   9.113   5.707   1.903 -0.0615 -0.2105  0.3030
25391W        W41865   1.851   9.948  12.142  0.0046  0.0227 -0.1994
25392W        W41866   0.849  15.914  14.138 -0.0751  0.0688 -0.0339
25393W        W41867   1.188  12.682   0.258  0.0164 -0.1218 -0.0252
25394W        W41868  13.765   4.304  14.155  0.1176  0.3326 -0.3467
25395W        W41869   9.135  14.303   1.175 -0.0948  0.1103 -0.0462
25396W        W41870  14.400   6.589   3.221  0.2133  0.0862 -0.0440
25397W        W41871   3.655  14.775  11.084  0.1878  0.2661  0.0456
25398W        W41872   5.057  16.861   2.943 -0.1260  0.1542  0.0803
25399W        W41873  12.609   6.092   1.359  0.1381 -0.0963  0.0218
25400W        W41874  11.060   8.031   0.092 -0.0121  0.2430  0.1077
25401W        W41875   0.521   3.046  12.645  0.0509  0.1578  0.1174
25402W        W41876  11.492   2.096   5.867 -0.1635  0.0008  0.2170
25403W        W41877  18.238   0.295   0.386  0.1802 -0.0411  0.0250
25404W        W41878   5.559  13.876   1.844 -0.3217  0.1700  0.0530
25405W        W41879  16.375  18.213  10.365  0.0561 -0.1870 -0.0634
25406W        W41880  11.281   6.023   4.342  0.0729  0.0710 -0.2909
25407W        W41881  15.672  13.240  15.419  0.1934  0.0080  0.0082
25408W        W41882  10.353  13.853   1.150 -0.3176 -0.0044 -0.0446
25409W        W41883  17.430   8.934   4.596  0.2467 -0.2392 -0.1499
25410W        W41884   5.185  11.710   3.500 -0.0772  0.0111  0.2422
25411W        W41885   2.688   6.953  12.160  0.3311 -0.0593  0.2372
25412W        W41886   7.505   6.465  11.846 -0.2352  0.2978 -0.1837
25413W        W41887  15.092  16.207   2.029  0.0694  0.2378  0.2466
25414W        W41888  11.865   9.133   1.088  0.0115 -0.2516  0.0426
25415W        W41889  18.198   7.198  15.057 -0.1288  0.0845 -0.1064
25416W        W41890  10.582   7.288   4.821 -0.1039  0.0617 -0.0733
25417W        W41891   0.781   7.594  14.255 -0.1618 -0.1127 -0.1591
25418W        W41892   2.969  15.411  12.711 -0.1793  0.1440  0.1017
25419W        W41893   1.331  12.366   9.639 -0.0535 -0.0608  0.1680
25420W        W41894  10.767   7.727  11.892 -0.2517 -0.3641  0.1121
25421W        W41895   3.056   0.268   0.197 -0.2060  0.0966 -0.0159
25422W        W41896  13.535  10.516  13.640  0.0135  0.1618 -0.1259
25423W        W41897   3.139  18.187   1.322  0.2030 -0.3036 -0.3636
25424W        W41898   9.295   9.225   5.208 -0.0284 -0.1487  0.0052
25425W        W41899  11.838   5.154  14.592 -0.3400  0.0460 -0.2330
25426W        W41900   3.926   2.666   3.012  0.0476 -0.3539  0.0085
25427W        W41901   2.774   0.283   0.671 -0.0470 -0.0364 -0.1645
25428W        W41902  15.682  17.419  12.123 -0.1160 -0.5708  0.0170
25429W        W41903  14.113   3.965   4.584  0.1427  0.1544  0.1426
25430W        W41904  11.139  18.119   3.514  0.0724  0.3326  0.1585
25431W        W41905   5.247   6.793  14.138  0.0482  0.2159  0.0945
25432W        W41906   8.078   0.129  10.751  0.5335 -0.1641  0.0260
25433W        W41907   5.884  11.119   5.077 -0.5307 -0.0898  0.0851
25434W        W41908  17.665  14.458   0.929 -0.0812 -0.2747 -0.1628
25435W        W41909   1.107   2.618   0.917  0.0280 -0.1402 -0.1263
25436W        W41910   7.943  17.932  12.128  0.0194 -0.5350 -0.0419
25437W        W41911  17.475  18.412  11.842 -0.1160  0.1920  0.2117
25438W        W41912   8.994   6.120   2.610 -0.2801 -0.1744 -0.1835
25439W        W41913   1.096   2.771  14.469  0.1679 -0.0291 -0.1826
25440W        W41914  10.914   5.859   5.774  0.3164 -0.0790  0.3366
25441W        W41915   7.316  16.159   5.492 -0.0528  0.0258 -0.2998
25442W        W41916   0.830   4.140  12.309 -0.0624 -0.2565  0.1397
25443W        W41917   7.348   7.958  14.129 -0.1890  0.0813  0.0655
25444W        W41918  17.941  18.576  11.983 -0.0868  0.3281  0.2180
25445W        W41919  16.922  13.131   4.140 -0.0227 -0.2082 -0.0903
25446W        W41920   4.974   9.040  10.679 -0.0809  0.0527  0.1009
25447W        W41921  17.913  13.127  12.879 -0.0090 -0.3909  0.0817
25448W        W41922   9.727   5.904   1.940  0.0311  0.1517  0.0576
25449W        W41923  15.129   6.079  15.371  0.1224  0.4139 -0.0430
25450W        W41924  12.376  13.240  14.147 -0.1836  0.3536 -0.1827
25451W        W41925  11.415  15.628   0.481  0.2899  0.0620 -0.3281
25452W        W41926   2.235   7.591  12.295  0.0357  0.1138 -0.0374
25453W        W41927   4.767   3.145  14.440 -0.0623 -0.2969 -0.1037
25454W        W41928   4.123   6.265   2.675  0.2986  0.0078  0.1010
25455W        W41929  10.585   0.909   3.071 -0.0330  0.0138  0.1917
25456W        W41930  15.424   8.862   5.686  0.2746 -0.1261 -0.2020
25457W        W41931   5.998   5.855   4.923  0.3241  0.3307  0.1021
25458W        W41932   9.252   9.405   2.033  0.0620 -0.1590  0.1766
25459W        W41933   3.984  11.524   4.178 -0.0944  0.0713  0.1300
25460W        W41934  13.500  14.461  11.028  0.0163 -0.2577 -0.0461
25461W        W41935   3.384  11.687   0.173 -0.1643 -0.1205 -0.0613
25462W        W41936   8.975  12.680   2.160  0.2453  0.0979 -0.0209
25463W        W41937  10.462   2.016   0.103  0.1429  0.0369  0.2521
25464W        W41938  16.454   9.111  13.651  0.3369 -0.1705  0.1775
25465W        W41939   3.789   9.829   1.525 -0.0695 -0.3713 -0.3121
25466W        W41940  12.065   2.765   0.661 -0.1982 -0.0057  0.1213
25467W        W41941  18.537  11.126   1.591  0.0442  0.1072 -0.0179
25468W        W41942  17.870  17.953   2.536 -0.1674 -0.0286 -0.1650
25469W        W41943   7.387   0.516   1.316 -0.0342 -0.0973 -0.1726
25470W        W41944   8.767  14.775   1.816 -0.1723 -0.2372 -0.2512
25471W        W41945   7.922   9.231  12.791  0.2484  0.0618  0.1356
25472W        W41946   5.824   0.312   3.680  0.0226 -0.2242 -0.0759
25473W        W41947   2.980  16.486  12.512 -0.3125 -0.1212 -0.2157
25474W        W41948   6.471  18.782   2.536  0.1725 -0.2767  0.1199
25475W        W41949  12.395  11.379   2.722  0.0079 -0.2179  0.2110
25476W        W41950   2.845  12.422   1.855 -0.0948  0.0323  0.2527
25477W        W41951  10.423   6.855   0.972  0.2245 -0.0389  0.6384
25478W        W41952   9.842   8.047  12.788  0.3125 -0.0173 -0.0657
25479W        W41953   3.444  15.634  12.435 -0.0733  0.1387  0.0245
25480W        W41954   9.213   3.593  12.533  0.1324 -0.1440  0.3577
25481W        W41955   6.492   0.934   0.198  0.0784 -0.0861  0.0215
25482W        W41956   7.423   2.231  12.582 -0.2779  0.1390 -0.1308
25483W        W41957  13.965   6.325   2.443  0.1800  0.1862  0.4491
25484W        W41958  15.360   4.839  13.015  0.2275  0.0340  0.0777
25485W        W41959   5.317  14.544   3.556 -0.1543  0.1028 -0.4323
25486W        W41960   8.002   6.202  12.909  0.0267  0.0032 -0.0692
25487W        W41961   6.020  14.804   3.193 -0.3821 -0.0196 -0.0389
25488W        W41962  10.508  15.665  15.247  0.2868  0.0808  0.0393
25489W        W41963   3.418  18.692  11.382 -0.2494 -0.0258  0.3544
25490W        W41964   1.999  15.109   3.652  0.0636 -0.0524  0.0139
25491W        W41965   1.684   4.828  14.140  0.1138 -0.1725  0.2546
25492W        W41966  18.682   1.117   2.551  0.1429 -0.2088 -0.2415
25493W        W41967  12.650   6.355   2.150  0.1065 -0.1034  0.1599
25494W        W41968  11.056  10.606  12.630 -0.1433 -0.2612  0.1637
25495W        W41969   3.340   1.557  15.283 -0.0254  0.0245 -0.0981
25496W        W41970   3.218   5.958  15.533 -0.4892 -0.0769 -0.0684
25497W        W41971   7.019  17.622  13.116  0.0867  0.0460 -0.1104
25498W        W41972   3.570  16.734   4.031  0.1209 -0.0147  0.1685
25499W        W41973   7.385   4.724   6.162  0.1617 -0.1507 -0.4905
25500W        W41974   8.016   5.637  11.498 -0.1000 -0.1491  0.3603
25501W        W41975  10.994   5.535  11.637  0.3148 -0.0873  0.4166
25502W        W41976   5.512  16.789  11.218  0.0130 -0.1485 -0.2033
25503W        W41977   1.848  13.050  10.661  0.0409  0.0623  0.2085
25504W        W41978   0.840  17.940  13.595  0.0455  0.0510  0.1991
25505W        W41979  12.072   0.833   2.476 -0.0309 -0.0527  0.0189
25506W        W41980  17.584  15.503  11.437  0.1864  0.1733  0.0100
25507W        W41981   6.700   3.076   2.530  0.0871  0.1298  0.2171
25508W        W41982  16.412  10.177   4.359 -0.2383  0.0428  0.0549
25509W        W41983  11.943   7.639   4.844 -0.2208 -0.0045  0.0535
25510W        W41984  13.416   4.453  11.514 -0.1415  0.2584  0.0338
25511W        W41985  17.601   7.758   3.572 -0.0664 -0.1033 -0.3533
25512W        W41986   7.876   1.847   2.746 -0.2581  0.2255 -0.1949
25513W        W41987   9.756  12.935   2.556 -0.1518  0.1713  0.0207
25514W        W41988   4.036  13.405  13.315  0.0737  0.2863 -0.4158
25515W        W41989  14.743   8.004  11.478  0.0442 -0.1998 -0.2421
25516W        W41990   1.903   2.382  11.777  0.0856  0.1478  0.0041
25517W        W41991  17.296   3.013  11.844 -0.0573 -0.1627 -0.1064
25518W        W41992  11.215   5.258  12.812 -0.0581 -0.2113 -0.0974
25519W        W41993  13.295   4.591   2.738 -0.0706 -0.3209  0.0952
25520W        W41994   5.958   4.357   6.519 -0.0902 -0.2172 -0.2803
25521W        W41995   6.339  10.413  11.802 -0.4060 -0.0040 -0.0120
25522W        W41996  12.090   3.415  12.581 -0.1812 -0.1663  0.2807
25523W        W41997   5.813   7.934  10.861  0.1252 -0.1215 -0.0808
25524W        W41998   0.012  16.095  12.918 -0.3477  0.0506 -0.0455
25525W        W41999  13.769  11.859   0.347 -0.0699  0.2093 -0.1816
25526W        W42000   9.821  15.091   3.751  0.0352 -0.2870  0.1068
25527W        W42001   7.143   6.811   5.419  0.0724  0.0534 -0.0063
25528W        W42002  15.312   5.854  12.104  0.0147  0.2741  0.0294
25529W        W42003   9.544   7.806   1.041  0.2087  0.1944 -0.1509
25530W        W42004  15.288   8.231   0.633 -0.2448  0.1957  0.0335
25531W        W42005  14.082  12.291   6.178  0.2442 -0.0684  0.1035
25532W        W42006   2.046   0.467   1.221 -0.2602 -0.1738  0.0478
25533W        W42007   5.409  18.003  14.883 -0.0166  0.0954  0.1114
25534W        W42008  18.256  16.622  12.336  0.2459 -0.1139  0.3070
25535W        W42009  17.099  12.323  15.587 -0.2849  0.1345 -0.0980
25536W        W42010   8.165   4.390   0.662  0.0827  0.0553  0.1451
25537W        W42011   3.632  17.964   4.871 -0.1722  0.1037  0.1987
25538W        W42012  17.471  17.187   2.246  0.2267 -0.0587 -0.3219
25539W        W42013   9.853   3.662  13.052  0.1357 -0.2235 -0.0959
25540W        W42014  14.564   9.788   3.887 -0.0383 -0.2864  0.3058
25541W        W42015   8.149   7.453   3.551 -0.1205 -0.0147 -0.0732
25542W        W42016   1.907   7.280   3.983  0.2659  0.1009  0.3270
25543W        W42017   6.832   9.143   3.892 -0.3766  0.0084  0.0603
25544W        W42018   0.072  16.547   3.299 -0.1895 -0.0509 -0.3433
25545W        W42019  12.066  13.941  14.884 -0.0673  0.0292 -0.2635
25546W        W42020  17.418  18.019   1.444 -0.3771 -0.1243 -0.1785
25547W        W42021   5.955   9.857   4.259  0.3223  0.0276  0.1372
25548W        W42022  16.571  17.679  11.193  0.2441 -0.0264 -0.1919
25549W        W42023  15.636  18.188  15.645 -0.1354  0.0867 -0.0644
25550W        W42024  10.720  14.311  15.449 -0.1712 -0.3770 -0.0285
25551W        W42025  15.085   3.345   4.449  0.0501 -0.2263  0.1451
25552W        W42026  12.505   0.343   0.931  0.0653  0.0810  0.0131
25553W        W42027   9.880  11.737  13.475  0.0603 -0.1162  0.0317
25554W        W42028  10.359  15.674  12.918  0.0057 -0.0185  0.1199
25555W        W42029   7.466  18.696  15.001 -0.0713 -0.0488  0.3860
25556W        W42030  13.462   1.581   0.356 -0.2891 -0.0240 -0.1024
25557W        W42031   0.195   2.932   3.732 -0.0236 -0.3218  0.1187
25558W        W42032  14.297   0.209  14.983  0.2043 -0.0344  0.2117
25559W        W42033   9.374   0.505   1.695  0.0259  0.0466 -0.0863
25560W        W42034   7.810   4.568  13.420 -0.1573  0.2583  0.0808
25561W        W42035   3.177   3.171   3.195  0.0139  0.2113 -0.2317
25562W        W42036  14.441   2.775  13.005 -0.1366 -0.2291  0.2553
25563W        W42037   2.807  12.931   2.107  0.1360  0.0379  0.0405
25564W        W42038   6.372  13.468  11.040  0.0344 -0.1249  0.1035
25565W        W42039   1.738   2.750  13.073 -0.2765 -0.2483 -0.0208
25566W        W42040   6.496   0.285  14.805  0.1794 -0.0675  0.2290
25567W        W42041   4.794   9.818  12.145 -0.2052  0.1398 -0.2591
25568W        W42042  13.058  12.580  12.430 -0.1747 -0.2071 -0.0438
25569W        W42043   5.184  16.215   4.532 -0.0395  0.2361  0.2000
25570W        W42044  15.767  13.985  14.598 -0.1354  0.1276 -0.1231
25571W        W42045  11.510   9.378   2.292 -0.1996  0.1129 -0.2709
25572W        W42046   8.672   0.311   0.516 -0.2406 -0.0246 -0.3402
25573W        W42047  17.706   1.216  13.556  0.4213  0.1840  0.1032
25574W        W42048  10.557   1.731  11.404  0.0102 -0.0014  0.0240
25575W        W42049  11.425   5.561   2.702 -0.0832  0.1581 -0.0670
25576W        W42050  15.413   4.337  14.109 -0.2158 -0.0332  0.0500
25577W        W42051   5.730   1.908  14.709 -0.2835  0.0542  0.2585
25578W        W42052   1.478  12.743  14.619  0.2145 -0.1429  0.2999
25579W        W42053   2.310   6.160   3.413 -0.5281  0.3963  0.0002
25580W        W42054   4.952   9.002  13.497 -0.2084  0.4012  0.1001
25581W        W42055   0.581  11.528  14.290 -0.0285  0.1111 -0.1042
25582W        W42056  16.721  13.414   2.821 -0.4272 -0.0600 -0.2421
25583W        W42057   1.919  10.687   3.426 -0.2900  0.2668 -0.1499
25584W        W42058  12.236   9.196   1.497 -0.1810 -0.0754  0.0786
25585W        W42059  15.561  12.521   3.218  0.0842 -0.0108  0.0326
25586W        W42060   4.762  13.831  12.180 -0.1195  0.1422  0.0868
25587W        W42061  16.354   7.321   4.810  0.0281 -0.0669  0.2476
25588W        W42062   8.329  15.564  11.676  0.0965 -0.0075 -0.0809
25589W        W42063   6.579  16.364  12.969  0.1354  0.1878  0.3018
25590W        W42064  15.447   0.039  11.601  0.0191 -0.2131 -0.2957
25591W        W42065   7.286  14.820   3.835  0.2860 -0.4332  0.0821
25592W        W42066  10.510  10.464  14.142 -0.0309  0.1545  0.2192
25593W        W42067  10.382  14.618   2.977  0.2668 -0.1826 -0.2109
25594W        W42068   4.678  18.571  13.467  0.0215  0.1349 -0.0739
25595W        W42069  17.870  14.304  15.177  0.1403 -0.2635 -0.1002
25596W        W42070  12.227   8.041   4.994 -0.0827 -0.0540 -0.0758
25597W        W42071  12.246   2.076  15.198 -0.4367  0.0110 -0.0433
25598W        W42072  17.335  14.643   0.109  0.2691 -0.0029  0.2458
25599W        W42073   6.414   3.642   0.177 -0.0728 -0.0698 -0.3534
25600W        W42074  18.591   6.515  13.434  0.1037 -0.1144 -0.1882
25601W        W42075   4.088   5.656  12.293 -0.1050  0.2749 -0.1133
25602W        W42076  10.838   1.054  14.620  0.1846 -0.2272  0.2164
25603W        W42077   1.586  12.938   4.532 -0.0030  0.1979 -0.1085
25604W        W42078   5.548   5.246   0.151  0.0296  0.0596  0.0730
25605W        W42079  11.503  14.296  11.931 -0.0182 -0.0509  0.1336
25606W        W42080  14.811  10.179   3.613 -0.2562  0.1794  0.1855
25607W        W42081  15.800   8.379  11.872  0.2115  0.1525 -0.1390
25608W        W42082  11.118   4.099   1.118 -0.3671  0.3228 -0.0947
25609W        W42083  17.968   6.116   3.910  0.3128 -0.1427 -0.1544
25610W        W42084  13.154   5.479   1.717  0.1208  0.1238 -0.0670
25611W        W42085  14.627  13.517   3.226 -0.1800 -0.0565  0.5966
25612W        W42086   0.559   6.688   3.778 -0.0251 -0.0136  0.0123
25613W        W42087   6.584   3.930   0.581  0.3396 -0.2105  0.3307
25614W        W42088   9.784   5.793  14.890  0.6468  0.0839  0.0828
25615W        W42089  12.226   9.779   4.148 -0.3050  0.1534  0.3817
25616W        W42090   2.154   9.183  13.123  0.0906  0.1941  0.0527
25617W        W42091  10.825   2.350  12.333 -0.0471  0.1851  0.1490
25618W        W42092  12.617  17.858  11.743  0.0544  0.1074 -0.0725
25619W        W42093  12.188   3.800   4.751 -0.0270 -0.1304 -0.0823
25620W        W42094   9.756  14.042  15.417  0.1074 -0.0442  0.0446
25621W        W42095   4.878  11.030  11.808 -0.0806  0.3090  0.2307
25622W        W42096  10.286  11.740  15.194 -0.0782 -0.1929  0.1779
25623W        W42097  18.385   3.601  11.108 -0.0705 -0.3203  0.2633
25624W        W42098  11.846   5.315   4.793 -0.0052  0.0005 -0.0306
25625W        W42099   0.103  12.055   0.231 -0.2020 -0.0872  0.0736
25626W        W42100  15.349  12.762   1.568  0.2114  0.0763 -0.0534
25627W        W42101  12.676   3.590  11.999  0.2428  0.0527 -0.0388
25628W        W42102   1.460  11.700  12.463  0.1305 -0.1117  0.1459
25629W        W42103   5.891   2.427   3.499  0.3745 -0.1658 -0.2380
25630W        W42104   7.141  12.507   1.725 -0.7460 -0.2871  0.1061
25631W        W42105   1.608   4.287   0.507 -0.0933  0.1905 -0.4618
25632W        W42106  18.139  18.065   0.223  0.1280 -0.0839 -0.0399
25633W        W42107   5.965  18.839   0.315 -0.1993  0.0251 -0.3608
25634W        W42108  11.081  13.396  13.495 -0.0076 -0.0535  0.1898
25635W        W42109  10.016   9.440   3.674 -0.1444  0.1675 -0.1854
25636W        W42110  11.121   1.708   1.808 -0.1439 -0.1968 -0.1746
25637W        W42111   5.138   1.351   5.323  0.0025  0.0612 -0.1236
25638W        W42112   2.893  15.391   0.776 -0.1779 -0.2541 -0.0748
25639W        W42113  12.705  11.875   2.524  0.1299  0.0621  0.4730
25640W        W42114   1.595   0.379  15.470 -0.0811 -0.2032  0.0004
25641W        W42115  10.286  16.408  12.564 -0.0681  0.2192  0.2593
25642W        W42116   6.648   4.936   0.188 -0.3919  0.1758 -0.1231
25643W        W42117  11.278   2.809   4.263 -0.0261  0.1229  0.1432
25644W        W42118   4.532  11.641   1.014 -0.0362 -0.2300 -0.1929
25645W        W42119  12.824   5.558  14.483 -0.3291  0.0124 -0.3177
25646W        W42120   9.546   3.131  14.092  0.0671 -0.2505 -0.3267
25647W        W42121   2.518   4.425   1.589 -0.1811 -0.0897  0.0789
25648W        W42122  10.771  15.487  12.054 -0.1110  0.2240 -0.0376
25649W        W42123   9.435  13.821   1.564 -0.4629 -0.1540  0.1096
25650W        W42124   5.741   3.218  14.546 -0.0601  0.0641  0.0872
25651W        W42125  18.252  16.896   3.126 -0.2005 -0.2905 -0.3402
25652W        W42126   6.534  10.496   4.224 -0.1139  0.0287  0.0412
25653W        W42127   8.351  15.712  13.959  0.0923  0.1973 -0.0988
25654W        W42128  11.577   6.651  15.243 -0.3186  0.0271  0.3194
25655W        W42129   4.412  16.291  14.530  0.2964 -0.1086 -0.3660
25656W        W42130  15.333   9.991  10.173 -0.0239 -0.0865 -0.0199
25657W        W42131  14.903  12.142   3.509 -0.1408 -0.4574  0.1044
25658W        W42132  17.212  11.508  12.965 -0.3954  0.0133  0.0367
25659W        W42133  14.783   5.601   4.856 -0.1102  0.0737 -0.1020
25660W        W42134   8.969  10.913  13.125  0.2852  0.3659  0.0164
25661W        W42135  16.267  12.163   4.813  0.2664  0.0420 -0.4418
25662W        W42136   6.681   3.392  14.884  0.1449  0.1274 -0.0236
25663W        W42137   2.749   1.764   0.356 -0.3210  0.4874  0.4540
25664W        W42138   0.871  11.308   2.217  0.2041  0.1877 -0.2286
25665W        W42139  12.501  15.664  13.847 -0.2035 -0.0322 -0.0443
25666W        W42140   0.113  16.651   1.863  0.2061  0.0426  0.0682
25667W        W42141   7.105  14.731   2.581 -0.0737 -0.1612 -0.2247
25668W        W42142  18.117  18.435   2.274 -0.0358  0.1627  0.1714
25669W        W42143  11.161  13.703   4.631  0.0957  0.1593 -0.0054
25670W        W42144  17.019  12.626   4.952  0.0548  0.0687 -0.1036
25671W        W42145  11.332   2.034   4.855 -0.3921 -0.1619 -0.0708
25672W        W42146   8.203   0.883   3.735 -0.0743  0.0906  0.2980
25673W        W42147   4.210   9.409  14.564 -0.1811 -0.1461  0.3335
25674W        W42148  17.075   4.979  11.144  0.1606  0.2076  0.1108
25675W        W42149   3.872  13.665  14.963 -0.2988 -0.2776 -0.0658
25676W        W42150  11.690   4.438   1.677 -0.2094 -0.3857 -0.0229
25677W        W42151  13.120   2.977   1.542  0.3855 -0.1126 -0.3215
25678W        W42152   2.376  13.352   2.793 -0.0101  0.0131  0.0657
25679W        W42153   1.463  15.591  11.801  0.1697  0.0780 -0.0063
25680W        W42154   9.896  17.389  15.357  0.1670 -0.1680 -0.2091
25681W        W42155   4.588  16.047   1.937 -0.1293  0.0931  0.1634
25682W        W42156  12.687   6.562   1.588 -0.1182 -0.3885  0.3013
25683W        W42157   6.654   3.371  11.374 -0.0833 -0.1745  0.4530
25684W        W42158  15.320  11.821   4.399 -0.1384 -0.2673 -0.2007
25685W        W42159  10.698  17.194  13.476 -0.1157 -0.0247  0.3904
25686W        W42160  16.934  18.614   2.773 -0.4900  0.0836  0.0028
25687W        W42161   6.955   1.533  11.913 -0.0341 -0.0213  0.2759
25688W        W42162  11.010  17.258   0.061  0.0284 -0.2407 -0.2100
25689W        W42163   3.160  14.892   4.105  0.4260  0.0295 -0.1331
25690W        W42164  16.247  14.421   1.922  0.2568  0.1481  0.0585
25691W        W42165   6.981   6.958   3.039 -0.1235 -0.2232 -0.0866
25692W        W42166  17.613   0.100  11.760 -0.3110 -0.0291  0.0837
25693W        W42167  16.750   4.834  11.504  0.2875 -0.0331  0.1516
25694W        W42168   3.754  13.466  15.410 -0.0577 -0.0685  0.0952
25695W        W42169  18.349   0.075   1.793 -0.1073 -0.2391 -0.0743
25696W        W42170   3.556  10.749  13.756 -0.2791  0.1255 -0.0453
25697W        W42171  18.259  16.536   3.898 -0.2397  0.3483  0.0091
25698W        W42172  14.609  14.961  11.962 -0.0596 -0.1315  0.2085
25699W        W42173   1.338  15.451  10.678 -0.0982 -0.3660 -0.1319
25700W        W42174   4.573  18.491  11.116  0.2066  0.2683 -0.1174
25701W        W42175  13.606   9.620   2.262 -0.0856  0.2690  0.3498
25702W        W42176  11.697  12.063   0.341 -0.0467 -0.5488  0.2325
25703W        W42177   7.171  16.604  14.156  0.3307  0.0114  0.2644
25704W        W42178  14.546   1.264  10.782 -0.0978 -0.0512  0.0280
25705W        W42179   1.512   9.147   0.456 -0.1257 -0.1373 -0.4345
25706W        W42180   0.071   2.387   2.370 -0.3508 -0.0643 -0.1308
25707W        W42181  13.967  13.821  12.452  0.1584 -0.0456 -0.0605
25708W        W42182   6.774   5.021   5.037 -0.2101 -0.0800  0.0946
25709W        W42183  16.704  10.402  13.193  0.3967  0.2675 -0.2566
25710W        W42184  12.264  10.397  13.929 -0.0782 -0.3787  0.6978
25711W        W42185  13.042  13.837  12.805 -0.1065  0.1615 -0.1951
25712W        W42186   1.146  10.057  11.412  0.1510 -0.1964 -0.0247
25713W        W42187   1.847  11.483  15.310 -0.0993  0.2207  0.1532
25714W        W42188   6.467   0.979  12.456 -0.0150 -0.0376 -0.0904
25715W        W42189   8.704  16.914   0.239 -0.1580 -0.2925 -0.2189
25716W        W42190   3.060   3.884  11.379 -0.0277  0.1152 -0.0275
25717W        W42191  15.616   7.398   1.036 -0.1056  0.3894  0.3161
25718W        W42192  12.112  17.358   4.440 -0.0703 -0.1277  0.0217
25719W        W42193   8.315  18.663   5.240  0.4030  0.0572 -0.0947
25720W        W42194   6.397  15.247  15.066 -0.2088  0.0619  0.1825
25721W        W42195   5.803  11.367  11.640  0.1576  0.0690 -0.1202
25722W        W42196   7.269  16.296  12.680  0.1507  0.3376 -0.2524
25723W        W42197   3.913   2.388  12.399  0.2403 -0.2147 -0.1109
25724W        W42198  14.435  18.003  12.016  0.0833  0.0762 -0.2084
25725W        W42199   1.126   5.190  13.235  0.1932 -0.1126  0.3230
25726W        W42200  11.543   5.407  12.111 -0.2635  0.1188  0.0570
25727W        W42201   4.608  16.906   1.858 -0.1322  0.3838  0.0669
25728W        W42202   6.035   0.731   5.311 -0.0705 -0.0258  0.3377
25729W        W42203   8.407  12.911  11.189 -0.1014  0.0802 -0.2777
25730W        W42204   2.617   0.115   3.047  0.0626  0.0406 -0.0454
25731W        W42205  14.505   1.771  13.036  0.0076 -0.0599 -0.0957
25732W        W42206   1.965  18.624  13.140  0.0570  0.3279  0.0593
25733W        W42207   5.596  18.795  14.504 -0.1617 -0.0564 -0.2600
25734W        W42208   6.579   1.687  14.552  0.0753  0.0543 -0.1839
25735W        W42209  17.291   0.909  13.673 -0.1808  0.0619  0.0512
25736W        W42210   7.527   6.811  15.134 -0.1900  0.0090 -0.2315
25737W        W42211  15.228  11.662  14.837  0.0907 -0.1990  0.3258
25738W        W42212   5.334  14.070   0.653  0.0521  0.3735  0.0706
25739W        W42213   6.628  16.683   1.712 -0.0907 -0.1610 -0.4345
25740W        W42214   8.330   6.948   3.191  0.0387  0.2203  0.2130
25741W        W42215   8.277   4.251  12.370 -0.0712  0.2313  0.0706
25742W        W42216   4.814  11.043   3.844  0.1620 -0.0239  0.0513
25743W        W42217   5.058   9.342  10.122 -0.0217  0.0375 -0.0259
25744W        W42218  15.075   1.687  15.489 -0.0203  0.2273  0.0003
25745W        W42219   3.692   1.436   0.315 -0.1530  0.2884 -0.0055
25746W        W42220   5.631   5.207  13.403 -0.2019  0.2373 -0.1647
25747W        W42221  16.103  14.154   4.780 -0.0780 -0.0013  0.0764
25748W        W42222   7.096   4.328  12.588  0.0932  0.0822  0.2903
25749W        W42223  11.848  12.123   4.441  0.1057 -0.0084  0.2983
25750W        W42224   7.977  10.534  15.618  0.0252  0.0072  0.0928
25751W        W42225   8.821  12.685   3.674 -0.1865  0.3743 -0.1792
25752W        W42226   9.253   7.733   5.206  0.0524  0.1095  0.2268
25753W        W42227   1.856   1.360  12.557  0.0319 -0.0826 -0.1098
25754W        W42228  17.652   0.530   3.501  0.3096  0.1993 -0.1478
25755W        W42229   0.598  17.923   3.362  0.0761  0.0881 -0.3453
25756W        W42230   5.471   8.423   4.024 -0.1149 -0.1303  0.1134
25757W        W42231   2.907   3.543  11.884 -0.0320  0.1715 -0.2326
25758W        W42232  11.210   2.020   3.855 -0.2872 -0.4030 -0.0413
25759W        W42233   7.658  16.171  11.149 -0.2808 -0.2406  0.5780
25760W        W42234  14.190   9.523   4.057  0.3759 -0.0292  0.2315
25761W        W42235  12.341   0.296  12.428  0.1167  0.0826 -0.0938
25762W        W42236   6.193   6.056  13.617 -0.0206  0.1837  0.0769
25763W        W42237  17.220  10.323   2.109  0.1548 -0.2033  0.1100
25764W        W42238   1.301  15.846   3.735  0.2274 -0.0643 -0.1458
25765W        W42239   1.698  16.151   4.410 -0.1861 -0.1193 -0.1578
25766W        W42240  10.116  14.225  11.927 -0.3863 -0.2844 -0.2077
25767W        W42241   6.279   8.587  11.935 -0.0659 -0.0218  0.0999
25768W        W42242  14.584   7.650  13.094 -0.1984 -0.1026 -0.0156
25769W        W42243  16.366   1.145   3.707 -0.1609  0.1248 -0.0252
25770W        W42244   1.165  16.683   3.694 -0.2051 -0.3670  0.3119
25771W        W42245  17.374   5.404   0.487  0.1183 -0.3322  0.5714
25772W        W42246   8.755  11.461   4.164 -0.2210  0.2363 -0.2147
25773W        W42247  16.598  13.789   4.652  0.0380  0.3087  0.0712
25774W        W42248   4.193  15.097   3.387  0.0684 -0.0609 -0.0796
25775W        W42249   6.539  14.453  12.100 -0.0004  0.1756 -0.1255
25776W        W42250   5.157  14.546   1.425 -0.1372  0.1812  0.2507
25777W        W42251   3.343   3.781  11.939  0.0438  0.0529  0.1951
25778W        W42252   4.489   6.483  12.959 -0.0966  0.1493 -0.2221
25779W        W42253  11.229   9.841   3.535  0.2349 -0.2900 -0.2022
25780W        W42254  18.253  10.791   0.130  0.1559  0.1024 -0.2176
25781W        W42255  13.517   4.553   5.551  0.1042  0.1120 -0.3985
25782W        W42256  18.351  17.663   2.482 -0.3631  0.1994  0.1800
25783W        W42257   1.834   9.463   0.806 -0.0377 -0.2496 -0.0212
25784W        W42258  15.768  14.290  14.064  0.0507 -0.0273  0.1365
25785W        W42259   3.572  15.658  15.068  0.1844  0.0117  0.0341
25786W        W42260   8.324   3.729   0.054 -0.1161  0.3196 -0.1444
25787W        W42261   0.121   4.950   0.017  0.0964  0.1212 -0.1654
25788W        W42262   7.242   0.605  12.221  0.0714 -0.1803  0.0237
25789W        W42263  10.483   8.405   2.434  0.2020  0.0192 -0.0875
25790W        W42264  13.428  12.395  11.760  0.0453  0.0953  0.1010
25791W        W42265  18.677   3.245   0.367 -0.1239  0.1618 -0.0069
25792W        W42266   6.190  12.284  12.723 -0.1306 -0.2811 -0.1035
25793W        W42267  12.475   8.871   4.071  0.3704  0.3040 -0.3952
25794W        W42268   2.138   5.147   3.832 -0.2324  0.1713  0.1514
25795W        W42269  12.688  15.964   0.558  0.2341  0.0139  0.0013
25796W        W42270   3.190   0.724  12.156 -0.2548  0.3210  0.4162
25797W        W42271   7.718   3.235   0.267  0.3503 -0.0979  0.0615
25798W        W42272   1.842  11.469   1.748 -0.0813  0.3564 -0.3064
25799W        W42273  11.715  10.433   3.096 -0.0909 -0.0164  0.1017
25800W        W42274  16.026   0.159   1.890 -0.0839 -0.2509  0.0394
25801W        W42275  16.464   7.364   0.596 -0.0416  0.0160 -0.1351
25802W        W42276  12.262  17.142   3.631  0.2569 -0.2897 -0.0311
25803W        W42277  17.883  10.152   4.070  0.0760  0.0257 -0.0352
25804W        W42278  18.296   9.448   2.617 -0.0245 -0.2281 -0.3553
25805W        W42279   7.013  11.971   2.165 -0.0396  0.0011 -0.2313
25806W        W42280   6.949   5.906   0.976  0.2305 -0.0180  0.4725
25807W        W42281   7.349   4.614  15.166 -0.2473  0.3292 -0.1256
25808W        W42282  12.266  17.876  11.407  0.1657  0.0626 -0.1324
25809W        W42283   9.827   7.758   1.816 -0.0790  0.1256  0.1100
25810W        W42284   1.717   4.153  10.350  0.2410 -0.2805 -0.3719
25811W        W42285   3.488   0.886  13.307  0.1323  0.2210 -0.0420
25812W        W42286  10.247  13.872  14.556 -0.3309 -0.0026  0.1364
25813W        W42287   3.278   4.814  14.926  0.2260 -0.0936 -0.1681
25814W        W42288  14.121   5.636   0.812 -0.0116  0.0126 -0.0573
25815W        W42289  16.750   6.027  14.526  0.0021  0.1054  0.2701
25816W        W42290   8.610  16.809  11.956  0.1016 -0.2141  0.0225
25817W        W42291  17.864  12.931  10.846 -0.1047  0.1786  0.3661
25818W        W42292  14.205  17.119   2.529  0.0717  0.0946  0.0335
25819W        W42293   3.000   4.436   0.079 -0.1239  0.2035 -0.0230
25820W        W42294  12.852  17.476   1.369  0.0243  0.0183 -0.0205
25821W        W42295  12.084   1.672   0.793 -0.1777  0.1527 -0.0545
25822W        W42296   8.057   6.463   1.564 -0.1309  0.0079  0.0452
25823W        W42297  15.133  16.091  14.015  0.2911 -0.1550 -0.0050
25824W        W42298  12.498   6.328   3.497  0.1808 -0.0686  0.0206
25825W        W42299  11.354  14.766  15.217 -0.1510 -0.0289 -0.1342
25826W        W42300   1.987   7.477  12.749  0.0559 -0.2283  0.0537
25827W        W42301  15.728  10.805  15.045  0.2623 -0.2617  0.0015
25828W        W42302  17.131   1.417   1.581 -0.0891  0.3976  0.2320
25829W        W42303  17.660   8.734   3.624  0.3836 -0.2018 -0.1092
25830W        W42304  12.214  15.466  14.189 -0.3133  0.2854  0.3400
25831W        W42305   5.305   2.038  13.301 -0.0601  0.0984  0.1971
25832W        W42306   0.656   1.268   3.232  0.0975  0.3934 -0.2124
25833W        W42307   6.429  14.182   4.852  0.1992  0.2116  0.0387
25834W        W42308  16.512  17.834  12.089 -0.3689  0.0270 -0.0244
25835W        W42309  13.909   1.588   3.805 -0.1584 -0.5012  0.4404
25836W        W42310   0.729  13.035   4.482  0.1058  0.0116  0.2032
25837W        W42311  14.485   9.786   4.358  0.2266  0.1293 -0.2869
25838W        W42312   9.692   0.834   4.508  0.0925 -0.2212 -0.1196
25839W        W42313   0.594  11.725   0.822  0.0158  0.0261  0.1380
25840W        W42314  10.030  18.730   1.171  0.3480  0.1944  0.5322
25841W        W42315   1.156  17.729   5.574  0.1989  0.3215 -0.2250
25842W        W42316  14.801  12.874  14.950  0.1684 -0.0207 -0.0591
25843W        W42317   3.749  16.935  10.767 -0.4102 -0.0782  0.0516
25844W        W42318   1.162  14.102   1.205 -0.2220 -0.2994 -0.0549
25845W        W42319  17.039  10.208  15.111  0.5517 -0.2829  0.0420
25846W        W42320   0.939   1.228  15.599 -0.0524  0.3193 -0.1993
25847W        W42321   1.469  11.815   2.819 -0.2423  0.1045 -0.1377
25848W        W42322   8.714  13.057  15.377 -0.2200  0.1837 -0.2285
25849W        W42323  15.502  17.875  14.042 -0.1058 -0.2774 -0.0877
25850W        W42324  18.470   1.848  15.526  0.2252 -0.1890  0.0322
25851W        W42325  12.934  16.431   2.507  0.1853  0.2527 -0.1369
25852W        W42326   1.636   1.054   4.184  0.1242 -0.2624  0.3408
25853W        W42327   5.716   8.355  15.213  0.2990  0.1795  0.0297
25854W        W42328  10.864   9.287  12.407 -0.3450  0.3653 -0.1502
25855W        W42329   7.840  12.453  14.855 -0.0094 -0.1621 -0.4846
25856W        W42330   9.790   2.200   3.777  0.1341 -0.2037  0.1688
25857W        W42331   2.978   2.543  12.713 -0.0476 -0.0077  0.1471
25858W        W42332  12.930  14.118   0.409  0.3721 -0.0498 -0.1869
25859W        W42333   2.195   7.015  15.207 -0.3663 -0.3051  0.2300
25860W        W42334   3.586  12.285   2.550 -0.0333  0.1270  0.2340
25861W        W42335  16.494   3.506   2.266 -0.1225  0.0712 -0.1782
25862W        W42336  12.565   2.152  11.580 -0.1844  0.4689 -0.0634
25863W        W42337  16.773   7.115   3.219  0.1276 -0.0303  0.0927
25864W        W42338  10.778  14.725   5.820  0.0630 -0.1361 -0.2589
25865W        W42339  13.097  14.504  14.471  0.1092  0.1754  0.1627
25866W        W42340  16.328  13.538  13.601  0.1089  0.1476  0.0286
25867W        W42341  10.413  15.809  11.542 -0.0387 -0.0621 -0.0976
25868W        W42342  14.361  11.293  12.251  0.0638  0.1762  0.1667
25869W        W42343   6.225   6.237  12.014 -0.4182 -0.0898  0.1638
25870W        W42344   8.913  14.462  12.839 -0.2495 -0.1238 -0.1327
25871W        W42345   1.958   7.730   3.450  0.0803 -0.0575 -0.0956
25872W        W42346   0.278   4.005   3.239  0.0160  0.1164 -0.2180
25873W        W42347   8.462   6.155  14.291 -0.2267 -0.1595  0.2986
25874W        W42348  12.876  13.334   3.318  0.1477 -0.0947 -0.2227
25875W        W42349  10.326  18.526   3.299 -0.1225 -0.0152 -0.0737
25876W        W42350  17.488  17.440  14.057  0.0816 -0.3650 -0.2950
25877W        W42351   9.121  18.634   3.781 -0.0416  0.1474  0.1455
25878W        W42352  12.690  15.782   1.803 -0.2329 -0.0902 -0.1112
25879W        W42353   1.303   2.473  12.607 -0.1620  0.2185 -0.2588
25880W        W42354  18.601  18.550   0.956  0.0184  0.0388 -0.0008
25881W        W42355   0.794  17.276  14.505 -0.1214 -0.1097 -0.2546
25882W        W42356   5.508   1.139  12.551  0.1653  0.1548 -0.1746
25883W        W42357  11.998   1.672   3.637 -0.1843 -0.0237  0.1050
25884W        W42358  14.892  16.671  12.327 -0.1859 -0.1371 -0.0341
25885W        W42359  14.500   9.681  13.197 -0.0254 -0.1731  0.2442
25886W        W42360  10.736   0.519  14.686  0.1755  0.1271 -0.1211
25887W        W42361   9.076   1.261   5.924  0.0605 -0.0501 -0.1238
25888W        W42362  13.877  15.768   2.210  0.0716  0.0728 -0.0492
25889W        W42363   4.733   9.555   2.344  0.1617 -0.1511 -0.1881
25890W        W42364   7.674   4.678   0.723  0.1752 -0.2425 -0.1825
25891W        W42365   4.413  11.581   4.502  0.1324  0.1114 -0.0449
25892W        W42366   3.751   3.573  11.414 -0.4042  0.2115  0.0657
25893W        W42367   6.232  11.540   0.580  0.0810  0.0029  0.1692
25894W        W42368   7.197   5.527  14.650  0.0803  0.0846  0.3715
25895W        W42369   8.432   3.422  11.330  0.0229 -0.0557  0.1659
25896W        W42370   5.676  12.685  11.670  0.0739 -0.2401 -0.2035
25897W        W42371   9.406  10.692   1.950  0.1261 -0.0311  0.0141
25898W        W42372   4.072  18.725   0.223  0.1105 -0.0146  0.0531
25899W        W42373  18.195   3.719   1.057  0.2854 -0.2197  0.0572
25900W        W42374   5.743   7.127  10.683 -0.1542 -0.1440  0.3723
25901W        W42375   9.160  16.214   1.156  0.3851 -0.1068 -0.1926
25902W        W42376   3.864   4.011  11.225  0.0731 -0.0889  0.2637
25903W        W42377  17.152   5.395  13.267  0.1819  0.0344  0.1611
25904W        W42378  16.573   8.880  13.107  0.2391 -0.0656  0.2850
25905W        W42379  14.822  14.020  12.046 -0.0795  0.1353  0.2637
25906W        W42380   9.498  11.523   0.278 -0.1163  0.0056 -0.0212
25907W        W42381  17.733  17.874  14.268 -0.1435 -0.0238 -0.0159
25908W        W42382   3.334  12.973  13.718  0.0653  0.1578 -0.1414
25909W        W42383   3.972  10.592   3.688  0.2834  0.0663  0.0727
25910W        W42384  17.782  11.593   1.852  0.1375  0.2552  0.0228
25911W        W42385   9.990  17.423   3.265  0.4766 -0.3168  0.4137
25912W        W42386   0.383  11.233  10.703 -0.1230 -0.3514 -0.3042
25913W        W42387   7.766   5.062   5.383 -0.0005 -0.0854  0.1514
25914W        W42388  17.467   7.396  15.137 -0.1486 -0.0576  0.0104
25915W        W42389   0.676   2.347   3.383 -0.2244  0.0031 -0.2022
25916W        W42390   7.166  14.730   0.389  0.1691 -0.0678  0.2875
25917W        W42391   4.836   0.288   0.010  0.2483  0.1754 -0.3339
25918W        W42392   7.829  18.352   3.927  0.4474 -0.2623 -0.2479
25919W        W42393   5.904   5.233   3.981 -0.2049  0.0593 -0.1898
25920W        W42394   4.023  15.369  12.320  0.2605 -0.1451  0.0687
25921W        W42395   0.508   8.699   1.250  0.1038  0.1750 -0.1851
25922W        W42396   3.509  15.206  14.947  0.3389 -0.0108 -0.1261
25923W        W42397  11.435  10.138  15.602 -0.2163 -0.1062 -0.4457
25924W        W42398  13.952   1.481   0.690 -0.1713 -0.4403 -0.0109
25925W        W42399  12.431   3.759   0.133 -0.1594  0.0150 -0.3153
25926W        W42400   1.847  18.775  11.909 -0.1282 -0.1435  0.1166
25927W        W42401  17.704  14.706  13.839  0.1119  0.0243 -0.1664
25928W        W42402  13.884   2.746   4.409 -0.0380 -0.1685  0.0608
25929W        W42403  11.379   9.935   6.160 -0.0357  0.3689  0.4611
25930W        W42404  16.647  14.906  13.855 -0.2767  0.0472 -0.0612
25931W        W42405   5.222  18.631  12.373 -0.0050  0.1716  0.0245
25932W        W42406   0.728   6.576   2.356 -0.0509  0.0543  0.3719
25933W        W42407   5.838   4.877  15.364 -0.2418  0.1481  0.1829
25934W        W42408   8.048   7.159   0.806  0.1126  0.2714 -0.3651
25935W        W42409   5.955   6.271  12.816 -0.1580  0.1400  0.0880
25936W        W42410  16.543   0.227  12.185  0.1969 -0.1922  0.0633
25937W        W42411   6.723   5.560  11.296 -0.0407 -0.1003  0.1012
25938W        W42412   7.195   3.790   5.987 -0.1766  0.0043 -0.2262
25939W        W42413   9.703  14.237   1.343 -0.0495  0.2960 -0.0757
25940W        W42414  13.071  17.561  12.392 -0.1013  0.2968 -0.2165
25941W        W42415   9.594  12.839  14.914  0.3757 -0.1411 -0.1846
25942W        W42416  17.236  12.922  15.345  0.0201 -0.2714  0.1507
25943W        W42417   9.271  11.751   3.518  0.1404 -0.1778  0.2170
25944W        W42418   3.815   0.729   4.739  0.4279 -0.0459 -0.4071
25945W        W42419  17.688   7.935   4.408 -0.0727 -0.1968  0.0293
25946W        W42420   7.967   5.144   1.401 -0.2344 -0.0365 -0.2139
25947W        W42421   2.890  12.676   3.295 -0.0932  0.0072 -0.2179
25948W        W42422   7.601   0.904   1.553 -0.1340 -0.2251  0.0265
25949W        W42423   1.998   9.011   0.400 -0.1885 -0.3009 -0.4097
25950W        W42424   8.467   9.990  11.829 -0.0755  0.6381 -0.0588
25951W        W42425   0.084  13.719   0.146 -0.6411  0.1318  0.2393
25952W        W42426  14.356  18.052  14.990  0.1775 -0.0148 -0.1334
25953W        W42427   8.570   5.406  11.503 -0.2375  0.2854  0.2256
25954W        W42428   2.410  12.051  14.128 -0.0479 -0.4854 -0.1294
25955W        W42429  13.519   7.451   2.188  0.0920 -0.0489 -0.2435
25956W        W42430  17.588   8.979  14.161  0.0258 -0.4181 -0.0564
25957W        W42431   9.045  15.316  14.545 -0.2795  0.2163  0.1714
25958W        W42432  18.278  17.035   4.188 -0.3202  0.1156  0.0527
25959W        W42433  13.173   2.189   3.018 -0.1589 -0.0162 -0.2879
25960W        W42434  12.514   4.092   4.342 -0.1074 -0.0627  0.0692
25961W        W42435  16.069  10.900   5.834 -0.0116  0.1771 -0.1703
25962W        W42436   2.413  16.898  15.432 -0.1211  0.4216  0.0447
25963W        W42437  13.412   8.790  13.885 -0.0429 -0.1186 -0.0639
25964W        W42438  15.419  10.678  13.715 -0.2940 -0.3069  0.2572
25965W        W42439   8.698  16.904   5.582  0.2297 -0.0319 -0.0193
25966W        W42440   9.183  16.856  13.084  0.2696  0.0435  0.3056
25967W        W42441  11.556  16.969  12.148 -0.1748 -0.0380 -0.0566
25968W        W42442   1.708  11.070  14.441 -0.2226 -0.1199  0.0364
25969W        W42443  15.084   9.636  11.560  0.0809 -0.2830  0.4612
25970W        W42444  13.828  18.465   3.860  0.0580 -0.2005 -0.0588
25971W        W42445   2.683  16.686  13.728 -0.0227  0.3314 -0.1866
25972W        W42446   5.861   3.646   6.342 -0.1097  0.0806  0.0902
25973W        W42447  12.146   2.931   2.695 -0.1377 -0.2936  0.1923
25974W        W42448   6.695  11.448  15.041  0.1609 -0.0856 -0.1161
25975W        W42449  14.586   7.877   4.821  0.4363 -0.0342  0.0396
25976W        W42450   9.953  16.450   3.675 -0.2258  0.1928  0.1774
25977W        W42451   2.111   4.336   2.098  0.0078  0.0554 -0.0736
25978W        W42452  11.486   0.013  12.575  0.0467 -0.2516 -0.3182
25979W        W42453  12.370   0.681   4.358  0.2395  0.0880 -0.0545
25980W        W42454  15.656   8.157   0.122 -0.1297 -0.2621  0.2075
25981W        W42455   5.110   4.602   4.105  0.2232  0.1424  0.0673
25982W        W42456  18.758   9.899  11.947 -0.3168 -0.0111  0.1540
25983W        W42457   8.547   3.786   3.484 -0.0894  0.0394  0.1355
25984W        W42458  10.715   9.332   3.059  0.3399 -0.2351  0.3896
25985W        W42459  12.179   7.715  14.032  0.1289  0.2670 -0.1314
25986W        W42460  11.745   6.847   3.773 -0.1128  0.0625  0.0346
25987W        W42461   0.144  16.116  15.033 -0.0918  0.2330  0.2887
25988W        W42462  16.015   2.684  15.542 -0.0571 -0.0148 -0.0292
25989W        W42463  13.943   8.525   3.114 -0.3575 -0.0214  0.1332
25990W        W42464   3.620   4.187  12.942 -0.0618  0.0952 -0.1279
25991W        W42465   7.983   1.873   4.503  0.0857 -0.0657  0.2610
25992W        W42466  17.897   4.792  14.523  0.2961  0.0229 -0.3298
25993W        W42467  16.671  18.380  15.191  0.2013 -0.0182  0.2570
25994W        W42468   5.974   1.745  12.634  0.0486  0.2365  0.0722
25995W        W42469  16.208  12.431  15.634  0.0528 -0.0888 -0.3528
25996W        W42470   8.405  17.301   4.663 -0.0390 -0.0431 -0.2533
25997W        W42471   9.726   7.301  12.009  0.0377 -0.0804 -0.0701
25998W        W42472  14.586  13.341   4.193 -0.1832  0.0422  0.3057
25999W        W42473  13.331  16.927   1.481 -0.2530 -0.2667 -0.1173
26000W        W42474  10.888   3.459   1.990  0.1686  0.0444 -0.1216
26001W        W42475   6.503  17.847   5.031 -0.0279  0.0424  0.1245
26002W        W42476  14.906   4.977  13.723  0.2882 -0.3266  0.0708
26003W        W42477   1.536  12.287   0.361 -0.0037 -0.3355 -0.0496
26004W        W42478   2.311   8.407   4.054  0.3620 -0.2440 -0.3269
26005W        W42479  14.623   4.795   1.385 -0.5282 -0.0214  0.1903
26006W        W42480  13.626  16.103   5.763 -0.0585  0.1947 -0.1797
26007W        W42481  14.096   4.597   2.164 -0.1752  0.2316  0.0462
26008W        W42482   4.298  18.627  12.324 -0.0788  0.2529 -0.0638
26009W        W42483  11.811  10.703   5.131  0.2407  0.1284  0.1852
26010W        W42484   8.205   8.472  13.202 -0.2236 -0.0873  0.0075
26011W        W42485   1.190  16.836  14.856  0.3307 -0.0588 -0.0919
26012W        W42486  11.530  14.782  11.607  0.2150  0.2086 -0.3965
26013W        W42487   7.345   6.091   0.115  0.2689  0.5622  0.1016
26014W        W42488   1.496  14.529  15.694  0.1908 -0.0872  0.1462
26015W        W42489   4.128   7.675  14.437  0.0067 -0.1239 -0.1822
26016W        W42490  14.834  13.115   0.826 -0.0083  0.2102  0.3782
26017W        W42491   3.320  14.052  13.230 -0.1045 -0.2141  0.0730
26018W        W42492  11.388  14.490   2.176 -0.2140 -0.0297  0.2235
26019W        W42493  10.232   5.688   0.211  0.3310  0.0791  0.2175
26020W        W42494  13.914   1.750   1.163  0.0468 -0.0004  0.3140
26021W        W42495   3.914   8.726   0.424 -0.0739  0.2510 -0.5270
26022W        W42496   8.073  13.892   5.968  0.0721  0.3324  0.1093
26023W        W42497   6.653  17.476   2.211 -0.0481 -0.0800 -0.0614
26024W        W42498  18.680  16.241   1.938  0.0024 -0.1371 -0.1595
26025W        W42499   1.701   1.647  12.166 -0.2165 -0.0115 -0.1327
26026W        W42500   1.038   3.680  12.363 -0.1760  0.2596 -0.2087
26027W        W42501   0.467  17.759  10.934 -0.0746  0.0421 -0.2082
26028W        W42502  16.783   4.209   3.506  0.1843 -0.3483  0.2299
26029W        W42503  14.322   7.433  11.919 -0.1141  0.0049 -0.2455
26030W        W42504   4.736   8.632   5.396 -0.1576  0.1442  0.3537
26031W        W42505   5.034   1.265  11.181 -0.1804  0.0487 -0.1410
26032W        W42506  17.817   8.399   4.131  0.1905 -0.0434  0.0403
26033W        W42507   3.797   0.620   0.653 -0.0313 -0.0961  0.0915
26034W        W42508   6.728   1.911  12.201 -0.1793 -0.1818  0.0246
26035W        W42509   8.981   1.502   4.108  0.1758  0.1559 -0.2098
26036W        W42510   3.204   4.316   2.593 -0.2227  0.0390 -0.1007
26037W        W42511  11.244  14.755  12.079 -0.0342  0.0798 -0.0533
26038W        W42512  13.909   1.122  11.562  0.2412  0.0511  0.0810
26039W        W42513   4.868   6.601  13.859 -0.1345 -0.0670 -0.2782
26040W        W42514  17.740  12.360   2.581  0.2257 -0.0339  0.1333
26041W        W42515   8.697  11.541  15.089 -0.2161  0.0370  0.2158
26042W        W42516  13.782  12.121  10.939  0.0836 -0.1188  0.0876
26043W        W42517   9.227  11.291   0.672 -0.1969 -0.2039  0.2935
26044W        W42518  18.422  10.948   9.456 -0.1282 -0.1641 -0.2270
26045W        W42519  17.296   8.321   1.297  0.2916  0.1993  0.2022
26046W        W42520   5.974  17.043   3.910  0.0820 -0.1121 -0.0546
26047W        W42521  15.270  11.688  13.922 -0.1385 -0.3294  0.1195
26048W        W42522  18.632  16.127   0.336 -0.5870 -0.4509  0.5782
26049W        W42523   1.791   1.927  14.497 -0.0004  0.2507  0.0547
26050W        W42524  15.322   6.454  13.670  0.0431  0.3298  0.1390
26051W        W42525   8.495   0.605  13.113 -0.0871 -0.0391  0.2882
26052W        W42526   2.593  10.135   3.135  0.1243 -0.0449 -0.0710
26053W        W42527   3.323   8.078  15.448 -0.1208  0.0356 -0.1127
26054W        W42528   0.553   0.936   0.583 -0.1169 -0.2102  0.2447
26055W        W42529  17.547   9.775  10.880  0.0083  0.1236 -0.1503
26056W        W42530   7.606   7.245  11.505 -0.0041 -0.0012 -0.2093
26057W        W42531  15.278  13.734   3.108 -0.1951 -0.2675  0.0696
26058W        W42532   7.951  10.369   3.656 -0.0463  0.0074 -0.0950
26059W        W42533  10.025   5.980   2.656  0.0895 -0.0595  0.0467
26060W        W42534   7.511  15.251   3.654 -0.2449  0.0866  0.1533
26061W        W42535   3.633   1.257   4.847 -0.0843  0.1859 -0.2769
26062W        W42536  14.875   2.048  13.065  0.0738 -0.1971  0.0662
26063W        W42537   1.722  12.771  11.059 -0.2045 -0.2170 -0.0187
26064W        W42538   6.876   2.745  10.664  0.1957  0.2785  0.0747
26065W        W42539   5.749   9.143   0.053  0.1560  0.0042 -0.2191
26066W        W42540   8.716  14.980  12.230 -0.0285 -0.1725  0.0912
26067W        W42541  14.639   0.514   5.275  0.1847 -0.1322 -0.0088
26068W        W42542   5.368  17.256   1.513 -0.1217  0.1614  0.4471
26069W        W42543   7.376  15.846  11.405 -0.1075 -0.0253 -0.0071
26070W        W42544  16.889   0.299  11.224 -0.0808 -0.1106 -0.0949
26071W        W42545   2.254  16.195   2.015  0.3487  0.2002  0.3067
26072W        W42546  16.024   5.972   3.129 -0.1059 -0.0167  0.3053
26073W        W42547  14.909  13.699  11.192  0.2164 -0.0253 -0.1806
26074W        W42548   0.515  16.718   2.387 -0.3103  0.0736 -0.1024
26075W        W42549   8.340   5.635  13.012  0.0713 -0.3717 -0.0166
26076W        W42550  16.511   1.413  14.229 -0.0356  0.0133 -0.1285
26077W        W42551  10.871   1.001   1.740  0.0913 -0.3045  0.2008
26078W        W42552  16.783  18.757  15.483 -0.1143  0.1016  0.0223
26079W        W42553   9.224  12.554  13.990 -0.0696  0.0307 -0.2228
26080W        W42554   2.184  14.329   3.340  0.3610  0.1460 -0.2212
26081W        W42555   6.026  11.251  14.615  0.0163 -0.1400  0.0830
26082W        W42556   0.062   9.404   5.380  0.2998  0.0196  0.0425
26083W        W42557  14.934  10.605  11.411 -0.0432 -0.3148  0.2647
26084W        W42558   6.882   4.809  12.759  0.1973 -0.1315 -0.3499
26085W        W42559   5.276  10.272  13.388 -0.0029 -0.1764 -0.1262
26086W        W42560   2.912   9.900   1.635  0.1208 -0.1338 -0.2251
26087W        W42561   9.123  15.984   0.290  0.3402  0.1164 -0.0624
26088W        W42562  15.185   7.752  14.947  0.0701  0.1113 -0.2781
26089W        W42563  15.243  17.484  10.133  0.0574  0.0996 -0.3839
26090W        W42564  16.585  14.251  14.015  0.0304 -0.0110 -0.3446
26091W        W42565   7.115   5.857   5.460  0.2775 -0.0499  0.0531
26092W        W42566   1.621   9.418   3.405  0.0092  0.2784 -0.2128
26093W        W42567   0.659   5.857  11.798 -0.1603 -0.0142 -0.0725
26094W        W42568   0.663  11.787  13.651 -0.3938 -0.0648 -0.0957
26095W        W42569  11.197   9.877  14.716  0.0475 -0.0515  0.0511
26096W        W42570   0.067   2.979   3.149  0.0918 -0.0493  0.0727
26097W        W42571  11.503  17.944   0.223  0.0419  0.1257  0.3310
26098W        W42572   8.383  11.520   0.332  0.0200  0.0847  0.1116
26099W        W42573  17.653   9.359  13.083 -0.2825  0.0378 -0.0341
26100W        W42574  10.484   6.114   2.587 -0.2994  0.1869  0.1957
26101W        W42575   7.127   8.392  12.171 -0.2045  0.2473 -0.0932
26102W        W42576   4.995   5.285  10.840  0.2480 -0.4766  0.1018
26103W        W42577   5.435  17.088   2.554  0.0480 -0.1765  0.3860
26104W        W42578   6.702   8.504   4.366 -0.2399  0.1888 -0.1521
26105W        W42579  17.908   0.153   1.425 -0.1075  0.2787  0.0286
26106W        W42580   6.584   9.965  13.430 -0.1020  0.1326 -0.3051
26107W        W42581   8.233   7.203   4.057  0.2170 -0.0032 -0.3168
26108W        W42582   9.444   2.776   0.898 -0.2651 -0.0647 -0.0978
26109W        W42583  17.090   5.674   4.476  0.2792  0.1101 -0.4430
26110W        W42584   7.160  10.759   1.078 -0.0961 -0.2009  0.0122
26111W        W42585  17.363   5.352  10.701 -0.1714 -0.0749  0.3088
26112W        W42586   7.341   7.984  12.562 -0.0753  0.1568  0.1873
26113W        W42587  15.718   5.243  15.680  0.0085  0.0427 -0.0315
26114W        W42588  10.391  11.788  14.378 -0.1256 -0.0443 -0.2257
26115W        W42589  18.174  10.472   4.338 -0.0519 -0.2231 -0.0733
26116W        W42590  11.227   9.903   4.154  0.1135  0.2308 -0.0101
26117W        W42591  18.151   9.861  12.486 -0.0723  0.0997  0.1640
26118W        W42592   3.310  18.333   3.063 -0.0127  0.1839  0.3176
26119W        W42593   1.001  18.253   1.811 -0.2068  0.3231 -0.4027
26120W        W42594   8.455  14.030  14.894  0.0761  0.1324 -0.0721
26121W        W42595   8.999   2.151  12.190 -0.1356  0.1030  0.3199
26122W        W42596   4.814  11.220  14.415  0.0799  0.0864  0.0232
26123W        W42597  16.860   2.484  11.023  0.3888 -0.0120  0.2373
26124W        W42598   0.228   6.223   0.209  0.3826 -0.0046 -0.1872
26125W        W42599   7.609  12.950  14.760 -0.3929 -0.2856  0.0825
26126W        W42600   5.419   4.889   4.377  0.0314 -0.1268 -0.0769
26127W        W42601  14.728  17.581   4.890 -0.1703 -0.1973 -0.1160
26128W        W42602   5.084   2.122  15.144 -0.2704  0.0797 -0.0970
26129W        W42603  10.846   8.487   0.804  0.0826 -0.0053 -0.1224
26130W        W42604   0.249  16.981   3.643 -0.1412  0.0628 -0.2706
26131W        W42605  13.451   0.747  11.369 -0.1786 -0.0236  0.0451
26132W        W42606   2.627   8.226  14.175  0.1152  0.1063  0.3696
26133W        W42607   3.962   4.185   5.481 -0.0466 -0.0016  0.2268
26134W        W42608  14.478  16.676  10.403 -0.1458  0.1311 -0.3874
26135W        W42609  14.277   4.571   1.115  0.0836  0.2021  0.0404
26136W        W42610  11.705   5.679  13.436  0.2298 -0.0600  0.0023
26137W        W42611   5.049   5.749  10.665 -0.1835  0.0567  0.1189
26138W        W42612  10.999  10.424   1.279  0.0245  0.1039 -0.4364
26139W        W42613  18.516   9.828  13.474  0.4076  0.1278  0.0123
26140W        W42614   7.775  16.986   0.873 -0.1612 -0.2034  0.0151
26141W        W42615  13.092   6.633  15.097  0.4017  0.1294  0.4000
26142W        W42616  15.098   7.673  15.437  0.1247 -0.0845  0.0659
26143W        W42617   8.757  18.559  12.006  0.0349 -0.0802 -0.1879
26144W        W42618  12.128   0.844  14.002 -0.0377  0.0450 -0.2356
26145W        W42619  18.236  12.741   2.066  0.0213 -0.3060 -0.1663
26146W        W42620   1.376  11.212   3.696 -0.2068  0.0504 -0.2116
26147W        W42621   4.333  18.537   3.991  0.4051 -0.0010 -0.2379
26148W        W42622  18.667   0.589   1.215 -0.0471 -0.1027  0.0647
26149W        W42623  10.317   3.446  12.372  0.1841 -0.0615  0.1579
26150W        W42624   7.878   6.127  11.746  0.2355 -0.0983 -0.0248
26151W        W42625  12.600  13.479  11.952  0.2899  0.1757 -0.0984
26152W        W42626   8.601   1.022   3.345  0.3566 -0.0579  0.1113
26153W        W42627   8.781   1.602   5.609  0.1669 -0.3017  0.0625
26154W        W42628   4.910   2.020  15.667 -0.2355  0.1790 -0.1420
26155W        W42629  16.038   3.067  10.768 -0.3809 -0.2755 -0.2681
26156W        W42630  16.834  12.628  15.166 -0.2026 -0.1360 -0.1796
26157W        W42631   2.781  17.712  11.629 -0.3067 -0.0868 -0.2674
26158W        W42632  13.842   7.065   4.295  0.5404 -0.2825  0.0697
26159W        W42633  12.313   7.220  13.952 -0.0962  0.0219  0.0432
26160W        W42634  11.702  15.941  10.974 -0.1527  0.1381  0.0658
26161W        W42635  15.593  10.711   0.199  0.2077 -0.2418  0.0451
26162W        W42636   0.172  18.378  15.471 -0.0929 -0.0703  0.0206
26163W        W42637   4.892  15.175   0.816 -0.1373 -0.1284 -0.1085
26164W        W42638   7.335  16.027  13.418  0.0901 -0.0959 -0.1241
26165W        W42639   2.743   7.472  13.050  0.0706  0.1374  0.3134
26166W        W42640   1.428   4.367  13.994  0.1417  0.7505 -0.0429
26167W        W42641  13.675  16.861  15.084  0.0319 -0.0412 -0.0377
26168W        W42642   1.015  12.315  10.613 -0.0470 -0.2191 -0.0556
26169W        W42643   8.560  12.248   3.566  0.2257  0.1187  0.3752
26170W        W42644  16.019   2.592  14.639  0.0071  0.1829  0.2133
26171W        W42645   9.833   0.183   1.711 -0.2119 -0.0562  0.0145
26172W        W42646  12.371   5.720  11.427  0.0926 -0.0487  0.2430
26173W        W42647  16.018   6.352  13.284  0.1462  0.0166  0.1605
26174W        W42648  10.222   7.759   4.066  0.0002 -0.0639  0.1979
26175W        W42649  17.913   9.956  15.685  0.1422 -0.1670 -0.3049
26176W        W42650  15.466   7.964   2.195  0.2756 -0.0702  0.0903
26177W        W42651   0.992  16.189  15.538 -0.1985 -0.1250 -0.1005
26178W        W42652   8.976   5.139  12.357 -0.0882 -0.6647 -0.2637
26179W        W42653  14.628   7.160  11.058 -0.1500 -0.2353 -0.1067
26180W        W42654   3.039   6.235  12.307 -0.1164 -0.1501  0.2779
26181W        W42655  10.651   1.680   0.997 -0.0536 -0.3606  0.1432
26182W        W42656   7.834   2.813  11.704  0.2057 -0.3320  0.1020
26183W        W42657  17.227   1.029  10.184  0.0171  0.1437  0.2622
26184W        W42658  14.110   0.409   3.481 -0.0625  0.0485 -0.2116
26185W        W42659   4.922  15.925  12.871  0.0225  0.3074  0.3630
26186W        W42660   8.097  11.091   0.971  0.4188 -0.1215 -0.0577
26187W        W42661  13.380  14.325   4.942 -0.0046 -0.1689  0.0674
26188W        W42662  15.055  14.973   3.803  0.3697  0.3111 -0.2854
26189W        W42663   1.087  15.869  14.859 -0.1060 -0.1054  0.4074
26190W        W42664  14.052   1.654  14.449 -0.0446  0.0258 -0.1728
26191W        W42665  10.147   6.245   4.474  0.2378 -0.0235  0.1407
26192W        W42666  10.330  13.846   5.816  0.1948  0.4064  0.1514
26193W        W42667   7.319   3.062  11.928  0.2692 -0.0346  0.2077
26194W        W42668  16.731   4.840   2.247  0.0373 -0.1063  0.0087
26195W        W42669   4.635  14.957  15.646 -0.1498 -0.2201  0.1254
26196W        W42670  13.205  15.036  11.477 -0.0870 -0.0051 -0.2149
26197W        W42671   4.810  13.939   0.616  0.0532 -0.0297 -0.0484
26198W        W42672   7.513  15.628  15.608  0.0291  0.1626  0.2920
26199W        W42673   6.958  17.424  13.662 -0.1534  0.0579  0.0509
26200W        W42674  14.168  18.209  15.471  0.3206 -0.0532 -0.1020
26201W        W42675   3.250  11.598  11.892 -0.0789 -0.1537 -0.0865
26202W        W42676   7.511   1.850   3.187  0.1950 -0.0075 -0.2375
26203W        W42677  15.089   2.525  13.878  0.1728  0.2404 -0.0863
26204W        W42678  18.452  11.075   3.410 -0.3044 -0.1334 -0.0633
26205W        W42679  12.058  11.243   4.646 -0.0194 -0.1399 -0.1177
26206W        W42680   6.489   8.489   1.654 -0.2999 -0.2136 -0.1201
26207W        W42681  16.014   0.998  11.810  0.2137 -0.1637 -0.0420
26208W        W42682  15.041   5.109   0.550  0.0157 -0.4437  0.4495
26209W        W42683   8.325  14.149  11.552 -0.0644  0.0117 -0.0004
26210W        W42684   9.023  13.757  11.158 -0.1194 -0.0988  0.0404
26211W        W42685  10.429   9.380  14.158  0.0987  0.1766  0.3401
26212W        W42686   3.161  16.709   1.048  0.1009 -0.1270  0.1219
26213W        W42687   1.650  11.587  13.696 -0.1929 -0.0339  0.2786
26214W        W42688  17.733  11.324  10.374  0.2014  0.2047 -0.1702
26215W        W42689  12.921  15.912   2.876 -0.2104 -0.2185  0.3115
26216W        W42690   6.007   3.185  14.123  0.2601  0.3873 -0.1679
26217W        W42691   2.334   6.643   3.327  0.0566  0.0149 -0.1277
26218W        W42692  18.049  13.914   4.598  0.2019 -0.3492 -0.2837
26219W        W42693  14.526  13.731   1.744 -0.0635  0.0405 -0.1375
26220W        W42694   8.085  11.724   5.226 -0.0498 -0.0294 -0.0082
26221W        W42695   8.013   4.991  15.565  0.0172 -0.0400 -0.3826
26222W        W42696   0.686  18.390   3.186  0.3430 -0.0531 -0.1665
26223W        W42697   5.617  18.499   3.476 -0.0881 -0.0659  0.1857
26224W        W42698  13.596   7.601   4.385  0.0177 -0.0917 -0.2180
26225W        W42699   3.187  15.089   2.147 -0.0353  0.0388 -0.0740
26226W        W42700   1.653   2.180   0.301 -0.0340 -0.0979 -0.1694
26227W        W42701  10.092  16.448  15.559 -0.1707  0.4053  0.1520
26228W        W42702  10.733  14.679  11.923 -0.0174 -0.1514  0.1707
26229W        W42703   0.552  17.689   2.467  0.0372 -0.0205  0.0908
26230W        W42704  14.957   7.846   5.171 -0.0050  0.3379 -0.0679
26231W        W42705  11.437  15.554   2.812 -0.0171  0.0438  0.0716
26232W        W42706  11.660  11.157   4.252 -0.0904 -0.2389 -0.4792
26233W        W42707  15.247   8.143   2.591 -0.2243 -0.0667  0.3044
26234W        W42708  15.741   8.712  12.270  0.1182  0.0548 -0.1638
26235W        W42709  11.849   8.712   3.220  0.0312  0.1509 -0.1857
26236W        W42710  18.328  13.439   2.004 -0.0581 -0.1123 -0.0004
26237W        W42711  14.812  11.063  13.230  0.0888  0.4716 -0.3160
26238W        W42712   9.471   1.679   4.804 -0.0584 -0.0517  0.0694
26239W        W42713   6.522   7.269   1.716 -0.0478  0.0353  0.1930
26240W        W42714   3.781   4.828  15.469  0.2062 -0.0995  0.3523
26241W        W42715   0.284   0.351  14.950  0.1083  0.1206  0.1245
26242W        W42716  11.827  11.113   2.361 -0.0010 -0.0915  0.2295
26243W        W42717  13.601  16.302  14.294  0.0274  0.0217 -0.4657
26244W        W42718   2.157   6.584   0.929 -0.0271  0.1247 -0.1908
26245W        W42719   4.401   9.595  11.083 -0.0237  0.3702  0.2150
26246W        W42720   8.513  10.771  13.280  0.3559  0.0430 -0.0580
26247W        W42721  12.186   7.530   3.337  0.0563 -0.0978  0.0429
26248W        W42722  11.961   6.872  12.748 -0.1427 -0.2553 -0.1504
26249W        W42723  12.503  14.382  11.082  0.0487  0.0143  0.0869
26250W        W42724  11.705   8.344   4.945 -0.0834 -0.0763 -0.2111
26251W        W42725   5.852   9.796  13.447  0.2829 -0.2744 -0.0001
26252W        W42726   1.569   2.467  13.637  0.1124 -0.0464 -0.2114
26253W        W42727  13.405   6.169  11.921 -0.1890  0.0372 -0.0999
26254W        W42728   9.573   9.124   1.625  0.3152  0.1440 -0.2327
26255W        W42729   7.416  10.785  15.129  0.0276 -0.0959 -0.0963
26256W        W42730  11.112  16.199   5.481 -0.1621  0.3354  0.1229
26257W        W42731   4.714   1.450  11.544  0.2619 -0.0168 -0.0414
26258W        W42732   2.534   1.139  11.143 -0.1893 -0.1560 -0.2784
26259W        W42733   7.345   6.005  11.580 -0.2603  0.0659 -0.0717
26260W        W42734   7.441  13.687  10.160 -0.2888  0.2155  0.1784
26261W        W42735   8.009   2.381   4.147 -0.3303  0.0430 -0.2525
26262W        W42736  10.518   2.161  13.831  0.4687 -0.1837  0.0323
26263W        W42737  13.713   3.715   1.799  0.3372 -0.0944  0.2351
26264W        W42738   2.601   6.018   5.973  0.3090  0.0953  0.0390
26265W        W42739  16.520  17.207   2.162  0.1445  0.3743  0.0596
26266W        W42740   6.469   9.411   1.747  0.3419  0.1687  0.3597
26267W        W42741   9.529   6.491  15.057  0.2263 -0.2246  0.1570
26268W        W42742  11.326  13.927  12.287 -0.1723 -0.3305 -0.0318
26269W        W42743   9.555  10.489   3.714  0.2812 -0.0231 -0.1422
26270W        W42744  16.022  10.331   0.303  0.1663 -0.3764  0.2044
26271W        W42745   7.872   0.996  11.437 -0.0090  0.4330 -0.3593
26272W        W42746  18.485   4.204  12.608  0.0250  0.0767 -0.1253
26273W        W42747   1.295   4.101  12.484  0.1402  0.0835 -0.1394
26274W        W42748   7.788   1.852  14.427  0.4907 -0.0574  0.3841
26275W        W42749  10.710  17.053   1.364 -0.2666 -0.1404 -0.0578
26276W        W42750   7.099  14.799  13.045 -0.2212  0.0324  0.1087
26277W        W42751   0.534   9.474   1.590  0.1642 -0.0566  0.0619
26278W        W42752   7.956  17.134   4.565 -0.0635 -0.1014 -0.0187
26279W        W42753   8.895  10.947  13.656 -0.2523 -0.0107 -0.2499
26280W        W42754  18.350  18.124   2.635  0.4874  0.0875 -0.2467
26281W        W42755   2.315  15.928   6.030  0.0138 -0.1388 -0.0671
26282W        W42756   1.978   0.941   2.266  0.0371 -0.3657  0.1725
26283W        W42757   9.555   6.977   5.265  0.0312  0.0534  0.1509
26284W        W42758  13.881  12.721   4.096  0.0711 -0.1980 -0.0480
26285W        W42759   5.404  12.269   0.180 -0.0926 -0.0581 -0.3845
26286W        W42760  17.987   4.651  13.321  0.3399 -0.0657 -0.1178
26287W        W42761   1.148   5.048  10.060  0.1950 -0.0918  0.1691
26288W        W42762  16.281  15.249  10.926 -0.1564  0.0097  0.2404
26289W        W42763   1.534   9.704   3.885 -0.2289 -0.0870 -0.0684
26290W        W42764   1.628  15.857  13.973 -0.1373  0.0822 -0.0491
26291W        W42765  10.412   0.212  14.313 -0.0813  0.1083  0.0537
26292W        W42766   9.853   2.327  14.584  0.0807  0.0154  0.0370
26293W        W42767  18.406  11.023   3.981  0.0314  0.0616  0.1471
26294W        W42768  16.859   1.296  15.074  0.2216 -0.0962  0.0169
26295W        W42769  13.424   2.575   0.384 -0.1186 -0.1346  0.0907
26296W        W42770   8.467  10.420  14.976  0.0262  0.1936  0.0999
26297W        W42771   8.380   1.098  12.977  0.0702 -0.0555 -0.0732
26298W        W42772   9.612  16.493  11.221  0.0872 -0.3539  0.0839
26299W        W42773  16.607  12.716   1.923 -0.0314  0.1980 -0.1385
26300W        W42774  12.260   3.358  13.221 -0.1224 -0.2208  0.2129
26301W        W42775  13.061   0.040  15.480 -0.5201  0.0396 -0.0001
26302W        W42776   2.885  10.417  14.798 -0.0926  0.1021  0.3771
26303W        W42777   3.317  10.484  11.107 -0.1225  0.2384  0.0003
26304W        W42778   6.870   5.223   2.696  0.1752  0.0309 -0.0679
26305W        W42779  17.200  12.751   5.564 -0.3231  0.3232  0.2726
26306W        W42780  13.184   5.761  15.323 -0.3542 -0.0269  0.0407
26307W        W42781   0.100  18.414  12.076  0.2792  0.1875 -0.2284
26308W        W42782   5.761   3.602   3.807 -0.0216  0.1415 -0.1982
26309W        W42783  16.691  14.607   2.051 -0.2809  0.1484  0.2128
26310W        W42784   3.768   2.775  13.676  0.0536  0.3144 -0.0169
26311W        W42785   1.861  17.670   2.661  0.2014  0.1550 -0.1852
26312W        W42786  18.406   4.668  12.918 -0.2047  0.1509 -0.2872
26313W        W42787  10.849  15.850  13.537 -0.0168  0.0067 -0.0525
26314W        W42788   9.991   5.228   6.208 -0.0877 -0.1257 -0.0439
26315W        W42789   5.542   6.987   3.763 -0.1002 -0.0206 -0.0104
26316W        W42790  11.457   1.826  12.246  0.0656 -0.1959 -0.0212
26317W        W42791  14.844   6.455   3.220  0.0824  0.2870  0.2946
26318W        W42792  16.246  12.168  10.654  0.1619 -0.1991 -0.1623
26319W        W42793   2.590   2.243   2.522 -0.3599  0.0260 -0.0156
26320W        W42794  17.834  13.807  11.191 -0.1328  0.2099  0.1586
26321W        W42795  15.928   7.763   2.374  0.0485  0.3970 -0.2508
26322W        W42796   7.766  11.929   5.929  0.3396  0.1100 -0.0255
26323W        W42797  10.970   2.743   5.615  0.2353  0.2267  0.0263
26324W        W42798   7.935  14.606  15.038 -0.0204  0.0675  0.1771
26325W        W42799  14.151   8.054   1.386 -0.1369 -0.0088  0.3124
26326W        W42800   8.339  13.946   3.403 -0.0882  0.0560  0.2876
26327W        W42801   8.671  11.307  11.050 -0.0147  0.0817 -0.2122
26328W        W42802  10.651   4.653   3.255 -0.1062  0.4412  0.0259
26329W        W42803   7.319  15.774  14.698  0.1456  0.2454 -0.0700
26330W        W42804  13.021  10.292   4.054  0.1320 -0.0835  0.2476
26331W        W42805  11.781  10.274   4.827  0.2163 -0.0117  0.1984
26332W        W42806   5.125   7.736  14.029  0.0518 -0.1294 -0.0999
26333W        W42807  13.720  11.850  14.803 -0.0934  0.0349 -0.0222
26334W        W42808  17.243  12.196  10.993 -0.1301  0.0704  0.0256
26335W        W42809  17.862  17.298  13.622 -0.0960  0.0048  0.0069
26336W        W42810   0.407  12.652   0.971 -0.1063  0.1957  0.0181
26337W        W42811  12.719  12.427  14.561 -0.0958  0.0569 -0.2993
26338W        W42812  10.564   1.115   4.104 -0.3664  0.1997  0.1304
26339W        W42813  15.576  10.664   2.738  0.0110  0.0930  0.2210
26340W        W42814   6.235   0.206  11.350  0.0230  0.1521 -0.2369
26341W        W42815   4.473   8.230   0.361 -0.2003 -0.3001  0.2824
26342W        W42816  12.321   0.083   2.414 -0.3046  0.1460 -0.0666
26343W        W42817  17.425   3.666   1.259 -0.0873  0.2153 -0.2347
26344W        W42818   8.915   9.646   4.686  0.1495  0.0832  0.0421
26345W        W42819   7.199   0.052  11.554 -0.3314  0.1946  0.0884
26346W        W42820   4.052   7.202  13.806 -0.0712  0.1557  0.1786
26347W        W42821  10.347  10.806   3.237  0.0014  0.3350 -0.2528
26348W        W42822  12.065  17.725   0.957 -0.0858  0.2700 -0.0082
26349W        W42823  10.323  10.026  12.944 -0.1473  0.1418  0.2450
26350W        W42824  11.002  13.219  11.753  0.0934  0.0371  0.0449
26351W        W42825  17.285   8.709  15.388  0.0546  0.1371 -0.0255
26352W        W42826  10.198   4.206   1.139  0.3728  0.0071 -0.0576
26353W        W42827   3.550  11.572  15.001 -0.2709 -0.1703  0.0819
26354W        W42828   9.511  16.498  13.261  0.0037  0.1028 -0.0430
26355W        W42829  14.581   3.608   1.207  0.0320 -0.2838  0.1145
26356W        W42830  10.424   7.201   5.824  0.0573 -0.1572 -0.0833
26357W        W42831   3.461  15.738   3.536 -0.0404  0.1182 -0.2215
26358W        W42832  12.568  17.371  15.200  0.0750  0.0764  0.0312
26359W        W42833  15.921  13.911   2.704  0.0775  0.0021 -0.0771
26360W        W42834   0.521   5.459  14.012 -0.2908  0.0810  0.0348
26361W        W42835   2.262   5.475   5.036  0.2613  0.0595 -0.0615
26362W        W42836  18.653  13.269   1.017 -0.2110 -0.0744 -0.0120
26363W        W42837  14.075   1.371  12.082  0.3117 -0.1288  0.0386
26364W        W42838  10.465  10.624   2.768 -0.1383 -0.0470  0.0213
26365W        W42839  17.842  11.172   4.670 -0.3310  0.0045 -0.4140
26366W        W42840  13.714  12.994   5.473  0.1922  0.1374  0.2641
26367W        W42841  18.436   5.125  13.617 -0.0043  0.3596 -0.0568
26368W        W42842   9.983   7.063   0.070  0.0844 -0.0924  0.1911
26369W        W42843   7.246  15.193   2.037  0.0677  0.0386 -0.2221
26370W        W42844   3.923   4.496  11.342 -0.1722  0.1774 -0.2525
26371W        W42845  14.658  15.932  11.857 -0.2491  0.1916 -0.0432
26372W        W42846   4.517  13.397   3.931  0.1062  0.1214  0.1837
26373W        W42847  10.680   3.163  15.404 -0.0766 -0.2440 -0.1795
26374W        W42848   6.346  15.178  13.164 -0.0923  0.0434  0.0312
26375W        W42849   6.801  16.732  15.053 -0.2247 -0.1394 -0.2518
26376W        W42850   2.984  17.368   0.044  0.2584  0.1927 -0.1425
26377W        W42851  14.439  11.077  11.063 -0.1210 -0.0006  0.0111
26378W        W42852   4.565   8.729  11.109 -0.3086 -0.3262 -0.0118
26379W        W42853   6.492   2.886   1.868 -0.1601  0.2592 -0.4088
26380W        W42854   0.595   2.701  10.626  0.3043 -0.2032  0.0997
26381W        W42855  11.703   2.270   4.576  0.1307  0.2377 -0.0158
26382W        W42856   6.791   6.289   3.040 -0.1029  0.2086  0.0525
26383W        W42857   2.579  11.244   4.453 -0.4361  0.1289 -0.3314
26384W        W42858   5.243   6.930  12.461 -0.2557 -0.1210 -0.1394
26385W        W42859   0.040  18.150  11.099 -0.0175 -0.0329 -0.1881
26386W        W42860   8.201   6.801   4.925  0.0609 -0.0761 -0.3811
26387W        W42861  10.797  17.014   1.826 -0.0137 -0.0973  0.1078
26388W        W42862   5.078  12.328   3.798 -0.1976  0.0473 -0.1932
26389W        W42863  12.754   3.888  12.588 -0.1414  0.2807  0.3204
26390W        W42864   9.733  14.179  11.526  0.1575 -0.3107 -0.1344
26391W        W42865   5.055   5.982   2.492  0.3307  0.1988  0.5400
26392W        W42866   7.766   9.203   3.233  0.3403  0.1235  0.3121
26393W        W42867  16.537  16.567   4.467  0.2344  0.0435  0.3245
26394W        W42868  15.881   1.901  12.323  0.0244 -0.0557  0.0453
26395W        W42869  11.021   3.986  13.936 -0.0857  0.2088 -0.0764
26396W        W42870  18.791   2.011   2.856  0.0557 -0.0801  0.1276
26397W        W42871  13.913   9.912  12.403 -0.0768  0.1246  0.3169
26398W        W42872   7.056  17.035  10.339  0.0349 -0.1586  0.0895
26399W        W42873   6.240  17.900   0.662 -0.1929 -0.0784  0.4494
26400W        W42874  13.087   8.872  15.152  0.2912 -0.2550 -0.1208
26401W        W42875   9.513   6.420   5.248  0.0453 -0.2234  0.1842
26402W        W42876   1.804   0.041   4.374  0.0391  0.0782 -0.0385
26403W        W42877   0.912  15.900   3.377  0.2038  0.2273 -0.3196
26404W        W42878  12.783  15.996   1.099  0.4032 -0.0379 -0.3102
26405W        W42879   1.958  18.720  10.793 -0.1840 -0.2625 -0.1485
26406W        W42880  12.060  17.887   4.891 -0.3028 -0.0283  0.0587
26407W        W42881   4.320   3.389   0.696  0.1986  0.1271  0.0438
26408W        W42882  12.785  11.795  11.999 -0.1797  0.4779 -0.3096
26409W        W42883   7.426  16.903   0.515 -0.0418 -0.0082 -0.2329
26410W        W42884  16.791   2.126  11.447 -0.1577  0.3487  0.4728
26411W        W42885  12.611   2.165   4.380 -0.0950 -0.1429  0.1266
26412W        W42886  11.518   4.581  15.418  0.0295  0.2167  0.0342
26413W        W42887   8.337  12.012   0.459 -0.2430  0.0727 -0.1685
26414W        W42888   9.816  16.185  12.726  0.1982  0.1165 -0.2048
26415W        W42889   2.198  17.544  12.357 -0.0740  0.1999  0.0889
26416W        W42890   0.294  13.936  13.651 -0.1027 -0.1327  0.2031
26417W        W42891  16.442   7.476   3.428 -0.1004 -0.1873  0.2034
26418W        W42892   8.917  17.373  13.775  0.1178  0.0783  0.0519
26419W        W42893  17.128  18.260  12.338  0.1138  0.0684  0.3138
26420W        W42894  10.747  15.335  14.953  0.0544  0.0125  0.0696
26421W        W42895  18.159   7.796   2.065  0.1038  0.0811  0.1447
26422W        W42896   4.080  15.690  13.069  0.3158 -0.0696  0.1714
26423W        W42897  14.764  18.256   3.273 -0.0732  0.3458 -0.3042
26424W        W42898  17.514   9.462   4.621 -0.4866  0.1077  0.1631
26425W        W42899  15.630  14.622  11.993  0.6344 -0.1165 -0.0012
26426W        W42900  12.107   5.239   3.328  0.1333 -0.0744  0.0127
26427W        W42901   9.033   7.761   1.781 -0.1746 -0.2541 -0.3099
26428W        W42902  15.286  12.138  14.790  0.2941 -0.3619 -0.5185
26429W        W42903   5.405   3.070   0.814  0.0775  0.0147 -0.0346
26430W        W42904   2.795   3.520  12.738  0.2172 -0.0697 -0.4507
26431W        W42905  10.308   7.133  13.163  0.0293 -0.0826  0.3021
26432W        W42906   4.186  15.080   0.314  0.2301  0.1193 -0.2737
26433W        W42907   3.565  14.629  12.737 -0.2033 -0.0986  0.0580
26434W        W42908  15.681   0.385  11.823 -0.2074 -0.1256 -0.1857
26435W        W42909  18.497  15.244   2.359  0.3056  0.0138  0.0746
26436W        W42910   5.539   8.324  12.768 -0.3018  0.1040  0.2401
26437W        W42911  17.360  17.218  15.337 -0.1379 -0.2159  0.1845
26438W        W42912   5.470   5.884  12.066  0.1798  0.3140 -0.1724
26439W        W42913   8.945  18.589   1.992 -0.1612  0.0100 -0.0182
26440W        W42914   8.445  15.234  13.903  0.0270  0.2313  0.1210
26441W        W42915  14.706  10.973   0.320  0.1516  0.2034  0.3125
26442W        W42916   7.009  15.547  15.566 -0.2881  0.2383  0.0337
26443W        W42917   4.185   7.723  12.480  0.2258 -0.3447  0.5372
26444W        W42918  12.089  11.737  13.063  0.0660 -0.3398  0.0885
26445W        W42919   1.609   1.073   4.660 -0.2693 -0.0129  0.1515
26446W        W42920  14.438   2.295   3.984 -0.1777 -0.1725  0.1266
26447W        W42921  10.718   5.304  15.614 -0.3052  0.0823 -0.2500
26448W        W42922   2.369   9.036   2.769 -0.0571 -0.1950  0.2680
26449W        W42923   6.418   1.578   0.970 -0.2247  0.0285  0.1357
26450W        W42924  11.080   8.190  13.136 -0.0303 -0.0268 -0.0910
26451W        W42925  11.435  17.191   2.450 -0.2093  0.0643  0.1324
26452W        W42926   1.675  14.078  15.640 -0.1273 -0.1256 -0.0258
26453W        W42927   3.665   0.961  13.847 -0.2006  0.1312 -0.1694
26454W        W42928  12.744   6.431  13.852  0.1013 -0.0412  0.1527
26455W        W42929   0.500   2.428   4.710 -0.0632 -0.1676  0.2417
26456W        W42930   8.638   2.659   4.553  0.0296  0.0719 -0.2918
26457W        W42931  17.969   0.950   3.346 -0.0738  0.0792  0.2599
26458W        W42932  11.037   4.602  12.661  0.0166  0.2077  0.0915
26459W        W42933   3.035  11.205   2.999 -0.3424  0.2102 -0.1907
26460W        W42934   9.441   0.997   4.144 -0.1313  0.0696 -0.2772
26461W        W42935   8.201   4.814   3.857 -0.2887 -0.2687  0.2703
26462W        W42936   2.164  13.519  15.324  0.0286  0.2577  0.2603
26463W        W42937  17.440   3.824   0.516  0.2661  0.2714  0.4465
26464W        W42938  13.713  13.094  11.527  0.1872 -0.2773  0.2526
26465W        W42939  17.438   6.907  10.414 -0.1782 -0.2059  0.1482
26466W        W42940  12.443  15.151   1.491  0.0805 -0.1924 -0.3235
26467W        W42941  15.358  15.267  12.125  0.2168 -0.2820 -0.2265
26468W        W42942   5.381   2.223  11.366  0.1111  0.1928 -0.1241
26469W        W42943   9.242  13.451   4.161 -0.0590  0.0735  0.1137
26470W        W42944   8.545  18.141   5.111 -0.0439 -0.1947 -0.2302
26471W        W42945   6.845  18.005   1.360  0.1631  0.2631  0.0695
26472W        W42946  16.560   9.341  11.246 -0.3140  0.1046  0.2036
26473W        W42947  12.007  14.426  10.473 -0.1745 -0.1037 -0.1415
26474W        W42948   0.163  10.327   4.058 -0.1334  0.1328  0.1811
26475W        W42949  10.711  18.461   1.387  0.0853 -0.0119 -0.1873
26476W        W42950  11.538  15.010   2.863 -0.2066 -0.1488 -0.1386
26477W        W42951  18.439   9.876   0.068  0.0455 -0.0182 -0.2188
26478W        W42952   1.324   3.689   4.460 -0.0452  0.1528  0.0725
26479W        W42953   3.923  16.666   0.540  0.4717  0.1943 -0.0269
26480W        W42954   4.644   3.570   1.344 -0.0879 -0.3118  0.3024
26481W        W42955   1.794  11.553   4.912 -0.1344  0.1420 -0.2573
26482W        W42956   6.321  17.159  12.301 -0.1996 -0.1185 -0.4228
26483W        W42957   3.333   8.298  14.141  0.1689 -0.1009  0.2283
26484W        W42958   0.038  16.489  14.499 -0.2033 -0.0354  0.0604
26485W        W42959  18.378  16.863  10.140  0.4248  0.0972 -0.3022
26486W        W42960   6.969  16.929   2.879  0.0468 -0.2048  0.0797
26487W        W42961   5.392   5.700  11.083  0.1227  0.2086 -0.0473
26488W        W42962  10.013  14.898  12.337 -0.1633  0.0477 -0.0906
26489W        W42963  17.288  14.020   0.246  0.1778  0.1401 -0.2730
26490W        W42964   8.294   3.529  14.596  0.1290 -0.0049 -0.0227
26491W        W42965  16.507  16.657  12.607 -0.0863 -0.1052 -0.0530
26492W        W42966   3.151   3.581   3.583 -0.0417  0.0520 -0.0708
26493W        W42967   2.754  14.272  13.320  0.1215  0.0380 -0.1772
26494W        W42968   2.808   4.070  10.959 -0.0708  0.1256  0.0159
26495W        W42969  16.924   8.919  13.511  0.0476  0.0878  0.4037
26496W        W42970   9.342  13.392  12.427  0.0813  0.0329 -0.0448
26497W        W42971   7.855   3.746   0.109 -0.2805  0.1606 -0.0854
26498W        W42972  12.746  13.707   4.341 -0.3864 -0.1352 -0.0946
26499W        W42973  14.886  16.771   2.013 -0.1410 -0.0109 -0.0572
26500W        W42974   3.056  11.251  12.942 -0.0655  0.0023 -0.3576
26501W        W42975  13.728  14.394   0.896  0.3027 -0.0709  0.1490
26502W        W42976   1.329  13.083   2.288 -0.0613  0.0077 -0.3092
26503W        W42977  11.646  11.330  14.155  0.0702 -0.1634 -0.0643
26504W        W42978  16.809  12.121   3.115  0.2058  0.0657 -0.1443
26505W        W42979  14.549  16.602  14.681 -0.2161  0.2015  0.0330
26506W        W42980   4.225   9.191   2.959 -0.0384  0.2113  0.2039
26507W        W42981   4.822  15.991  12.202  0.1295  0.0750 -0.2143
26508W        W42982   9.726   6.697  12.450  0.0371  0.2962  0.2709
26509W        W42983  10.107   9.190  14.872  0.0166  0.3177 -0.0620
26510W        W42984   5.798  15.087  14.426 -0.0134 -0.1815 -0.0254
26511W        W42985  15.585  11.104   2.375  0.0152 -0.1085 -0.1026
26512W        W42986  14.777  15.704  14.944  0.0399  0.1461  0.3639
26513W        W42987   9.852   6.730   3.529  0.1583  0.0004 -0.0073
26514W        W42988   8.591   9.801   1.777 -0.0786  0.2016  0.3120
26515W        W42989  16.739  10.935  12.226 -0.0111  0.0873 -0.0217
26516W        W42990  13.272  11.167   2.050  0.1511 -0.1013 -0.0253
26517W        W42991   0.836   2.064  15.665  0.0334  0.0482  0.0299
26518W        W42992  15.924   8.489  15.020 -0.1259  0.2561 -0.2342
26519W        W42993  16.820   3.168  11.613  0.1406  0.0518  0.2141
26520W        W42994  17.090   3.352  13.560 -0.1206 -0.1126  0.0681
26521W        W42995  17.863   1.275  14.046 -0.2630 -0.2825 -0.0555
26522W        W42996   8.081   2.630   1.891 -0.2412  0.3829 -0.1213
26523W        W42997   0.093  15.326   2.000  0.3528  0.0896 -0.0690
26524W        W42998  13.005  17.660   4.656 -0.0859  0.0358  0.3083
26525W        W42999   7.971   5.437   4.208 -0.3901  0.2131  0.2298
26526W        W43000   4.909  12.345  11.616  0.0502  0.1391  0.1346
26527W        W43001   3.893  11.292   4.972 -0.1873  0.0969  0.2217
26528W        W43002   6.461  14.379   4.163 -0.0858 -0.0108  0.1256
26529W        W43003  11.869  15.729   3.818 -0.2555 -0.0025 -0.0163
26530W        W43004  10.465   8.681  14.871 -0.0004 -0.0586 -0.0501
26531W        W43005   7.193  11.002   2.926  0.0495  0.0642  0.0967
26532W        W43006  17.304   4.090   2.052  0.0766 -0.0123  0.1077
26533W        W43007  10.702   3.638   4.350 -0.3452 -0.2042  0.0162
26534W        W43008   8.479   3.780  12.381 -0.0638  0.0426 -0.2005
26535W        W43009  12.209   4.795   3.877  0.0095 -0.0128  0.2913
26536W        W43010  13.525   2.276   4.498 -0.2344  0.0443  0.0832
26537W        W43011   0.987  10.754  10.535 -0.0215  0.0980 -0.4076
26538W        W43012  15.568  13.026  11.148 -0.2558  0.1791  0.1994
26539W        W43013  12.774  11.095  14.535  0.0723  0.1578  0.6569
26540W        W43014   8.635   3.140   1.219 -0.0810  0.1591 -0.0979
26541W        W43015   9.449   0.186  10.877  0.2160  0.2606  0.2957
26542W        W43016  11.972  14.169  13.492  0.0028 -0.2493  0.3108
26543W        W43017   4.927  18.197  15.007 -0.1415  0.0679  0.2211
26544W        W43018  17.962  12.940   0.176  0.1541  0.0614 -0.6102
26545W        W43019  16.599  17.225  10.986  0.0795 -0.2501  0.1972
26546W        W43020   2.438   9.229   2.258 -0.0877  0.1201  0.3921
26547W        W43021  10.718   3.826   2.696 -0.0177  0.3642 -0.1022
26548W        W43022   9.088   3.273   0.113 -0.2488 -0.1064 -0.1627
26549W        W43023  15.081  14.067   4.455 -0.1646 -0.0601 -0.3530
26550W        W43024  15.804   9.717  12.215  0.2280  0.2406  0.3825
26551W        W43025   3.645  18.699   1.785 -0.1437 -0.0055  0.1705
26552W        W43026  14.977   5.146   1.681 -0.1518 -0.0938 -0.1074
26553W        W43027   5.417  17.198   0.462  0.2521  0.1652  0.2429
26554W        W43028  18.797   2.110   4.168 -0.0794 -0.2415 -0.1998
26555W        W43029  15.296  16.338  13.478 -0.5508 -0.2076 -0.0764
26556W        W43030   4.973   0.197  13.449 -0.3794 -0.1407  0.0848
26557W        W43031   9.640   0.926  10.475 -0.1355  0.0549 -0.2766
26558W        W43032  14.985  12.274   1.791  0.2163 -0.2279 -0.2590
26559W        W43033   8.311   4.961  13.958 -0.0879 -0.0943  0.3231
26560W        W43034   7.711   3.867  14.270 -0.1539  0.1957  0.0884
26561W        W43035  18.397  13.530   4.599  0.3005 -0.4177  0.0488
26562W        W43036   1.929  12.552   1.266  0.4694 -0.0583  0.1209
26563W        W43037   9.912   5.331   1.821  0.5132  0.2226  0.0843
26564W        W43038   5.337   8.734  14.220 -0.1545 -0.1943  0.2604
26565W        W43039   5.341   0.267   4.329 -0.0779 -0.1449 -0.2800
26566W        W43040  14.560   7.535   2.019 -0.0700 -0.0507 -0.2857
26567W        W43041  12.663   1.691  11.782  0.1689  0.1950 -0.0298
26568W        W43042  14.878   2.249   3.194  0.0981  0.2576 -0.1205
26569W        W43043   9.038  17.032  14.598 -0.1876  0.0416  0.1641
26570W        W43044  17.037   6.218   4.119 -0.0056 -0.1409  0.0473
26571W        W43045  14.023   6.129   3.834 -0.0696  0.0789  0.1125
26572W        W43046  17.109  11.972  12.243 -0.1853 -0.2360 -0.1327
26573W        W43047   5.793  13.605  15.452 -0.0134 -0.2170 -0.1733
26574W        W43048  12.189   0.136   0.044  0.0796 -0.2508 -0.2028
26575W        W43049   8.749   0.803   0.545  0.1745  0.3149  0.0461
26576W        W43050   7.576  11.189   3.234  0.1853  0.4473  0.1068
26577W        W43051  11.205  12.114   2.688 -0.2749 -0.0929  0.0641
26578W        W43052  14.964  11.871  13.376 -0.1789 -0.2794  0.1242
26579W        W43053  13.473   0.645  14.116 -0.2583  0.0505 -0.1025
26580W        W43054  17.449  14.492  13.091  0.4357 -0.1087 -0.1764
26581W        W43055   4.704  11.131   2.153  0.1224 -0.0286  0.2228
26582W        W43056  14.434   5.375   1.303 -0.2046  0.4357  0.2262
26583W        W43057  13.219   1.976   1.920  0.0115  0.0426 -0.1658
26584W        W43058  11.766   9.051  14.505  0.1676  0.1941 -0.0380
26585W        W43059   6.852   6.155   2.028 -0.0213  0.0670  0.0167
26586W        W43060  14.964  13.622  11.738  0.0729 -0.1591  0.1186
26587W        W43061  15.145  17.928  10.861 -0.1566  0.0932 -0.2852
26588W        W43062   2.759   6.136   9.784  0.1171  0.0076 -0.1357
26589W        W43063   5.431   4.937  15.071  0.0764  0.0158  0.0154
26590W        W43064   2.612   2.261   4.083 -0.0202  0.0148 -0.5377
26591W        W43065  17.821   5.909  13.899  0.2579 -0.1167  0.2105
26592W        W43066   3.498   6.447  14.743  0.0273 -0.2627  0.1320
26593W        W43067  16.067   1.106   1.816  0.1751 -0.1276 -0.0859
26594W        W43068   8.403  16.665  14.085 -0.1677 -0.0962 -0.1610
26595W        W43069   5.623   2.275  15.128 -0.0795  0.0461 -0.0496
26596W        W43070   3.942  12.447   5.657 -0.2202  0.2936 -0.3021
26597W        W43071  17.822  12.958  11.759 -0.0502  0.2625 -0.2321
26598W        W43072  16.244  15.506   0.023  0.1463  0.2157  0.1529
26599W        W43073   5.853  10.218  10.867  0.0599  0.0515 -0.1076
26600W        W43074   9.423   3.945   2.585  0.0247  0.1597 -0.1084
26601W        W43075  15.437   0.837  10.462 -0.2113  0.2031 -0.0630
26602W        W43076   7.296   9.897  13.328  0.0396 -0.3374  0.1766
26603W        W43077  16.336  15.200  14.186  0.1651 -0.1460  0.1075
26604W        W43078   2.853  12.027   4.158  0.0383 -0.2292 -0.0042
26605W        W43079  10.257   3.319  11.817  0.2782 -0.3788 -0.2063
26606W        W43080  13.214   4.105  14.287  0.1167  0.2727 -0.0639
26607W        W43081   3.723   0.577   5.561  0.2428 -0.0161  0.0082
26608W        W43082   4.437  15.385  13.991 -0.3217 -0.0885  0.1137
26609W        W43083   5.574  16.758   3.022  0.1657 -0.1742 -0.0182
26610W        W43084   4.280  12.144  12.491  0.1443  0.2546  0.2499
26611W        W43085  17.773  15.268  10.956  0.0514 -0.0105 -0.1736
26612W        W43086  17.094  10.683   1.383 -0.0713  0.4306  0.2200
26613W        W43087   8.472  15.531   1.491  0.3493  0.0843  0.0454
26614W        W43088  16.922  16.438   3.274 -0.3734 -0.1124 -0.0539
26615W        W43089   9.322  12.404   1.380 -0.2419  0.0442 -0.3232
26616W        W43090  16.692   9.388   3.279  0.0904  0.2414 -0.1459
26617W        W43091   8.257  11.620   4.321 -0.0797 -0.0822 -0.0543
26618W        W43092  10.584  13.828   1.929 -0.2041  0.1989  0.1468
26619W        W43093   2.655  16.834   3.923  0.0298 -0.1352 -0.3494
26620W        W43094   0.632  17.956  15.246 -0.0512  0.2076 -0.0304
26621W        W43095   9.445  10.711  13.140 -0.3328 -0.1864 -0.6884
26622W        W43096  16.175   4.566  11.089 -0.0166  0.1519  0.1177
26623W        W43097  15.298  10.566   3.810  0.1700  0.1149 -0.1480
26624W        W43098   9.979  11.901  10.526  0.0179 -0.1825 -0.0936
26625W        W43099  13.261   2.298  15.170 -0.0015 -0.0075  0.1218
26626W        W43100   3.944  13.085  13.738 -0.2113  0.0134 -0.0827
26627W        W43101   1.011  12.711  13.068 -0.1457 -0.0981  0.0813
26628W        W43102   4.095   9.565   9.870 -0.2097 -0.0899 -0.0274
26629W        W43103  18.532  16.590  11.781  0.0378  0.0713 -0.0049
26630W        W43104   0.090  17.348   1.102  0.2825 -0.0708 -0.0770
26631W        W43105   0.240   1.340  14.124 -0.1724 -0.0473 -0.0543
26632W        W43106  14.743  11.984   1.480  0.1339  0.3893  0.3141
26633W        W43107   7.334  16.646   5.183  0.1178 -0.5474 -0.0381
26634W        W43108   0.796   0.463   2.657 -0.0628  0.2368  0.0487
26635W        W43109   6.756  13.790   1.894 -0.0527  0.4398 -0.0071
26636W        W43110  14.965   1.485  12.214 -0.2408  0.2167 -0.2411
26637W        W43111  11.863   1.280   5.876  0.1181  0.0323  0.0816
26638W        W43112  15.373   8.850   1.711  0.0117 -0.3070  0.0694
26639W        W43113  11.168   3.864   2.892 -0.3086  0.0377 -0.0309
26640W        W43114  15.467   1.170  12.955  0.1972  0.0361  0.0868
26641W        W43115  17.565   2.694   3.789 -0.0995  0.0700 -0.0182
26642W        W43116   0.565  11.444   2.591 -0.0227 -0.1911  0.2750
26643W        W43117  15.102  16.076  11.669  0.0528  0.3003  0.2575
26644W        W43118   6.330   4.808   4.328  0.0118  0.0585 -0.0355
26645W        W43119  16.817  11.441   4.620 -0.1791  0.0775  0.2752
26646W        W43120   9.423   4.662  14.700  0.3498 -0.0919 -0.0018
26647W        W43121   2.015   7.496  15.035  0.0820  0.2451  0.2869
26648W        W43122  10.595  13.066   2.783 -0.0532  0.3747  0.4221
26649W        W43123  16.726  12.800  12.691 -0.0063  0.3236 -0.3654
26650W        W43124   4.197  14.915  11.982  0.1494  0.5887  0.4695
26651W        W43125  11.470  15.655   4.995  0.2603  0.2770  0.0385
26652W        W43126  13.357  14.411   0.555 -0.0104 -0.2830 -0.1398
26653W        W43127  17.240   6.589  13.858  0.1801  0.0908  0.0819
26654W        W43128  11.748   2.015  15.293  0.2021  0.2568 -0.0987
26655W        W43129   3.559  13.011   4.828  0.2148  0.3600  0.3434
26656W        W43130   6.178   3.742  14.917 -0.1481  0.1856 -0.1160
26657W        W43131   3.113   9.406   2.991  0.0211 -0.1794 -0.0157
26658W        W43132  16.042   1.697  10.537  0.1037 -0.2949  0.1710
26659W        W43133  12.263   4.642  15.605 -0.1513  0.0585 -0.0238
26660W        W43134  11.384  16.403  15.665  0.0988  0.3296 -0.0442
26661W        W43135  12.156  11.278  13.281 -0.0816  0.0573 -0.2254
26662W        W43136  17.723  15.775   1.782  0.2584  0.0320 -0.0248
26663W        W43137   9.261   3.177   1.547 -0.0324  0.2295  0.2609
26664W        W43138   1.982  17.987  15.450 -0.2909 -0.2363  0.1066
26665W        W43139  10.109   2.677   3.135  0.0757  0.2377  0.1910
26666W        W43140   2.577  11.210  11.077 -0.1176  0.0662  0.1682
26667W        W43141  11.891   7.067   1.845 -0.1418  0.1194  0.0430
26668W        W43142   2.016  11.311   1.345 -0.2661  0.5238 -0.1250
26669W        W43143  17.939  14.543   2.709  0.3521  0.1057  0.0937
26670W        W43144  14.268   0.807   1.592  0.1412  0.0250 -0.0213
26671W        W43145   7.102   9.963   0.301  0.2210 -0.0375 -0.2974
26672W        W43146   2.200  17.455  12.868 -0.0000 -0.1882  0.1316
26673W        W43147  14.760  10.772  14.909  0.1135  0.0139 -0.2348
26674W        W43148   7.676  13.402   3.914  0.2083  0.1373  0.0353
26675W        W43149   1.928  18.280   0.666  0.0920  0.0272  0.0298
26676W        W43150   9.090  15.792  14.595  0.0563  0.1540  0.1395
26677W        W43151   0.080  18.848   4.506 -0.2864  0.0812  0.0241
26678W        W43152   8.654   5.293   6.049  0.0439  0.1140  0.3055
26679W        W43153  17.333   8.981   3.262  0.1249  0.0935 -0.2246
26680W        W43154   1.532  15.726  14.823  0.1785  0.1655 -0.2379
26681W        W43155   8.696  14.292   2.657 -0.1449 -0.1736  0.0917
26682W        W43156  10.622  10.105  13.332 -0.1891 -0.1566  0.2502
26683W        W43157   2.075  17.646   3.534 -0.1648  0.0167 -0.1977
26684W        W43158  16.970  14.659   3.362 -0.0922  0.1595  0.1959
26685W        W43159   8.376  16.005   5.147 -0.0145  0.1307 -0.5127
26686W        W43160  12.889  16.203  13.560  0.2685  0.0342 -0.0586
26687W        W43161   4.169   2.694  15.681  0.1408  0.2938 -0.0001
26688W        W43162   0.332   3.358  15.540  0.0041  0.2188 -0.1716
26689W        W43163   5.235   1.343  14.934 -0.0947 -0.2335  0.2674
26690W        W43164   8.053  16.679   5.164  0.1365 -0.0910 -0.2469
26691W        W43165  12.987  16.709  11.197  0.1691  0.0779  0.4040
26692W        W43166  13.196  17.590  15.571 -0.0700 -0.0577  0.1055
26693W        W43167  10.231  17.894  13.691 -0.0445  0.0615  0.0442
26694W        W43168  14.017  15.400  11.799  0.1175  0.2669  0.1081
26695W        W43169  12.116   3.381  15.128  0.1384 -0.0248 -0.2074
26696W        W43170   5.979   7.270  13.149  0.2396  0.1108 -0.3047
26697W        W43171   9.490  14.676   1.166  0.3150  0.2673 -0.1875
26698W        W43172  11.736  15.446  13.811 -0.1559  0.1828 -0.2396
26699W        W43173   4.665   8.179  12.899  0.0911  0.2740  0.3241
26700W        W43174  13.990  15.341  13.343  0.0710 -0.1896  0.0761
26701W        W43175  14.163  10.471  11.228  0.0264 -0.1851 -0.0516
26702W        W43176   4.738   0.975   4.263 -0.0107 -0.4241 -0.2828
26703W        W43177  15.880  10.120  14.487 -0.0073  0.2106  0.2798
26704W        W43178   3.435  13.931   3.492 -0.0310  0.0612 -0.3991
26705W        W43179   0.724  17.322  13.487  0.0017 -0.1040 -0.0325
26706W        W43180  18.599   7.623  11.589  0.0481  0.1573 -0.0963
26707W        W43181   6.094   5.416   1.485 -0.0236 -0.2357  0.1027
26708W        W43182   3.900   2.023   6.003 -0.3337  0.2661 -0.1025
26709W        W43183  12.214   5.641   1.382  0.1714 -0.1291 -0.2612
26710W        W43184  14.084  14.841   2.939  0.3295 -0.0163 -0.0216
26711W        W43185   3.004  14.676  15.353 -0.1392  0.0403 -0.0381
26712W        W43186   3.107   1.127   1.099  0.1424  0.3001  0.3705
26713W        W43187  13.596   8.064  14.791  0.0028  0.0112 -0.1073
26714W        W43188   1.678  13.551  14.485  0.1634 -0.1422  0.0636
26715W        W43189  12.200  13.144  13.651  0.2434  0.4899  0.3126
26716W        W43190  18.747   9.210  12.825  0.2267  0.1886 -0.2607
26717W        W43191  18.571  12.585  10.601 -0.1253  0.1338 -0.1891
26718W        W43192   4.497  10.798  12.813 -0.3389 -0.0087 -0.2976
26719W        W43193  13.507   5.695   3.049  0.2606 -0.0917  0.4729
26720W        W43194   0.121  12.560  13.229 -0.1451 -0.0074 -0.1323
26721W        W43195   7.613   7.387   2.572  0.0408 -0.3458 -0.2062
26722W        W43196  10.749  17.696  13.792 -0.0764 -0.0334  0.2264
26723W        W43197   0.997   0.442  15.485  0.1555  0.1991 -0.0180
26724W        W43198   9.297   4.160  13.352  0.1137 -0.1675 -0.0026
26725W        W43199  17.660   7.522  11.498  0.0292  0.1588  0.1019
26726W        W43200   1.997  18.234   2.703 -0.2454  0.2201 -0.1381
26727W        W43201   1.559   2.536  15.286  0.1295 -0.0690  0.0636
26728W        W43202   1.604  18.552   2.920  0.0740  0.1921  0.0095
26729W        W43203   0.547  16.436   5.324  0.2050 -0.2529  0.0209
26730W        W43204   1.413  10.215  15.526 -0.2297  0.2356  0.0298
26731W        W43205   8.509   4.149   0.161  0.0487 -0.1437 -0.3421
26732W        W43206   4.403   5.193   5.454 -0.0297 -0.0592  0.2994
26733W        W43207   4.165  17.324   3.095  0.0356  0.0736  0.0004
26734W        W43208  11.949   1.888  12.196  0.0356  0.3213  0.0121
26735W        W43209   6.200   2.205   4.550  0.1568 -0.0359 -0.0062
26736W        W43210   9.160  10.730  12.693  0.0215 -0.0322 -0.1422
26737W        W43211  13.259  14.038   0.857  0.2120 -0.6085 -0.0250
26738W        W43212   2.452  14.322   0.466  0.1865 -0.0316 -0.1671
26739W        W43213  14.613  16.285   4.718 -0.1597 -0.1180 -0.1091
26740W        W43214   6.824  11.627  14.082  0.0170  0.0403 -0.0129
26741W        W43215   2.711  13.694  13.403  0.0674  0.0938  0.0052
26742W        W43216   7.619   0.366   0.073  0.3321  0.0728  0.0546
26743W        W43217  13.642  16.417   2.704 -0.0030  0.3673  0.0681
26744W        W43218   9.497   4.909   3.983  0.1381  0.0232 -0.0525
26745W        W43219  13.181  10.306  12.795  0.2758 -0.0081  0.2035
26746W        W43220   9.130  17.313   3.299 -0.2435 -0.2638 -0.3087
26747W        W43221  18.066  17.218  10.927  0.0427 -0.0949 -0.1124
26748W        W43222   8.596  12.123  11.347 -0.2034  0.0888  0.0413
26749W        W43223   6.824  15.205  13.365  0.1054  0.1749 -0.0759
26750W        W43224   5.328   2.656  13.154  0.1534  0.1112  0.1271
26751W        W43225  14.477  13.241   4.698  0.1620  0.3210 -0.0923
26752W        W43226   3.615   4.340   2.259 -0.1163  0.0382  0.0667
26753W        W43227   1.451   4.959  13.560 -0.2372  0.1983 -0.0947
26754W        W43228  18.514  17.767  15.149  0.2095 -0.0587 -0.1361
26755W        W43229   4.437   3.470  14.209 -0.1219 -0.0711 -0.2111
26756W        W43230   7.834   6.613  13.671  0.0245  0.2269  0.0242
26757W        W43231   8.688  17.934   5.518  0.0946  0.1160  0.2250
26758W        W43232  14.197   6.767  13.543 -0.0125  0.4349  0.2397
26759W        W43233  10.265  14.876  14.797  0.1829  0.4255  0.0357
26760W        W43234  10.881  13.631   0.131 -0.1566  0.1839 -0.1166
26761W        W43235   7.654  11.090   0.226  0.1600  0.1223  0.1982
26762W        W43236   1.611   3.231  13.124  0.0697 -0.2771 -0.0179
26763W        W43237   8.311  15.322  12.108 -0.0207  0.2393  0.0441
26764W        W43238   0.649  16.256  10.677  0.1190 -0.0966 -0.2203
26765W        W43239  13.401  14.793   0.160  0.2556  0.2538 -0.1864
26766W        W43240   0.382   0.029  10.465 -0.2244 -0.2113  0.0745
26767W        W43241   1.025   9.647   2.366 -0.2894 -0.0094 -0.1460
26768W        W43242  10.411   4.457  10.882 -0.1557 -0.2620  0.0207
26769W        W43243  14.726  13.358  15.008 -0.1209  0.0894  0.0406
26770W        W43244  13.224  16.311   2.965 -0.0303  0.0449  0.0593
26771W        W43245   4.947   6.779  12.991  0.0192 -0.0262  0.0152
26772W        W43246  18.582   2.069  14.570 -0.4955 -0.3782 -0.1376
26773W        W43247   8.141   8.223   2.924  0.2266 -0.1060 -0.0439
26774W        W43248   8.442   0.380  14.075 -0.0079  0.0441  0.0529
26775W        W43249  18.390   2.100  12.578  0.0494  0.1649 -0.1263
26776W        W43250  16.381   2.269   3.586 -0.3392 -0.1104 -0.1633
26777W        W43251   1.214   8.360  15.518  0.1257  0.4535 -0.2847
26778W        W43252  11.058   1.762  13.839  0.2484 -0.3177  0.0036
26779W        W43253   7.156   5.995  14.325 -0.1334 -0.0887 -0.2432
26780W        W43254   3.548  14.281   3.121 -0.3206 -0.0225  0.0181
26781W        W43255   5.122  17.132   4.231 -0.3439  0.1877  0.0785
26782W        W43256  12.243   8.645  15.211  0.2640 -0.0301  0.1992
26783W        W43257  11.009   2.959  13.543 -0.2150 -0.1003  0.1815
26784W        W43258  16.887  10.387   0.987 -0.0270 -0.0881 -0.1479
26785W        W43259   8.995  12.132   3.745  0.0167 -0.3321  0.0094
26786W        W43260   2.136   6.449   1.474 -0.1800 -0.4427 -0.0198
26787W        W43261  12.251  13.825  11.996  0.0048 -0.0654 -0.4885
26788W        W43262  17.042  17.337  13.143  0.0026 -0.1395  0.1856
26789W        W43263   8.328   8.803   5.316 -0.2102 -0.2566 -0.0199
26790W        W43264  11.943   8.180   0.998  0.0831 -0.0921 -0.0129
26791W        W43265  13.519   8.823  11.449 -0.4963  0.3055 -0.2268
26792W        W43266  12.578   6.828  14.643 -0.0973 -0.2451  0.0158
26793W        W43267  11.366  16.480   0.494 -0.1401  0.3415 -0.0440
26794W        W43268  18.642   5.451   2.550 -0.1349 -0.1627  0.0153
26795W        W43269  14.394   9.427   5.884  0.1377 -0.0845 -0.0910
26796W        W43270   3.130   9.230   3.864 -0.3126 -0.0777  0.2542
26797W        W43271  12.252  18.119  11.008  0.2123 -0.2592  0.1796
26798W        W43272   0.410  13.349  13.111 -0.1328  0.0814 -0.1536
26799W        W43273   4.899  12.865  13.770  0.0021 -0.0355  0.1129
26800W        W43274   8.369  18.744  14.064 -0.1842 -0.1544  0.3935
26801W        W43275   6.626  15.422  14.465  0.3739 -0.0855 -0.2018
26802W        W43276  12.168   5.502  15.196 -0.2821  0.2519  0.1663
26803W        W43277  14.793   1.918   0.853 -0.2564  0.4233 -0.1080
26804W        W43278   5.970  10.573   5.097 -0.0727 -0.2812  0.0235
26805W        W43279   2.073  15.650   1.389 -0.0255  0.2265  0.3957
26806W        W43280  14.789  18.162   4.290  0.1632 -0.2699 -0.1439
26807W        W43281   6.716  16.830  15.617 -0.0730 -0.2630 -0.0874
26808W        W43282   4.098  15.890  14.807 -0.0135  0.0492  0.1210
26809W        W43283   6.040   2.802   1.817  0.2267  0.1365 -0.3764
26810W        W43284   2.844  10.316  11.230  0.2806 -0.0253  0.0163
26811W        W43285   1.891  10.179  13.065 -0.2749  0.0491 -0.0955
26812W        W43286   0.086  15.360  10.400 -0.0025  0.0641 -0.0886
26813W        W43287  11.693  18.851  14.031 -0.0213  0.2140  0.0569
26814W        W43288   0.637   2.881   3.418 -0.0921  0.1182  0.2912
26815W        W43289   4.824   0.229   2.037 -0.0839  0.2628 -0.1060
26816W        W43290   9.133  12.990  13.612  0.0962 -0.1973 -0.0123
26817W        W43291   7.027  13.409   2.091  0.1858  0.2020 -0.1374
26818W        W43292  14.464   5.313  15.237  0.3188 -0.2857 -0.4805
26819W        W43293  10.641  15.264   1.696 -0.1908  0.2504  0.2442
26820W        W43294  10.150   4.466  13.105  0.0448 -0.0174 -0.3347
26821W        W43295  18.100  14.729  11.009  0.0555  0.5245 -0.1676
26822W        W43296   5.658   1.778  12.176 -0.1238 -0.1998  0.0067
26823W        W43297   9.924   7.407   4.976  0.2737 -0.1067 -0.2223
26824W        W43298   5.362  13.597   5.991 -0.0782 -0.0423 -0.0702
26825W        W43299   0.904   0.904   3.484 -0.0645  0.4479  0.1286
26826W        W43300   4.523  14.862   0.577  0.1032 -0.2778 -0.1134
26827W        W43301  14.136   0.456   1.932 -0.0515 -0.1888 -0.3137
26828W        W43302   8.758  12.253   0.116  0.3167  0.1253  0.2492
26829W        W43303   3.741  18.363   4.602  0.0335  0.0544 -0.1542
26830W        W43304   1.923   6.864   3.655 -0.0153 -0.0164  0.0226
26831W        W43305   4.969   7.236  14.328 -0.1776  0.0929 -0.0789
26832W        W43306  14.892  11.453  15.250 -0.0931  0.1807  0.0399
26833W        W43307  17.470   8.854  12.220  0.1369  0.2766 -0.1851
26834W        W43308  14.978   1.396  14.574  0.0683  0.0218  0.2506
26835W        W43309   7.927   6.969   0.070  0.0010  0.2662  0.0539
26836W        W43310   0.808   9.580   0.145 -0.1514  0.0630  0.0821
26837W        W43311   2.843  12.341  13.011 -0.2828 -0.0394  0.1059
26838W        W43312   8.726  10.314  13.970  0.0526  0.0114 -0.3260
26839W        W43313  13.350   5.821  13.265 -0.0212 -0.0851  0.1455
26840W        W43314   3.485  17.186   1.795  0.0004 -0.0785 -0.2580
26841W        W43315   3.765   1.908  13.076  0.1808 -0.0729 -0.1047
26842W        W43316  15.277   1.993   4.561 -0.2463  0.0439  0.0979
26843W        W43317  13.784   0.665  12.424 -0.2890 -0.3858 -0.0053
26844W        W43318  15.056  16.565   3.579 -0.1696  0.1792 -0.0587
26845W        W43319  12.598   2.965   1.272  0.0627 -0.0433  0.0798
26846W        W43320  15.346   0.363   3.096 -0.0161  0.0820 -0.1817
26847W        W43321  17.646   6.320   2.232 -0.0860 -0.4856 -0.2093
26848W        W43322   8.501   5.672   4.286  0.0078  0.0760  0.0703
26849W        W43323  13.423  18.348   4.205 -0.0316 -0.0858 -0.1106
26850W        W43324   4.421   0.413  13.915  0.0724 -0.2070  0.5059
26851W        W43325   2.498  10.764  11.727 -0.0474  0.1078  0.1558
26852W        W43326  18.489   4.965  10.911  0.1362 -0.2205 -0.1319
26853W        W43327  15.840  13.199   3.457  0.1737 -0.0552  0.1039
26854W        W43328   0.610  14.077  10.917  0.2095  0.0193 -0.2094
26855W        W43329  14.394   7.407   2.531 -0.0533 -0.2177 -0.1572
26856W        W43330   7.850  13.844  10.443  0.3208  0.0540 -0.0653
26857W        W43331   6.657   9.712   0.273 -0.0960  0.1560  0.4209
26858W        W43332  12.931   6.445   3.280  0.0034 -0.1817  0.0859
26859W        W43333  14.004   3.760  12.827 -0.0215 -0.1969  0.0059
26860W        W43334   8.416   2.588   2.430  0.1241 -0.3468  0.0443
26861W        W43335   9.125  12.874   1.158 -0.0842 -0.1994 -0.0104
26862W        W43336  12.176   7.112  11.871 -0.0505 -0.0471  0.0291
26863W        W43337   3.018  16.094  14.007 -0.0814 -0.0923  0.1014
26864W        W43338   4.130   0.601   4.245 -0.1716  0.1854 -0.0699
26865W        W43339  13.678  16.795   0.655 -0.0867 -0.1120 -0.1151
26866W        W43340   8.817  13.951   4.944 -0.3709  0.0604 -0.1457
26867W        W43341   0.378   9.216   3.253  0.2082  0.1094 -0.3439
26868W        W43342   8.387   5.030   3.123  0.0308  0.4456 -0.1151
26869W        W43343   2.420  16.578  12.370 -0.2047 -0.2622  0.1488
26870W        W43344   7.113  12.333   2.580  0.1194 -0.0617  0.0059
26871W        W43345  16.489  10.428  12.231 -0.4623 -0.0991 -0.1355
26872W        W43346  13.562   9.212  13.139  0.3293 -0.0939  0.2571
26873W        W43347   0.076   4.763   2.158 -0.1455 -0.0546 -0.0688
26874W        W43348  16.332   1.308   3.228  0.1405 -0.0050 -0.0903
26875W        W43349   8.441   0.140  11.855  0.1274 -0.3692  0.2250
26876W        W43350   1.652  15.143  15.215  0.1739  0.1239  0.0595
26877W        W43351   4.976  16.073  11.718  0.1300  0.0336 -0.0653
26878W        W43352   5.776   2.209  12.394  0.3250 -0.0827 -0.0069
26879W        W43353   9.892  11.427   0.000  0.2023  0.1095  0.0877
26880W        W43354  15.359  17.217  15.572 -0.3649  0.1417 -0.1044
26881W        W43355  12.396  14.184  15.133 -0.1071 -0.0966 -0.0133
26882W        W43356   8.322  17.666   2.877  0.0311  0.0257 -0.0149
26883W        W43357  11.246   4.140  14.321  0.1633 -0.1624  0.1550
26884W        W43358   1.776   6.339   3.500 -0.2956 -0.1304  0.2187
26885W        W43359   4.578   2.591   0.615 -0.0648 -0.0352 -0.0207
26886W        W43360   1.669   6.062   1.446 -0.1529 -0.2034 -0.1459
26887W        W43361  13.225  18.229   0.532 -0.3664 -0.1358 -0.0713
26888W        W43362   9.895  10.781  12.442  0.0213 -0.0146 -0.0410
26889W        W43363   1.506   0.560   3.911  0.2628 -0.3580  0.4417
26890W        W43364   0.661  17.919   0.029 -0.0381  0.1743  0.3844
26891W        W43365  14.266  12.731   3.154 -0.1822 -0.0996 -0.0403
26892W        W43366   8.937  10.332  13.549  0.0141 -0.1796  0.4835
26893W        W43367  15.222  13.072  10.084  0.1667  0.1518  0.0782
26894W        W43368  16.796   2.401   3.788 -0.2668 -0.0676  0.1746
26895W        W43369   6.109   7.388   0.404 -0.0794  0.0285  0.0462
26896W        W43370  11.104  18.772   1.077 -0.1785  0.2229 -0.1094
26897W        W43371   5.433   6.155  13.016 -0.0433  0.1340 -0.1921
26898W        W43372   6.619  11.470   4.928 -0.4602  0.0534 -0.2235
26899W        W43373   4.023  10.609   5.323 -0.3840 -0.0746 -0.0709
26900W        W43374   0.774  11.541   3.964 -0.0014 -0.2789  0.2237
26901W        W43375   6.910   3.810   3.241 -0.3532 -0.1574 -0.1620
26902W        W43376  12.548  15.539   4.512 -0.1021  0.1053 -0.0041
26903W        W43377   6.891  13.407   1.597 -0.0033  0.0736 -0.2001
26904W        W43378   0.803   9.666  11.734  0.1566 -0.0880 -0.0698
26905W        W43379   5.677  11.628   3.970  0.2133  0.0909  0.1166
26906W        W43380   4.693  13.909   1.547 -0.2416 -0.0157 -0.1493
26907W        W43381  16.639  17.046   0.302  0.0168 -0.0711  0.1037
26908W        W43382   2.178   9.977   2.824 -0.1102 -0.3312 -0.1053
26909W        W43383  11.880   6.647   5.514 -0.0362 -0.1714  0.0052
26910W        W43384  13.297   9.814  14.216 -0.0389  0.4381  0.1326
26911W        W43385   2.246   8.555  12.069  0.2671 -0.2448 -0.4787
26912W        W43386   1.708   6.495   2.629  0.3966 -0.2654 -0.1546
26913W        W43387  15.298  11.874  10.828 -0.2704 -0.2214  0.0653
26914W        W43388  14.177  17.437  12.854 -0.1763 -0.3423 -0.0468
26915W        W43389   3.597   2.594  14.733 -0.0925 -0.0602 -0.1388
26916W        W43390   5.551   3.162  15.125  0.2228 -0.0537 -0.0793
26917W        W43391   4.158  14.793  13.378  0.1179 -0.0506  0.1754
26918W        W43392   8.278  15.193  15.663 -0.3081 -0.2559  0.2206
26919W        W43393  11.093   6.251   4.896  0.0198  0.0160  0.1419
26920W        W43394  14.620   5.717   1.023 -0.2886 -0.2468  0.2541
26921W        W43395  12.526   2.034   1.232  0.3478 -0.1224 -0.0230
26922W        W43396  18.486  18.653  15.544  0.1863  0.1517  0.1926
26923W        W43397  10.896   5.850  13.411  0.1146 -0.2854  0.1201
26924W        W43398   1.294   5.516  13.567 -0.1905  0.1416  0.2565
26925W        W43399  16.337  11.118   0.871  0.0507  0.0707  0.0104
26926W        W43400   4.509   8.671  12.587  0.1875 -0.2571 -0.1021
26927W        W43401   0.147   7.802   4.404 -0.2566 -0.0151 -0.0099
26928W        W43402   1.925  13.895   4.477 -0.1222 -0.0888 -0.0064
26929W        W43403  10.177  11.771   1.324  0.4464  0.0668 -0.0362
26930W        W43404  10.081   3.109   0.349 -0.3615  0.0604  0.0990
26931W        W43405  12.897   5.001   5.547  0.0227 -0.2152  0.0299
26932W        W43406  18.671   6.052   0.523 -0.1349  0.4056 -0.3346
26933W        W43407  13.197  18.423  11.925  0.0973 -0.0452 -0.2135
26934W        W43408   2.344   9.219  13.595 -0.0721 -0.0487 -0.3072
26935W        W43409  14.461  15.074   0.374  0.3460 -0.2765  0.0526
26936W        W43410  14.920   9.401  13.881  0.0992 -0.0298  0.2492
26937W        W43411   2.864   1.080  10.742  0.0730  0.4766  0.2920
26938W        W43412   9.733   0.634   0.320 -0.1742 -0.0102 -0.0045
26939W        W43413  18.282   7.363   1.348  0.0321 -0.0242 -0.2749
26940W        W43414  10.139   2.485  13.702  0.1416  0.2386 -0.2455
26941W        W43415   0.537  12.510   4.599 -0.1807 -0.3724 -0.2491
26942W        W43416   0.883   9.824  12.382 -0.1453  0.1582 -0.2065
26943W        W43417   2.881   9.460  14.651  0.1494  0.0761  0.0606
26944W        W43418   7.183  17.990  14.216  0.0331  0.1428 -0.2038
26945W        W43419  16.809  17.664  12.464  0.1304 -0.1232  0.1396
26946W        W43420   4.487   7.044   3.361  0.0918 -0.2569 -0.0056
26947W        W43421  16.498   6.299  13.012 -0.3477  0.1990 -0.0117
26948W        W43422   7.147   8.312   5.463  0.1737  0.1807 -0.1480
26949W        W43423  15.877   2.491  13.764  0.0556 -0.3012 -0.0120
26950W        W43424   7.847   6.832  13.189 -0.0750  0.0503 -0.0114
26951W        W43425  10.454  11.613   2.654  0.0825  0.1236  0.1211
26952W        W43426  12.014  10.961   3.694 -0.1317 -0.0599 -0.0425
26953W        W43427   5.972  15.809  13.627 -0.1639 -0.2139  0.1364
26954W        W43428   2.288  15.101  11.815 -0.1255 -0.1464 -0.1539
26955W        W43429   6.046   6.949   1.884  0.0535 -0.2059 -0.0352
26956W        W43430   4.475  18.141   3.727 -0.1071  0.1826  0.1555
26957W        W43431  18.368  14.351   5.095 -0.0104  0.5000  0.4378
26958W        W43432  12.273  11.196  12.100  0.0969  0.2780 -0.2576
26959W        W43433   2.353  12.223  13.678 -0.0976 -0.1640  0.1048
26960W        W43434   1.627   2.927  14.514  0.1936 -0.0420 -0.1959
26961W        W43435   8.872   2.929  12.403 -0.1374  0.4077 -0.0744
26962W        W43436   3.406   1.329  11.493  0.3176 -0.0360  0.1079
26963W        W43437   5.818   8.676   2.369  0.0208  0.0411 -0.0035
26964W        W43438   4.881  11.043   5.802  0.1335 -0.2342  0.4404
26965W        W43439  13.980  11.292  14.064 -0.2337 -0.2281 -0.1947
26966W        W43440   2.370   8.700   4.449 -0.0659 -0.0849  0.0867
26967W        W43441  13.291  15.430   1.338 -0.0634  0.1820  0.2869
26968W        W43442  14.370  15.093   4.387  0.1294  0.1879  0.2358
26969W        W43443   9.168  16.939  13.604 -0.1069  0.0012 -0.0357
26970W        W43444   0.721  18.108   4.885  0.2948 -0.1735  0.2461
26971W        W43445  18.636  15.670   2.190  0.1719 -0.0334 -0.1071
26972W        W43446  10.224   0.830   0.599 -0.1689 -0.0796 -0.2231
26973W        W43447  11.918   0.008   2.751 -0.1455  0.1098  0.0474
26974W        W43448   0.045   3.484   4.066 -0.2043  0.1921  0.1788
26975W        W43449   8.071   1.448  10.389 -0.2766  0.3318 -0.2298
26976W        W43450  10.822  17.388   4.001  0.0204  0.1001  0.0185
26977W        W43451  17.662   3.932  12.875  0.2761 -0.0697 -0.1117
26978W        W43452   6.971   8.091  14.899 -0.3262 -0.1528 -0.2460
26979W        W43453  18.624   9.352  11.427 -0.4034 -0.2596  0.0475
26980W        W43454   5.488  12.865   5.251 -0.0974 -0.0548  0.0021
26981W        W43455   5.934  14.232   0.852  0.1102  0.0794 -0.2676
26982W        W43456   7.752  16.149  14.430  0.0711 -0.1729  0.1722
26983W        W43457  11.098   9.229  13.303 -0.3606 -0.2283  0.0824
26984W        W43458   9.683   2.842  13.727 -0.0293  0.0187 -0.0434
26985W        W43459   5.514  18.275   0.609  0.0701  0.5478  0.0148
26986W        W43460   2.542  14.722   1.537 -0.0464  0.1144 -0.4374
26987W        W43461   5.257   5.680  12.590 -0.0015 -0.0877  0.0821
26988W        W43462   4.590  18.230   1.262 -0.2190  0.0328  0.0720
26989W        W43463  14.361  10.951  14.056  0.1076 -0.0223 -0.0023
26990W        W43464   4.952  15.678   0.692 -0.1411  0.2083 -0.0100
26991W        W43465   6.663   2.020   3.225 -0.1096 -0.3434  0.1781
26992W        W43466  17.899   0.413   2.475 -0.1830  0.0509 -0.2818
26993W        W43467  18.108   1.852   2.533  0.0034  0.4637 -0.0061
26994W        W43468   7.458   3.815  12.899 -0.1366 -0.0026 -0.3625
26995W        W43469  14.374   1.232  11.693 -0.1882  0.0957  0.1011
26996W        W43470   0.008   0.210  10.129 -0.3924 -0.2177 -0.1947
26997W        W43471  17.684   9.904   1.255  0.0459 -0.1579  0.2144
26998W        W43472   3.116  17.902  14.067  0.0960 -0.2872  0.2754
26999W        W43473  16.793  10.804   0.819 -0.0893  0.1992  0.0978
27000W        W43474  12.518  11.118   0.981  0.1473  0.0525 -0.2558
27001W        W43475   9.221   1.916  15.604 -0.0827  0.1951  0.0070
27002W        W43476   9.207  10.838   3.671  0.1947  0.0194 -0.0935
27003W        W43477   8.046   1.115  15.090 -0.2412  0.3404  0.2979
27004W        W43478   8.753   9.616  12.709  0.0158 -0.0607  0.2405
27005W        W43479   4.150   7.014   2.185 -0.1797 -0.0539  0.0212
27006W        W43480   8.974  17.692   1.782  0.0296  0.0638 -0.0241
27007W        W43481  10.443  12.403   0.772 -0.3272  0.0045 -0.2287
27008W        W43482  10.585  16.435   0.038 -0.3672  0.0377  0.0205
27009W        W43483   4.960  14.651   2.159  0.3507 -0.1376 -0.0517
27010W        W43484   5.027   5.149  14.804 -0.1809 -0.0092  0.2946
27011W        W43485  10.473   4.106   5.100 -0.1920  0.2204  0.1690
27012W        W43486   6.542  17.996  13.612 -0.0820  0.1153 -0.2703
27013W        W43487  17.174  13.048   5.198  0.3230 -0.0673 -0.1636
27014W        W43488  11.769  15.357   3.114 -0.0882 -0.2648  0.1052
27015W        W43489  16.796  15.441  14.142 -0.0838 -0.0028 -0.0405
27016W        W43490   0.377  14.481  14.655 -0.1209 -0.0909 -0.1149
27017W        W43491   6.078  15.730   3.160  0.3670  0.0082  0.3508
27018W        W43492   9.186   2.841  11.931  0.0021 -0.2982 -0.2200
27019W        W43493   8.688  13.944   0.477  0.0854 -0.1997  0.0968
27020W        W43494   7.380  12.149  13.323  0.2769 -0.0222 -0.0154
27021W        W43495  18.370   0.180  12.352 -0.1988  0.0405  0.0007
27022W        W43496   7.358  11.644   3.166  0.1906 -0.0556 -0.1294
27023W        W43497  12.788  14.416  13.461  0.2602 -0.1781 -0.0379
27024W        W43498  10.962  17.852   4.117  0.0215  0.1260  0.0017
27025W        W43499  13.582   2.960   3.913 -0.0760  0.0777 -0.1253
27026W        W43500   2.272  15.264  14.838  0.2453 -0.1723 -0.0830
27027W        W43501   1.620   3.347  14.982 -0.1776  0.1064 -0.1120
27028W        W43502   1.199   5.441   3.420 -0.0514  0.1859  0.3246
27029W        W43503   7.595  17.990  11.277  0.2882  0.1729  0.3293
27030W        W43504   0.549  18.088  13.953  0.0878  0.1551  0.3011
27031W        W43505  13.693  16.301   4.438 -0.1251 -0.1688 -0.2658
27032W        W43506  13.876   9.762   2.932 -0.0167  0.2629 -0.0996
27033W        W43507  15.665   4.320  15.415  0.3685 -0.0488  0.0344
27034W        W43508  17.760  12.330  11.709 -0.0508 -0.1301  0.0802
27035W        W43509   6.230   3.296   1.168  0.0400  0.2437  0.4340
27036W        W43510  10.485   4.906   5.589  0.0035  0.3332  0.0408
27037W        W43511   3.421  17.535  14.617  0.1991 -0.0798 -0.3220
27038W        W43512  13.396   3.051  14.603  0.1170 -0.2587 -0.1341
27039W        W43513   6.428  14.904   0.717 -0.2759 -0.0423  0.2197
27040W        W43514   1.692  10.932  11.236 -0.3513 -0.1634 -0.0466
27041W        W43515  14.502   5.799  11.060  0.2422  0.2523  0.0068
27042W        W43516   1.386   2.910  12.731  0.1207 -0.0321  0.0048
27043W        W43517  15.714  12.352   2.183 -0.0467 -0.2491 -0.0026
27044W        W43518   9.955  10.424  15.566  0.0393 -0.1545  0.0843
27045W        W43519   7.053  15.875   4.230  0.1187  0.0420 -0.1569
27046W        W43520  15.461   3.799  12.783 -0.3469 -0.1005 -0.2450
27047W        W43521   8.465  17.700  15.677  0.1103 -0.1226  0.0370
27048W        W43522   4.500   2.264  14.284  0.0483  0.1577  0.0709
27049W        W43523   2.760   3.712  15.438 -0.2185  0.2148 -0.0179
27050W        W43524  16.886  10.518  12.634 -0.0349  0.1526  0.1909
27051W        W43525   4.970   4.610  11.633 -0.1054  0.0821 -0.2940
27052W        W43526   8.274   5.386  14.215 -0.1933  0.0312 -0.0580
27053W        W43527   9.339  17.470  12.210  0.0468 -0.0240  0.0582
27054W        W43528  15.539  15.105   3.607  0.1002  0.0228 -0.3221
27055W        W43529  15.831   4.149   9.665  0.0428 -0.3467  0.0412
27056W        W43530  11.839   2.534   2.743 -0.0933  0.1645 -0.0046
27057W        W43531   4.480   0.131   4.108 -0.1020 -0.2298 -0.0588
27058W        W43532  17.222   6.438   3.204 -0.0128 -0.0462  0.0114
27059W        W43533  10.701   4.584   5.190  0.3692  0.1695 -0.2029
27060W        W43534  11.009   1.990  13.266 -0.0100 -0.0711 -0.2790
27061W        W43535  10.989   4.147   2.399  0.0276  0.0256 -0.3321
27062W        W43536   7.070  17.450  14.203 -0.1562  0.1349  0.0243
27063W        W43537  14.674  11.137  14.490 -0.0189  0.3084  0.1860
27064W        W43538  15.373  17.674   3.012 -0.3520  0.0482  0.0606
27065W        W43539   1.852   2.141   1.007 -0.0999 -0.1052 -0.0035
27066W        W43540   1.704   0.967  12.948 -0.1967  0.0278 -0.2874
27067W        W43541   5.740  17.468  11.658  0.2991 -0.0243  0.2190
27068W        W43542   4.865   7.924   2.890  0.4323  0.2497 -0.2339
27069W        W43543  11.423   8.779  14.838 -0.0420 -0.2307  0.1615
27070W        W43544  14.256  17.413  14.442 -0.3685 -0.2680 -0.1828
27071W        W43545   8.115  16.435   3.320 -0.2212  0.1772  0.1647
27072W        W43546  17.725   7.221  14.733  0.1557  0.0417 -0.1321
27073W        W43547  14.920  10.839  13.636 -0.1355  0.3200  0.0677
27074W        W43548  13.904  16.697  13.916  0.0705  0.1462 -0.2444
27075W        W43549  14.619   8.948   4.951  0.0669 -0.1989 -0.1214
27076W        W43550  14.849  17.626   4.366  0.1218  0.0716  0.1417
27077W        W43551   9.424   1.320   0.975 -0.4784  0.1016  0.4461
27078W        W43552   1.281   8.044   4.598  0.2059  0.1210  0.0143
27079W        W43553   3.730   7.346   1.672 -0.0945  0.1030 -0.2603
27080W        W43554   9.035   6.027  13.103 -0.0188  0.1257  0.0051
27081W        W43555   9.800   0.155   0.771 -0.0090 -0.0839 -0.2461
27082W        W43556   9.518   8.370  12.991 -0.3387 -0.2064  0.0895
27083W        W43557   9.798  12.072   1.423 -0.1247 -0.0514 -0.0152
27084W        W43558   5.442  12.869   5.989  0.0960 -0.1357 -0.1402
27085W        W43559  15.331   9.096  15.153 -0.1848 -0.0557 -0.2450
27086W        W43560  11.437   3.926  12.277  0.2712 -0.3966  0.0671
27087W        W43561   0.250   9.703  14.180 -0.0973  0.2700  0.0532
27088W        W43562   2.503   2.407   3.084 -0.0788  0.0886 -0.3661
27089W        W43563   0.594  13.624  10.552  0.1413  0.1219  0.0524
27090W        W43564  12.528   0.110   1.858  0.0355  0.1474  0.0797
27091W        W43565  12.913  11.287  15.411 -0.0293 -0.1247  0.0181
27092W        W43566  13.328  10.859   1.685 -0.0161  0.1867  0.1576
27093W        W43567   8.531  13.661   5.224  0.3901  0.3172 -0.0871
27094W        W43568   4.361  13.712   3.018 -0.1086 -0.5742  0.2063
27095W        W43569   7.774   5.916   2.997 -0.0281 -0.0352 -0.2703
27096W        W43570  17.906  13.837  14.950 -0.1360 -0.0723  0.0993
27097W        W43571  15.630   1.782   4.202  0.2456 -0.4186 -0.0134
27098W        W43572  16.336   0.234   3.402  0.1437 -0.1144 -0.1280
27099W        W43573  16.940   6.649   4.489  0.1702 -0.0485  0.3453
27100W        W43574   7.527   1.081   5.317  0.0688  0.2555  0.1436
27101W        W43575  15.456   4.517  12.092  0.1751 -0.0086 -0.0659
27102W        W43576  10.848   8.497   0.212 -0.0323 -0.0306 -0.2031
27103W        W43577   3.544  14.053   2.583 -0.1674 -0.3316 -0.1006
27104W        W43578  16.823   6.801  14.946 -0.3497  0.0876  0.0044
27105W        W43579   5.711  17.531  15.024 -0.2969  0.0638 -0.2512
27106W        W43580   1.108  10.615   5.247 -0.0929  0.0695 -0.1903
27107W        W43581   2.664   6.061  12.501  0.2604  0.3259  0.1187
27108W        W43582  13.485   1.330  15.527  0.1628 -0.2757  0.0235
27109W        W43583   5.024  12.536  10.776  0.0682 -0.1936  0.1293
27110W        W43584   9.158   3.991  12.829  0.1609  0.0249 -0.5497
27111W        W43585  11.447   5.963   5.174 -0.1399 -0.1672  0.2874
27112W        W43586  12.864  16.734  12.677 -0.1781  0.1083  0.0103
27113W        W43587   2.894  10.109  15.377 -0.3118  0.1294 -0.0246
27114W        W43588  10.396  13.036  14.894 -0.1437  0.0698  0.2485
27115W        W43589   7.873  17.265  13.586 -0.0409 -0.1206  0.2519
27116W        W43590  12.558   1.706  10.826 -0.2860  0.1907  0.1827
27117W        W43591   8.862  16.023  12.155  0.1626  0.0494  0.0669
27118W        W43592  13.237  18.325  14.370 -0.1546 -0.0741 -0.0435
27119W        W43593  13.212  14.775   3.207  0.2679  0.2803 -0.1071
27120W        W43594  16.404  18.709  12.539 -0.0518 -0.1807 -0.2367
27121W        W43595   7.170   1.242  12.245 -0.3969  0.0951  0.2700
27122W        W43596   4.917  10.231  11.172  0.1118  0.1508 -0.0257
27123W        W43597   5.679  18.397   2.362  0.1382 -0.1751  0.1211
27124W        W43598   2.203  11.432   3.838  0.0748 -0.0795  0.0376
27125W        W43599  14.987  14.146  14.778  0.0263  0.0813  0.2354
27126W        W43600  11.001   1.566  12.086 -0.3982  0.1278 -0.0804
27127W        W43601   9.641  12.974   4.833  0.3240  0.1245 -0.0743
27128W        W43602  15.005   0.398  11.242  0.0186 -0.1556 -0.0555
27129W        W43603  15.323   7.688   2.823 -0.0100  0.0529 -0.2713
27130W        W43604  15.405   1.577   9.433  0.2061  0.0818  0.3772
27131W        W43605   8.696  17.440   3.069 -0.2062  0.0782 -0.1120
27132W        W43606   7.791   4.356  14.450 -0.2985  0.1122  0.2462
27133W        W43607  14.547  13.157   1.742 -0.3242 -0.1707  0.1471
27134W        W43608   0.315  17.360  14.492  0.3149  0.0795  0.0460
27135W        W43609  17.148   5.394   3.629 -0.3075 -0.2387  0.1377
27136W        W43610   8.446  17.717   5.886 -0.0230  0.0335  0.2597
27137W        W43611   8.333  18.319  12.330  0.0059  0.2548  0.0096
27138W        W43612   9.254   8.606   0.599 -0.1582 -0.2127 -0.0963
27139W        W43613  12.107   2.222   3.973 -0.1417  0.0664 -0.1409
27140W        W43614  11.573   0.234  13.114 -0.2873  0.0451  0.4099
27141W        W43615  15.462  14.720   4.570  0.0766  0.0236 -0.2289
27142W        W43616  13.476   4.645   0.049  0.2781  0.0762  0.0804
27143W        W43617  13.104  10.392   3.119  0.4017 -0.3486  0.1832
27144W        W43618   9.588   9.327  12.820  0.0260  0.1591 -0.0826
27145W        W43619  10.372   6.001   1.184 -0.1776 -0.2045 -0.0496
27146W        W43620   0.933   7.570   4.507  0.1209  0.4342  0.1966
27147W        W43621  13.567  13.573  13.110  0.1736  0.0433  0.0274
27148W        W43622   3.285   3.894  12.766 -0.3886 -0.1591 -0.1430
27149W        W43623  10.568   2.772   3.609 -0.2121  0.0507 -0.0885
27150W        W43624  17.775  12.823   2.462 -0.1455  0.1336 -0.1562
27151W        W43625   0.442   3.923  12.628  0.1119  0.2128 -0.0693
27152W        W43626   5.965  17.045   0.367 -0.0636 -0.3166 -0.1441
27153W        W43627   5.897  15.540  15.460  0.4899 -0.1207  0.0092
27154W        W43628  13.233  16.825   0.959 -0.0316  0.1374 -0.2461
27155W        W43629   3.372  10.972  14.224  0.0087  0.1559 -0.1137
27156W        W43630   5.680   0.385  15.282  0.0744 -0.0797  0.0792
27157W        W43631  15.653  12.830   0.678 -0.4026  0.0609  0.0443
27158W        W43632   2.226  17.639   4.116  0.0329 -0.1641 -0.0959
27159W        W43633  16.721   6.018  10.148 -0.0972  0.0068  0.0136
27160W        W43634  13.389   6.792   4.838 -0.2167 -0.1660 -0.1605
27161W        W43635  14.165   6.586  15.260  0.1359 -0.0047  0.4010
27162W        W43636  18.653   8.870  12.244  0.0125  0.1875 -0.0529
27163W        W43637   4.393   9.757  13.046 -0.2274 -0.2947  0.0071
27164W        W43638  16.862  15.545  15.412 -0.0123 -0.1537  0.5856
27165W        W43639   0.070   6.677  13.067 -0.0212 -0.2622  0.1646
27166W        W43640  12.894  12.871   0.738 -0.2450  0.1394 -0.0988
27167W        W43641   7.326   3.666  15.684  0.0646 -0.0044 -0.1327
27168W        W43642  15.956  14.575   4.523 -0.1053 -0.0283 -0.0539
27169W        W43643  18.347   4.982   0.941 -0.0950 -0.0612  0.1270
27170W        W43644   8.767   3.742  12.764 -0.0868  0.0701 -0.0729
27171W        W43645  16.222   3.415  10.276 -0.2928 -0.0490  0.0108
27172W        W43646  12.072   0.128  11.512  0.0043  0.1401 -0.0715
27173W        W43647  15.814   6.667  15.611  0.1597  0.2649 -0.0181
27174W        W43648  10.625   0.827  11.138 -0.0737 -0.1880 -0.0758
27175W        W43649   2.739   2.791   0.234 -0.0595  0.2698  0.2865
27176W        W43650  17.365   2.334   0.200 -0.0956  0.1080 -0.0600
27177W        W43651   2.575  18.180   5.263  0.3543 -0.1879  0.0890
27178W        W43652  13.797   1.063  13.199 -0.1201 -0.1372  0.1749
27179W        W43653   8.556  15.680   2.829  0.0243 -0.1252  0.0976
27180W        W43654  16.145  10.304   3.889 -0.2539  0.1347  0.0239
27181W        W43655   8.214  16.235  12.642 -0.2109  0.0676  0.3575
27182W        W43656   8.898  13.385  13.242 -0.0994  0.2286  0.2692
27183W        W43657   1.681   3.822   2.496 -0.1576  0.0047 -0.3945
27184W        W43658   3.983  10.536   0.857 -0.2080  0.1924 -0.0321
27185W        W43659   5.804  18.456   5.256 -0.0784  0.0396 -0.2904
27186W        W43660  18.759   2.475  12.704 -0.1234 -0.0518 -1.0968
27187W        W43661  11.778  10.582  15.614 -0.0050 -0.1415  0.0211
27188W        W43662   9.128  13.376   1.364 -0.1973  0.0670 -0.2395
27189W        W43663  12.820   7.514   1.251 -0.0275  0.0019  0.0780
27190W        W43664  11.626   1.461  14.578 -0.0238  0.0574  0.1243
27191W        W43665   0.510  11.224  15.655 -0.3401 -0.1179 -0.1190
27192W        W43666   1.961   2.595  10.807 -0.2382 -0.0605  0.0310
27193W        W43667   4.655  12.280  11.092 -0.3164  0.1931  0.2272
27194W        W43668  14.461   6.480  11.893  0.0687 -0.1643 -0.0813
27195W        W43669   2.254   7.967   4.690  0.3770 -0.0961  0.1002
27196W        W43670   8.003  13.611  13.847  0.3829  0.0173 -0.0023
27197W        W43671  10.044   8.036   3.605 -0.2234 -0.0098  0.0866
27198W        W43672   4.141  12.147   0.377  0.1120  0.0335  0.0619
27199W        W43673  12.986   2.747  13.823 -0.0509  0.1302 -0.0529
27200W        W43674  13.365   9.952   0.518 -0.0001  0.0893  0.0298
27201W        W43675  11.221  12.825  14.745  0.0120  0.0226 -0.0048
27202W        W43676  13.899  16.286   1.509  0.2806 -0.1178  0.2173
27203W        W43677   0.237  10.028   2.120 -0.0715 -0.0809  0.1880
27204W        W43678   3.288   2.659  13.234 -0.0551 -0.2503 -0.0106
27205W        W43679   4.318   8.695   5.056 -0.0059 -0.2233 -0.2567
27206W        W43680   3.769   5.481  11.940  0.2827  0.0166 -0.1143
27207W        W43681   3.435  11.606   2.964 -0.2856  0.4000 -0.0486
27208W        W43682  10.198  11.545   0.850  0.0693  0.1497 -0.1801
27209W        W43683  10.726  14.035   5.693  0.0457 -0.1484  0.0199
27210W        W43684   7.960   6.103   5.503 -0.2731 -0.0921  0.2323
27211W        W43685   3.937  16.154  12.070 -0.1787  0.3264 -0.2065
27212W        W43686   6.493   2.751   5.145  0.0025  0.2649  0.1323
27213W        W43687  14.154   0.426  12.227 -0.0908 -0.0689  0.3064
27214W        W43688  14.784   2.104   3.732  0.2680  0.2650  0.3120
27215W        W43689  15.943   0.627  11.275  0.2095 -0.0601 -0.0296
27216W        W43690   3.212  12.971  15.215 -0.0897 -0.1982 -0.1598
27217W        W43691  14.643  12.056  14.338  0.0022 -0.0186  0.1064
27218W        W43692  15.796   1.182  13.484 -0.0301 -0.2664 -0.2274
27219W        W43693   2.620  12.795   0.325 -0.1781 -0.1188 -0.0024
27220W        W43694   0.254  14.454   1.411 -0.1186 -0.0377  0.1349
27221W        W43695  11.007   8.034  12.200 -0.0603 -0.0542  0.1197
27222W        W43696  16.263   5.871   1.033 -0.1593  0.0684 -0.1657
27223W        W43697   5.275   9.175   2.909  0.0404 -0.2432 -0.0422
27224W        W43698   4.853  11.962  13.080 -0.0369 -0.0965 -0.2481
27225W        W43699   5.639   2.659  11.521 -0.0278  0.0513 -0.2165
27226W        W43700  17.781   6.998  10.819  0.1222  0.3653  0.0979
27227W        W43701  11.693   7.405   5.283  0.0401 -0.3339 -0.2680
27228W        W43702  13.342  15.108  10.299 -0.0659 -0.2404 -0.3616
27229W        W43703  18.513   1.269   3.222 -0.5679  0.2878 -0.0130
27230W        W43704   7.872  14.966  13.308  0.0787 -0.2324 -0.1457
27231W        W43705  13.286  17.820   3.210 -0.0005  0.0043  0.2267
27232W        W43706  10.769   1.315  13.951  0.0071 -0.0657 -0.0748
27233W        W43707  12.227  18.531   4.460  0.1383 -0.1205  0.2987
27234W        W43708  18.144  16.285  14.074 -0.0549  0.1764 -0.0315
27235W        W43709   0.896  14.211   0.698  0.0606  0.1859  0.2627
27236W        W43710  14.495  15.591  13.799  0.0881 -0.0933  0.0903
27237W        W43711  13.338   9.202  12.655  0.0666  0.1305 -0.0784
27238W        W43712   1.802  10.819  12.237  0.0591 -0.0050 -0.0837
27239W        W43713   0.614   5.660   2.242 -0.2990 -0.1445 -0.0501
27240W        W43714  11.619   1.501   1.088  0.2270  0.1409 -0.1224
27241W        W43715  18.044   7.728  12.578  0.3331  0.2004  0.1222
27242W        W43716  13.839   6.967  15.495  0.1519  0.1139 -0.0894
27243W        W43717  15.176   3.283   1.778  0.0757  0.2531 -0.2378
27244W        W43718   3.596   7.339  15.144  0.0425  0.3473  0.1550
27245W        W43719   4.205  12.137  10.186 -0.1690  0.0284 -0.1167
27246W        W43720   1.462  12.528  13.810 -0.0573  0.1805 -0.1919
27247W        W43721  15.919   2.474   2.660  0.0622 -0.1159  0.0895
27248W        W43722  14.903  13.015   3.870  0.0161 -0.0698 -0.2185
27249W        W43723   2.838   2.794  10.820 -0.3048  0.0915 -0.4041
27250W        W43724   4.899  12.466  14.157 -0.1486  0.0587  0.3365
27251W        W43725   5.595   2.925   0.345 -0.1591 -0.1933  0.0518
27252W        W43726  10.705   4.615  14.983  0.2218  0.1617  0.0856
27253W        W43727   7.055   7.376   5.112  0.3142  0.1546 -0.3243
27254W        W43728  10.739  14.578  14.910 -0.2021  0.3191  0.0264
27255W        W43729   5.255   3.354   5.345 -0.0266 -0.0767 -0.0372
27256W        W43730   0.181  14.702  11.838 -0.1689 -0.0528  0.0730
27257W        W43731  16.140  16.469  14.297 -0.2215 -0.1099 -0.1301
27258W        W43732   7.529   7.598  15.505  0.1761  0.1453 -0.0726
27259W        W43733   0.552   6.330   5.037 -0.0641  0.0440  0.2451
27260W        W43734  15.276   5.007   4.126  0.0364  0.5064 -0.1029
27261W        W43735  11.825  15.438  11.551 -0.2517 -0.3406  0.1232
27262W        W43736   7.590   2.661  11.251 -0.4278  0.1239 -0.1712
27263W        W43737  18.178   6.869  13.565 -0.1653 -0.3639  0.2073
27264W        W43738  16.310   8.406   5.436 -0.1598  0.3833  0.1391
27265W        W43739   2.221   9.553   0.520  0.1172 -0.0847 -0.3057
27266W        W43740   0.995   4.034  14.020  0.0360 -0.0485  0.2613
27267W        W43741  16.959  13.845  11.088  0.0431 -0.0140  0.0369
27268W        W43742   2.760  17.635   2.189  0.0848  0.0072  0.2468
27269W        W43743  18.849   3.976  13.014 -0.3276  0.0252  0.2404
27270W        W43744  17.441   1.558  14.203  0.1294  0.0206  0.1797
27271W        W43745   4.006  16.192  13.337 -0.1757  0.2550  0.0953
27272W        W43746   0.164   9.682  12.692  0.0242  0.2071 -0.2332
27273W        W43747   9.803  15.534  11.617 -0.0717 -0.3869  0.0641
27274W        W43748   2.491  18.670   5.128 -0.2034 -0.1018  0.0837
27275W        W43749   1.189   6.138  11.949  0.0815  0.3198  0.1336
27276W        W43750  12.040  14.791   4.933  0.3328 -0.1262 -0.0830
27277W        W43751  10.683   2.294   3.122 -0.1798  0.2298  0.2280
27278W        W43752  17.685  14.059   3.200 -0.1828 -0.0641 -0.4026
27279W        W43753   7.752   6.083   1.280 -0.1849  0.3143 -0.2467
27280W        W43754   3.145  11.058   5.026  0.1042  0.0148 -0.1446
27281W        W43755   5.312  13.298  14.125  0.0104 -0.2884 -0.0059
27282W        W43756   6.395  11.997   0.122 -0.0376 -0.0839  0.1950
27283W        W43757  13.986  18.721  15.306  0.0897  0.0147  0.1116
27284W        W43758   5.894   3.512  12.403  0.3927  0.2331 -0.3546
27285W        W43759   2.170   5.695  10.847 -0.0939  0.0425 -0.1718
27286W        W43760  15.538  15.886   4.213  0.1823  0.0792 -0.2110
27287W        W43761   0.467   6.489  14.043  0.0142  0.0512 -0.0905
27288W        W43762  11.877  16.474   1.219  0.3684 -0.3229  0.0676
27289W        W43763   6.720   0.138   4.410 -0.3193 -0.2328 -0.0142
27290W        W43764  10.688  11.621   3.617  0.1588 -0.1427  0.0256
27291W        W43765  18.151   9.159  11.622 -0.1417  0.0907  0.2602
27292W        W43766  11.539  11.148   0.100 -0.5401  0.0463 -0.0152
27293W        W43767  11.540  11.190  15.036  0.1797 -0.0885 -0.1553
27294W        W43768  11.715  12.766  14.553 -0.1940 -0.0386  0.0045
27295W        W43769   7.542   1.789  12.824 -0.2640  0.2423 -0.0896
27296W        W43770  16.698  15.426   3.662  0.0865  0.2111  0.1571
27297W        W43771   1.209  15.568   3.198  0.0767  0.0477 -0.3946
27298W        W43772   3.856  13.649  12.315 -0.1756  0.2510  0.3479
27299W        W43773  18.820  15.707   3.414  0.0154 -0.1801  0.1792
27300W        W43774  14.075   5.888   1.258 -0.0292  0.1260  0.1558
27301W        W43775  11.332  13.003   2.059  0.1139  0.3267 -0.3053
27302W        W43776   3.830   6.282   3.718  0.0543 -0.2134 -0.1403
27303W        W43777   1.313   3.267  14.021  0.0448 -0.0072  0.2060
27304W        W43778  14.512   9.648  14.331 -0.1234 -0.1414  0.1060
27305W        W43779   0.263  10.342   0.547  0.1415 -0.3275  0.0787
27306W        W43780  15.619  13.082  13.911 -0.0003  0.1154 -0.0770
27307W        W43781   7.713   2.202  14.796  0.2095  0.0227  0.1864
27308W        W43782   4.432   7.848   2.710  0.0019 -0.3181 -0.0067
27309W        W43783   4.063   9.143  13.679 -0.0690 -0.2388  0.1230
27310W        W43784  11.556   0.541  12.474 -0.1544  0.0637  0.0950
27311W        W43785   3.492   3.643  14.192 -0.3394 -0.0632 -0.0292
27312W        W43786   7.385  18.305  11.593 -0.1319  0.1605  0.0217
27313W        W43787   3.764   3.510  11.912  0.0840 -0.0315 -0.2303
27314W        W43788  16.732   2.457  12.365  0.3392  0.3062  0.4196
27315W        W43789  14.663   0.288   2.077  0.0706  0.3621 -0.0353
27316W        W43790   7.042  11.071  11.337  0.4149 -0.3931 -0.0727
27317W        W43791  14.888  16.880  14.831  0.0061 -0.0176 -0.2014
27318W        W43792   2.686   1.641   6.009  0.1797 -0.3216 -0.5372
27319W        W43793  11.243  10.759   3.439  0.1506 -0.1584  0.2507
27320W        W43794   6.404  11.675  14.617 -0.2676  0.0576 -0.1171
27321W        W43795  13.944  17.303   4.373 -0.0032 -0.1209 -0.0045
27322W        W43796   6.208  13.202   5.026  0.1311 -0.1254 -0.0522
27323W        W43797   3.359  13.590  12.004 -0.1130  0.0823 -0.2287
27324W        W43798   4.261   2.191   0.748  0.1403 -0.1078  0.4288
27325W        W43799  16.402   1.143   2.318  0.1141  0.2090  0.0766
27326W        W43800   6.301   5.801   2.276  0.0402  0.0388 -0.0975
27327W        W43801  16.588   7.423  11.845 -0.0464 -0.0235  0.0618
27328W        W43802   4.173   8.473   3.404 -0.0077  0.0551 -0.1187
27329W        W43803  16.283   3.346  13.919 -0.1285 -0.0596  0.1084
27330W        W43804   5.719  18.264  14.601  0.1611 -0.1017  0.1449
27331W        W43805  15.326   6.290   3.718 -0.2129  0.3882 -0.0871
27332W        W43806  15.876  16.989   1.308  0.3236 -0.0884 -0.0859
27333W        W43807  12.911   0.742   4.781  0.1291  0.2564 -0.0624
27334W        W43808  14.971   4.266  14.398  0.0534 -0.1587 -0.2400
27335W        W43809  15.304   1.090   4.894 -0.1280  0.0794 -0.1000
27336W        W43810   4.342  17.410  13.684  0.0748  0.2067 -0.0162
27337W        W43811  10.772  15.334   0.602 -0.3011  0.0634 -0.1040
27338W        W43812  12.085  11.742   3.092  0.2712  0.0668  0.2089
27339W        W43813   8.154   0.117  14.490  0.2277  0.3977  0.1724
27340W        W43814   4.730   0.453  14.821  0.0279  0.2398  0.0359
27341W        W43815   4.330   4.832  11.219 -0.0291  0.0813 -0.1947
27342W        W43816  16.225   4.393   0.722 -0.2975 -0.2752 -0.1371
27343W        W43817  11.550  14.653   5.172 -0.0098 -0.0449 -0.0022
27344W        W43818  13.762  14.321  15.000 -0.2349 -0.1892  0.1275
27345W        W43819   6.886  18.187   4.379 -0.2514 -0.0135 -0.1724
27346W        W43820  14.170   7.821   3.919 -0.1455  0.3489 -0.0373
27347W        W43821  15.755  14.591   1.117  0.2187 -0.1380 -0.0054
27348W        W43822  13.146   5.591   5.274 -0.1067  0.0648  0.1317
27349W        W43823   2.025   1.469   2.524  0.0612 -0.1891 -0.2041
27350W        W43824   4.442  16.223   3.494  0.1450  0.1856 -0.0240
27351W        W43825   6.880   2.701   1.431  0.0226 -0.0136 -0.1681
27352W        W43826   3.137  18.736   4.496  0.2659  0.2697  0.1175
27353W        W43827   2.679   3.957  14.953 -0.1330 -0.1773  0.0797
27354W        W43828   4.344  15.884  14.127  0.2498 -0.0284  0.4066
27355W        W43829   3.347  11.161   0.294 -0.1884  0.0395 -0.3165
27356W        W43830   9.317   1.091  11.644  0.0055  0.0623  0.0687
27357W        W43831  12.983   1.795   1.487  0.1240 -0.2311  0.1705
27358W        W43832   8.847  15.700   4.905 -0.0409  0.0436  0.0414
27359W        W43833  14.485   4.897   3.457  0.3486  0.0249  0.2577
27360W        W43834  10.195   5.078   0.378  0.0399 -0.0948  0.3697
27361W        W43835  14.275   9.063   4.478  0.2419  0.1005  0.0980
27362W        W43836  10.292   8.999   3.934 -0.1519 -0.2970  0.0043
27363W        W43837   8.637  12.402  13.352 -0.1645 -0.3923  0.0788
27364W        W43838   2.570  16.881   0.252 -0.0582 -0.3001 -0.1881
27365W        W43839   5.991  10.105   1.845 -0.0986 -0.0864 -0.2371
27366W        W43840   4.789  13.053   4.305  0.2198 -0.0536 -0.0044
27367W        W43841   1.077  18.796   0.334 -0.1882 -0.1852 -0.1263
27368W        W43842  17.585   8.049  14.989 -0.2493 -0.2879  0.3115
27369W        W43843   9.346   4.119   1.391  0.2163  0.5213  0.1965
27370W        W43844   2.314   8.306   2.319  0.1320  0.0657  0.2467
27371W        W43845   1.782   3.543   0.821  0.0150  0.1190  0.1212
27372W        W43846   0.297   8.592   0.016 -0.2014 -0.1202 -0.0818
27373W        W43847  18.253   9.310   4.139 -0.1869  0.1905  0.2481
27374W        W43848  14.533   3.786  10.654  0.0282 -0.0269  0.0672
27375W        W43849   6.201  12.155  12.246  0.2356  0.0787  0.1376
27376W        W43850  10.975   5.499  15.027  0.0892 -0.0396  0.4832
27377W        W43851  17.980  10.135  12.853  0.2018  0.2215  0.1512
27378W        W43852   1.602  15.608  11.318 -0.0409 -0.1891  0.2920
27379W        W43853  13.408   7.916  15.659 -0.3051 -0.1136 -0.0189
27380W        W43854  11.331   7.689  12.130  0.1609 -0.1263  0.0571
27381W        W43855  11.627   6.490  13.604 -0.3274 -0.1352 -0.4394
27382W        W43856   1.897   2.511  14.372  0.2111  0.1102 -0.4002
27383W        W43857  11.243  14.676   3.401 -0.1445  0.2391 -0.0016
27384W        W43858   1.725   5.698  15.012  0.0375 -0.0047  0.1381
27385W        W43859   2.151  11.508  12.808  0.3531  0.1611  0.0975
27386W        W43860  18.308  11.175   2.142 -0.0393 -0.3042  0.2025
27387W        W43861  13.493  15.836  11.097  0.2621  0.2788  0.0167
27388W        W43862  17.270  16.165   0.320  0.1639 -0.3908 -0.1310
27389W        W43863  15.345   5.347  11.442 -0.4800 -0.0095  0.1374
27390W        W43864   5.493  10.119   4.248  0.0996  0.0397 -0.2285
27391W        W43865   0.176   7.341  15.690 -0.0552  0.1666 -0.2272
27392W        W43866  17.255  15.353   3.705  0.1701 -0.0725 -0.0337
27393W        W43867   7.827  12.059   3.455 -0.1274  0.0682 -0.3477
27394W        W43868   4.966  17.839  14.547 -0.1715 -0.2410  0.1121
27395W        W43869   6.725  12.169  12.817  0.1744 -0.2541 -0.0173
27396W        W43870   8.055  16.313  11.398  0.0246 -0.0618 -0.0122
27397W        W43871  17.168  16.751   2.310 -0.2352 -0.1787 -0.2786
27398W        W43872   0.562  14.386  12.009 -0.0444 -0.1665  0.0155
27399W        W43873   5.245  11.931   1.692  0.2389 -0.4099 -0.1300
27400W        W43874  10.207  15.297   5.083 -0.3425  0.1440 -0.1169
27401W        W43875   6.288  17.882   1.548  0.3688  0.3529  0.0030
27402W        W43876   2.341  10.808   0.057 -0.3847 -0.0372 -0.0645
27403W        W43877  13.442  18.660   3.558 -0.0959 -0.3305  0.0543
27404W        W43878   8.102  13.312  10.960 -0.0505 -0.0793  0.2359
27405W        W43879   2.116  16.820   5.059  0.2913 -0.1240  0.2741
27406W        W43880  13.249   4.875  13.440  0.2636 -0.1591  0.0266
27407W        W43881   1.253   5.849   2.119  0.0503  0.1624 -0.2461
27408W        W43882   9.604  11.966   0.077  0.0743 -0.1123 -0.0259
27409W        W43883   7.653  15.670  13.493  0.3298 -0.3675  0.0236
27410W        W43884   7.044   2.095   1.460 -0.2881  0.2558  0.0524
27411W        W43885  15.777  11.079  11.406 -0.2831  0.0867  0.2240
27412W        W43886  10.431  16.669   3.285 -0.1038  0.0615  0.1383
27413W        W43887  14.305  16.295  12.064 -0.1202 -0.1000 -0.0664
27414W        W43888   2.991   5.868   0.685 -0.1195  0.1192 -0.0020
27415W        W43889   9.131   7.932   0.551  0.2161 -0.2458  0.1688
27416W        W43890  15.422   6.844   4.438 -0.2659  0.1535 -0.1239
27417W        W43891  14.731   1.186   2.173 -0.0990  0.2114  0.1077
27418W        W43892  12.705  16.267  11.176 -0.2088 -0.1767 -0.1431
27419W        W43893  13.090   9.371   5.275 -0.0615 -0.0525  0.2160
27420W        W43894   6.616   4.153   5.182 -0.2007 -0.0150 -0.0975
27421W        W43895   1.913  18.094  14.518 -0.0896  0.0044  0.0709
27422W        W43896  12.347  15.376  12.617  0.1889 -0.2088 -0.0317
27423W        W43897  17.428  17.330   2.696 -0.3436 -0.1424 -0.2084
27424W        W43898   8.718  12.405  12.883  0.1306 -0.1054  0.0294
27425W        W43899   4.961  16.008   3.423 -0.0938  0.0977 -0.1204
27426W        W43900  14.154   6.531  12.423  0.0466 -0.2036  0.3861
27427W        W43901  18.084   2.663   2.925 -0.1890 -0.2107 -0.1846
27428W        W43902   8.986   4.045   5.600 -0.2751  0.2979 -0.0892
27429W        W43903   2.194  17.243   1.598  0.0663 -0.1732  0.0259
27430W        W43904  14.178   1.785   4.185  0.1320  0.0655  0.0364
27431W        W43905   1.821   1.353   1.526 -0.1345  0.0611  0.0538
27432W        W43906   4.401   0.321   3.463 -0.1323  0.1592 -0.2198
27433W        W43907  15.971   2.090  14.630 -0.3388  0.1857  0.0501
27434W        W43908   1.719   3.866  14.098  0.0802 -0.0654 -0.1259
27435W        W43909  14.941   5.313   1.007  0.1532 -0.2513  0.1866
27436W        W43910   7.547   3.077   1.943  0.0471  0.2715 -0.0015
27437W        W43911  17.991   9.808  13.733  0.0497 -0.5006  0.0378
27438W        W43912   0.940  16.912  14.154  0.2848 -0.0350 -0.0224
27439W        W43913   9.695   5.585  11.514 -0.2717  0.2226 -0.0050
27440W        W43914  16.242   7.277  12.834 -0.1703  0.0925  0.0134
27441W        W43915   2.118  15.641  15.189 -0.1412 -0.1455 -0.0762
27442W        W43916  15.921   4.521  12.431  0.0974  0.1267  0.2785
27443W        W43917   9.527  17.668   2.618 -0.0227 -0.2704  0.2471
27444W        W43918   1.268  18.073   5.163 -0.2520 -0.0401  0.0198
27445W        W43919  14.732  15.974  10.839  0.0714 -0.0109 -0.2743
27446W        W43920  15.346  16.933   1.300 -0.0390 -0.0557  0.1781
27447W        W43921   7.295   7.356   3.159 -0.2439  0.0151 -0.1105
27448W        W43922   7.593   3.242  13.197 -0.1138  0.0070 -0.1578
27449W        W43923   7.972  13.483   4.374 -0.0281  0.0532  0.0141
27450W        W43924   1.754   6.977  11.444 -0.1502  0.0303 -0.3725
27451W        W43925  14.959  18.492   0.357  0.2829 -0.1528 -0.2893
27452W        W43926  13.077   4.778  14.939  0.3943 -0.0713 -0.1651
27453W        W43927   2.187   7.016   0.598  0.1392  0.4634  0.0550
27454W        W43928   1.113   6.613   2.651 -0.1720  0.0738 -0.1009
27455W        W43929   6.330  18.038   5.751 -0.1059  0.2857  0.0104
27456W        W43930  17.652  16.842   2.592  0.0440  0.0013 -0.3356
27457W        W43931   7.286  17.411  14.632 -0.1433 -0.0765 -0.3356
27458W        W43932  10.654  13.613  14.121  0.1498  0.0779  0.0357
27459W        W43933   2.146  12.706   1.855  0.1548 -0.1409 -0.0451
27460W        W43934   9.528   7.289  15.229 -0.2851 -0.2274 -0.1434
27461W        W43935   2.680   1.742   2.380 -0.1647 -0.0465 -0.2399
27462W        W43936   6.781   1.882  12.778  0.2475 -0.0877 -0.1158
27463W        W43937   1.544  17.075   0.393 -0.0632  0.2846  0.3299
27464W        W43938  16.249  14.093  14.414  0.0115 -0.1659  0.1788
27465W        W43939   2.201  16.684  14.501  0.1817 -0.1339 -0.3584
27466W        W43940   6.652  12.145   5.058  0.1400  0.0203 -0.1356
27467W        W43941   0.335   0.552   1.790  0.2737 -0.1111  0.1613
27468W        W43942  10.676   7.242   2.289  0.2539 -0.0694  0.0665
27469W        W43943   6.883   5.943  15.690 -0.0653 -0.1374  0.2937
27470W        W43944  15.172   2.965  13.011  0.0583 -0.3368  0.0920
27471W        W43945  18.397   9.332  14.903  0.5075 -0.0694 -0.3272
27472W        W43946   9.254  16.020  15.465 -0.3023 -0.0022  0.1036
27473W        W43947   7.537  13.277  13.821 -0.2660  0.2720  0.1344
27474W        W43948  13.970  16.448  13.319  0.2584  0.0816  0.0442
27475W        W43949  18.507   3.763   4.969 -0.1737  0.1685  0.2372
27476W        W43950  18.754   6.963   3.038 -0.1948 -0.1824  0.0364
27477W        W43951  12.733   1.093  11.743 -0.1464  0.2245 -0.0365
27478W        W43952   2.061  11.170  10.358 -0.1399 -0.0136  0.0847
27479W        W43953  12.915  14.722  11.817 -0.0213  0.2038  0.1826
27480W        W43954   3.506   5.873   0.753 -0.0857 -0.1325 -0.0764
27481W        W43955  11.789  16.296   3.794 -0.0292 -0.0877 -0.2463
27482W        W43956  12.380   2.448   2.987  0.2411  0.4692 -0.0795
27483W        W43957  18.772   5.618  11.107 -0.1657 -0.0407 -0.0154
27484W        W43958   1.712  15.197  13.011 -0.1484  0.1794 -0.0285
27485W        W43959   6.044  17.525   4.315 -0.0270  0.2720 -0.0449
27486W        W43960   2.665   9.121   4.277  0.1069  0.1920  0.2106
27487W        W43961  12.675  17.122  10.999  0.0600  0.3331  0.0865
27488W        W43962  10.847  11.718  15.132 -0.4016 -0.0067 -0.1506
27489W        W43963   3.889  13.627   3.399  0.1986  0.4087 -0.1039
27490W        W43964  14.052   0.303  11.345 -0.1810  0.1377 -0.1026
27491W        W43965  18.281  12.252   3.103 -0.1334  0.1359  0.0560
27492W        W43966   7.941   7.266   3.126 -0.2866 -0.2485  0.0163
27493W        W43967  15.511  11.864   0.909 -0.1381 -0.1329 -0.1473
27494W        W43968  17.561   2.686   2.716 -0.1195  0.0717  0.0137
27495W        W43969  16.385  17.910   0.406  0.2203 -0.0419 -0.0089
27496W        W43970   5.421  18.033  10.572  0.4557  0.0559  0.0669
27497W        W43971   8.261   7.735   1.534  0.1209  0.0149 -0.1444
27498W        W43972   6.076   5.775   0.749 -0.2166  0.2098  0.1035
27499W        W43973  12.947   8.260  15.553 -0.1132 -0.2164  0.0271
27500W        W43974   1.162   6.915   2.266 -0.2910 -0.1332 -0.1023
27501W        W43975   4.009   0.271  11.733  0.0232 -0.2503 -0.0016
27502W        W43976   0.768  15.297   3.185  0.2708 -0.0060  0.2428
27503W        W43977  12.573   2.459  12.878  0.1078  0.2668  0.3783
27504W        W43978  15.385   7.134   2.918 -0.2263 -0.0131 -0.0309
27505W        W43979  12.472  17.041   2.022  0.0069 -0.3144  0.3231
27506W        W43980  15.682  14.977  12.783  0.1321  0.1789  0.0664
27507W        W43981  12.668   0.414  15.359 -0.0140 -0.0149 -0.1203
27508W        W43982  15.877  18.667  13.088 -0.1081  0.0213 -0.1157
27509W        W43983   2.768  17.639   5.070  0.0099  0.3490 -0.2452
27510W        W43984   1.381  12.817   5.795  0.1404 -0.1744  0.2746
27511W        W43985  15.731  11.170   0.140  0.2503 -0.0875 -0.4389
27512W        W43986   6.347   5.794  11.809 -0.0943 -0.0527 -0.0826
27513W        W43987  16.261  14.284   2.898  0.2047  0.1641 -0.1031
27514W        W43988  11.211  15.945   1.247  0.2309  0.2572  0.0156
27515W        W43989   6.049   3.332   3.191  0.1815 -0.1587  0.2485
27516W        W43990   9.310   5.379  10.736  0.0923 -0.1826 -0.0689
27517W        W43991   5.975  16.628  13.125  0.1914  0.1249  0.3477
27518W        W43992   3.621   7.544  14.617  0.0379 -0.2241 -0.2389
27519W        W43993   3.179  15.634  13.597  0.0702 -0.2225  0.1822
27520W        W43994  10.501  12.790   0.220 -0.0351  0.0516 -0.0167
27521W        W43995   0.813   4.385  15.198  0.4579  0.1834  0.0649
27522W        W43996  17.933   4.119   2.903 -0.0565 -0.1594  0.0571
27523W        W43997  14.992  11.052  14.037  0.3195  0.0920  0.1199
27524W        W43998  15.294   1.822   5.172  0.3061 -0.2008 -0.0401
27525W        W43999  13.125  14.424   5.355  0.0345  0.0910  0.0853
27526W        W44000  14.369  10.727  15.256  0.1288  0.0982  0.0782
27527W        W44001  16.978   8.819   4.197 -0.1309  0.2266  0.1532
27528W        W44002   2.639  15.050   1.158 -0.0253  0.1949  0.2561
27529W        W44003  15.487  17.089  12.670 -0.1637  0.1209  0.3568
27530W        W44004   2.776  15.006  15.679 -0.0858  0.2803 -0.2807
27531W        W44005   2.531   8.761  14.082 -0.1615 -0.1486 -0.3303
27532W        W44006  14.834  10.091  11.367 -0.3135 -0.1460 -0.0097
27533W        W44007   2.135   6.040   4.303  0.0224  0.0952  0.1079
27534W        W44008   5.278   8.281  13.863 -0.1519 -0.5935 -0.1970
27535W        W44009  13.769   0.181  12.622 -0.3375  0.1240 -0.1129
27536W        W44010   1.551  10.824  11.765 -0.1368  0.0506  0.4195
27537W        W44011  15.674   7.914   0.644  0.1554 -0.1860  0.0499
27538W        W44012   6.051   7.439   0.958  0.1793  0.1121  0.0969
27539W        W44013   2.834   1.544   4.939  0.1681 -0.4113  0.0323
27540W        W44014   6.209  13.217   2.875 -0.1795  0.0975 -0.3256
27541W        W44015  10.173  10.388   2.120  0.2967  0.2063 -0.0631
27542W        W44016  12.712   4.468  13.380 -0.1341 -0.2031  0.1360
27543W        W44017  18.062   0.017  11.105  0.1656  0.0785 -0.1888
27544W        W44018   0.984  18.747   3.509 -0.0510  0.0727  0.1222
27545W        W44019  17.636  18.342  10.533  0.0121  0.2563  0.1196
27546W        W44020   0.197  18.709  12.464 -0.2363 -0.1285  0.0206
27547W        W44021   1.868   4.529  14.668 -0.0181 -0.3332 -0.3798
27548W        W44022  14.400  13.745   0.830  0.0491 -0.2766 -0.0516
27549W        W44023  16.758   2.630   2.584  0.1512  0.1766 -0.0927
27550W        W44024  14.338   7.487   3.534 -0.0820  0.1256  0.2436
27551W        W44025   0.522  14.044   4.567 -0.0327 -0.1141 -0.0159
27552W        W44026   3.331  15.184   0.003  0.1591 -0.1902 -0.0110
27553W        W44027   7.347   2.309   5.091  0.0059 -0.2154 -0.3206
27554W        W44028  13.327   7.943   2.618 -0.0460 -0.3107 -0.2466
27555W        W44029  14.789   3.102   5.709  0.0983 -0.4107  0.0130
27556W        W44030  18.057  11.904  14.506 -0.1450  0.1298  0.1661
27557W        W44031   1.659  14.318   4.577 -0.1261  0.1050  0.1708
27558W        W44032   2.788  12.452  13.489 -0.3593  0.1443  0.0166
27559W        W44033   2.237   0.490   3.755  0.3340  0.3276  0.1621
27560W        W44034   4.115  15.281   4.278 -0.0788  0.1008 -0.0343
27561W        W44035  12.924   7.964   3.710 -0.1859  0.0186  0.1685
27562W        W44036   4.768   2.862   1.959  0.0244  0.0532  0.1662
27563W        W44037   3.617  17.370  11.403 -0.2242 -0.2977 -0.1021
27564W        W44038   4.934   2.921   4.586  0.1129  0.0009  0.3345
27565W        W44039   9.827  13.600  14.523 -0.0254  0.1785  0.4352
27566W        W44040  18.691   7.304   4.508 -0.2327 -0.0283  0.0763
27567W        W44041   1.026  18.601  12.421 -0.3808 -0.2466 -0.4142
27568W        W44042   0.562  18.016   1.820 -0.0043 -0.0733  0.0325
27569W        W44043   1.826  14.782   4.596  0.2070 -0.0992  0.1845
27570W        W44044  10.084  18.537   1.635 -0.4167  0.1105  0.1011
27571W        W44045   9.876   0.206   3.206  0.0176  0.0327  0.2456
27572W        W44046  12.106  11.810   1.794  0.2597 -0.0296  0.1610
27573W        W44047   7.004  14.608   0.952 -0.1400  0.1847  0.0029
27574W        W44048   3.435  18.425   2.549 -0.2134  0.1393  0.1307
27575W        W44049   5.244   1.553   4.026  0.2768  0.1013  0.1018
27576W        W44050   4.783   8.860   1.230  0.3873  0.1481 -0.2376
27577W        W44051  18.669   6.110   2.600  0.0891  0.0382 -0.2223
27578W        W44052  17.243  17.346   3.857 -0.1741  0.0614  0.0570
27579W        W44053  14.198   2.466  14.954 -0.2249  0.0330 -0.1319
27580W        W44054   6.263   0.099   3.557 -0.0546 -0.2396 -0.0818
27581W        W44055  11.325   5.887  11.323  0.3580 -0.1907 -0.4190
27582W        W44056  12.278  16.868   4.593  0.2226 -0.0741 -0.0116
27583W        W44057  14.222   3.168  14.916 -0.2687 -0.2067  0.1424
27584W        W44058  13.326  12.646  15.475  0.0618  0.2381 -0.0672
27585W        W44059   2.310  11.694   5.277 -0.0753 -0.3693 -0.2094
27586W        W44060  10.531  16.932  14.747 -0.0619 -0.1281 -0.0061
27587W        W44061   0.113   5.387  14.793 -0.1165 -0.3087 -0.1140
27588W        W44062   7.309   9.894   2.937 -0.2593  0.2389 -0.2394
27589W        W44063   3.000  11.782   1.159  0.0082  0.1645  0.0968
27590W        W44064   7.117   9.931   3.495 -0.1338  0.1022 -0.0735
27591W        W44065   6.626   2.305   1.390 -0.1117  0.0380  0.2586
27592W        W44066   9.628   1.830  13.438 -0.2638 -0.0888  0.0730
27593W        W44067  16.041   8.711  11.078 -0.0830 -0.0600  0.1139
27594W        W44068   8.981  10.454  14.979 -0.0328  0.1757 -0.2175
27595W        W44069  17.400   7.527   2.056  0.0646 -0.0014 -0.0681
27596W        W44070  15.826   6.502  11.002  0.1826 -0.0121 -0.3681
27597W        W44071   4.721  10.789   4.244 -0.2567  0.2208 -0.1583
27598W        W44072   6.926  16.160   4.968 -0.0948  0.1670 -0.1892
27599W        W44073   8.338   4.344  11.238 -0.0497  0.0384  0.1257
27600W        W44074   7.469   5.914   3.506 -0.2917  0.1250  0.1467
27601W        W44075   8.330   6.137   1.320  0.1137 -0.2297 -0.3779
27602W        W44076  12.531  14.717  11.423  0.0677 -0.0391  0.1077
27603W        W44077  17.062   9.039   5.180  0.2357 -0.0035  0.0737
27604W        W44078   8.813   0.827   1.035 -0.0784 -0.3933  0.0884
27605W        W44079  10.017   2.488   0.913 -0.0265 -0.1464 -0.1447
27606W        W44080   1.864  11.460  11.622  0.2671 -0.2363 -0.1042
27607W        W44081   4.871  15.427   3.904 -0.0422 -0.1178  0.2330
27608W        W44082   9.768   3.345  15.116  0.0526 -0.2086 -0.1488
27609W        W44083  10.817   0.381   4.072 -0.1910 -0.0747 -0.0669
27610W        W44084   1.005  11.453   1.040 -0.1308  0.1341  0.0543
27611W        W44085   9.420  12.671   5.140  0.4534 -0.2301  0.0666
27612W        W44086  18.468   2.904   4.641 -0.3553  0.0111  0.1054
27613W        W44087  13.103   8.195  11.267 -0.2002 -0.2729 -0.1078
27614W        W44088  16.131  11.515  12.974  0.3246  0.0200  0.1269
27615W        W44089   9.633  14.729   4.027 -0.1991 -0.0778  0.4469
27616W        W44090   0.809   3.200  10.930 -0.2253 -0.2251 -0.1529
27617W        W44091   9.763  11.211  10.964 -0.0698 -0.2549  0.1299
27618W        W44092  18.739   4.612   0.911  0.0922  0.1673 -0.0781
27619W        W44093  18.106  17.742  12.385 -0.2847 -0.1374 -0.0715
27620W        W44094   5.147  15.711  13.337 -0.0688 -0.0355  0.0697
27621W        W44095  11.814   3.676   4.161  0.1394 -0.2036  0.0243
27622W        W44096  12.486   5.447   1.816  0.0549 -0.1630 -0.1978
27623W        W44097  13.507   4.939  15.159  0.0338 -0.1075 -0.0887
27624W        W44098   6.367   1.475  13.548  0.0841  0.0563 -0.1044
27625W        W44099   1.800   5.719   2.229  0.1463 -0.0759 -0.2337
27626W        W44100  14.442  10.440   4.454 -0.0772  0.1284  0.0255
27627W        W44101  10.112   6.507   1.136 -0.3000  0.0930  0.2122
27628W        W44102  18.485  11.092  11.410  0.1340  0.0110  0.0969
27629W        W44103  11.368  15.685  11.778  0.0480  0.0291 -0.0633
27630W        W44104  12.521  13.896  14.676 -0.2539 -0.1923 -0.1482
27631W        W44105  18.702   2.254  14.069 -0.2826  0.0636 -0.2211
27632W        W44106   5.309   5.376  15.223  0.1136  0.0018  0.1397
27633W        W44107   5.211  12.739   1.962  0.1803 -0.1283  0.0028
27634W        W44108   7.050   2.377   0.286  0.1576  0.2336  0.2346
27635W        W44109   3.545   2.200  11.149 -0.0106  0.0050 -0.1814
27636W        W44110  17.280  16.605   0.591 -0.1185  0.2610  0.0729
27637W        W44111  11.900   8.173  14.506 -0.0120  0.1210  0.4082
27638W        W44112   8.855   5.053   3.883 -0.0057  0.0401 -0.1307
27639W        W44113   6.941   7.443   1.260  0.0060  0.1716 -0.1509
27640W        W44114  18.097   0.880  13.479 -0.3542 -0.2885 -0.1636
27641W        W44115  15.715   9.355   3.019 -0.2273  0.0819  0.1139
27642W        W44116   3.862  13.877  13.939  0.1180 -0.3336  0.2300
27643W        W44117  12.779   6.748  12.334 -0.2937  0.3850  0.0862
27644W        W44118   5.346  16.043  13.012 -0.1589  0.0539  0.2248
27645W        W44119   3.159  17.252   4.526 -0.0265 -0.3242 -0.0745
27646W        W44120   0.998   0.899  12.109  0.0121  0.0424  0.1289
27647W        W44121  11.814   9.184   5.254 -0.0157 -0.1192 -0.1070
27648W        W44122   4.842  14.682  14.887  0.0093  0.0704 -0.0990
27649W        W44123   4.083  16.546   5.622  0.0483 -0.1610 -0.0275
27650W        W44124  17.927  15.420   0.342  0.1221  0.3435 -0.1151
27651W        W44125   5.372  11.336  11.072 -0.0568  0.3380 -0.0619
27652W        W44126   7.036   3.046  11.527 -0.0805 -0.0875 -0.3449
27653W        W44127  16.822   6.638  12.342  0.0216 -0.0407 -0.1999
27654W        W44128   2.131  17.378  11.274  0.0798 -0.2829 -0.0739
27655W        W44129   5.146  10.647  13.694 -0.0707  0.0710 -0.2098
27656W        W44130   5.206  17.762  13.487  0.3524  0.0983  0.0678
27657W        W44131   5.415  10.088   1.207  0.0602 -0.1196 -0.1146
27658W        W44132   7.426  17.758   0.945  0.2122  0.0151 -0.1354
27659W        W44133  16.077  12.850   0.169  0.2026  0.0995 -0.0314
27660W        W44134   3.528  17.813   0.242  0.0477 -0.0691 -0.0764
27661W        W44135   9.817  11.028  11.435 -0.2045 -0.0080  0.3054
27662W        W44136  10.681   1.724   2.597  0.1230  0.2483 -0.0642
27663W        W44137  10.279   7.774  14.805  0.2135  0.0844  0.0982
27664W        W44138  15.650  18.690   5.244 -0.0675 -0.1935 -0.0466
27665W        W44139  12.522  16.584  12.997 -0.1767 -0.0904 -0.0718
27666W        W44140  18.368   0.935   3.745 -0.2129 -0.1205  0.0828
27667W        W44141   6.033   7.731   4.069  0.1306 -0.1491 -0.1754
27668W        W44142   4.785   0.864  13.159 -0.0131  0.2769 -0.0439
27669W        W44143  10.866   6.987  15.205 -0.2424 -0.1121 -0.2355
27670W        W44144  17.799  12.466  14.025 -0.0121 -0.2566  0.1217
27671W        W44145   2.305  10.920   3.664 -0.0141  0.0251 -0.0143
27672W        W44146   4.550   6.581   2.116 -0.0589 -0.3431  0.0656
27673W        W44147   4.070   7.451  14.998 -0.2132  0.0585  0.0887
27674W        W44148   0.170   3.479  12.684  0.2265  0.1319 -0.0829
27675W        W44149  11.039  14.065   0.311 -0.3350  0.0441  0.3653
27676W        W44150   6.252   7.127  15.567  0.0230  0.0008 -0.0712
27677W        W44151  12.004   9.783   1.660 -0.0628  0.2372  0.4550
27678W        W44152  13.684   9.292  12.283 -0.4074  0.1274 -0.1781
27679W        W44153   1.754   7.904  14.701  0.0077 -0.1287  0.0520
27680W        W44154   8.278  17.317   0.859 -0.0326 -0.0811  0.2413
27681W        W44155   0.643   6.280  11.430 -0.0725  0.1488  0.2800
27682W        W44156   9.149  14.917   3.193 -0.1390  0.1858 -0.1047
27683W        W44157  11.863  10.097  14.606 -0.0669  0.1122 -0.2488
27684W        W44158  16.512  18.465   3.976  0.0143  0.1153  0.0942
27685W        W44159  17.514  16.821  13.780 -0.0572 -0.0538  0.0452
27686W        W44160   2.856   9.442   2.538  0.1378 -0.0815  0.3422
27687W        W44161  16.279   7.657  15.557  0.0216 -0.1313  0.2562
27688W        W44162   2.063   1.685   1.202  0.0302 -0.4855 -0.2986
27689W        W44163   3.133  15.024   5.520 -0.3603  0.0305  0.0938
27690W        W44164   0.332   1.032  15.572 -0.0834  0.0717  0.3452
27691W        W44165   8.339   0.679   0.997  0.1527  0.1030 -0.2051
27692W        W44166  16.836  13.079   1.559  0.2004 -0.2621 -0.0639
27693W        W44167  13.807  11.484   3.131 -0.1531 -0.1609 -0.1138
27694W        W44168   3.598  12.971   0.377 -0.0194  0.0327  0.3364
27695W        W44169   3.059   1.076  12.416 -0.0734 -0.0585  0.0403
27696W        W44170  15.984   6.068  13.692 -0.0063  0.0023  0.1287
27697W        W44171   4.905   6.728   3.196 -0.0127  0.3331  0.2741
27698W        W44172  15.896   6.501  13.895  0.2781 -0.0761 -0.0088
27699W        W44173  12.120  15.331   0.176  0.0402 -0.2978  0.2861
27700W        W44174  12.274  14.620   1.892  0.0792  0.2521 -0.0515
27701W        W44175  11.756   6.479   4.625  0.2551  0.0816 -0.2568
27702W        W44176   2.679   6.034  15.377  0.0319  0.0250  0.0485
27703W        W44177   0.109  10.620  13.220 -0.3970 -0.1347  0.1429
27704W        W44178  10.963   6.800   1.640  0.0021 -0.0318  0.2157
27705W        W44179  16.700  15.090   2.089 -0.0703 -0.2644  0.2493
27706W        W44180   8.855  11.772  14.657 -0.1952 -0.2428 -0.2074
27707W        W44181   7.993  18.562  12.598 -0.0498 -0.3727  0.0535
27708W        W44182   7.031   2.687  15.585 -0.0411  0.2399 -0.0877
27709W        W44183   6.360  12.646  12.408 -0.4097 -0.0588 -0.0022
27710W        W44184   6.388   6.592  13.174 -0.1356  0.3619 -0.0639
27711W        W44185   7.298  15.931   3.162  0.1424 -0.0621  0.0580
27712W        W44186   5.310   5.316   0.949  0.0242  0.2535 -0.0229
27713W        W44187   2.131  14.565  14.459 -0.0188  0.1041  0.3353
27714W        W44188   8.350   7.041   0.436 -0.3127  0.4344  0.2775
27715W        W44189   6.781   5.627  12.570 -0.0168  0.0326 -0.2311
27716W        W44190   8.588  11.042   1.098  0.0217  0.0825  0.5329
27717W        W44191   9.373  11.173  13.295 -0.0062  0.0770 -0.1964
27718W        W44192   9.898  16.677  10.785 -0.0015  0.1085  0.3117
27719W        W44193  14.689  14.067  10.078  0.0244 -0.3905 -0.1999
27720W        W44194   8.868  13.313   3.890  0.1769  0.0905 -0.5925
27721W        W44195  14.146  14.275   5.138 -0.1494  0.1129 -0.4164
27722W        W44196   4.927   5.104   0.080  0.2253 -0.0240 -0.2042
27723W        W44197   4.457   1.633   3.146 -0.1769 -0.0748  0.1676
27724W        W44198  10.959  15.518   3.103  0.0401 -0.0337  0.1081
27725W        W44199  18.191  13.214  13.748 -0.1498  0.0344 -0.1172
27726W        W44200   5.684  11.748  12.030  0.0475 -0.1222  0.0015
27727W        W44201   9.960   1.156   0.163  0.1493  0.0041 -0.0511
27728W        W44202   6.398   4.376  14.162 -0.3067 -0.2759  0.0265
27729W        W44203  12.976   2.493   1.315 -0.1922 -0.1222  0.3094
27730W        W44204   8.983   8.294  12.942 -0.3336  0.1751  0.0802
27731W        W44205   1.501  14.013  13.864  0.1480  0.0398  0.2821
27732W        W44206   8.208   7.277   4.706 -0.3573 -0.0036  0.1678
27733W        W44207   8.390   9.466  13.737  0.0506  0.3338  0.1926
27734W        W44208   1.689   4.291   2.309 -0.4131 -0.1133  0.0162
27735W        W44209   6.397  18.025   3.765  0.3730 -0.2396 -0.0150
27736W        W44210   5.406   0.449   3.843 -0.6083  0.0842 -0.3228
27737W        W44211  12.540  11.136   3.263  0.1396  0.0832  0.3151
27738W        W44212   6.215  13.236   0.685 -0.2957 -0.1741  0.1455
27739W        W44213   6.100   8.522   4.425 -0.3373 -0.0215 -0.0092
27740W        W44214   3.834   5.749  13.258  0.1617 -0.0972 -0.3879
27741W        W44215  11.257  18.447   0.325 -0.2183 -0.1676  0.0636
27742W        W44216   2.428   1.211  12.590  0.0635 -0.1581  0.0373
27743W        W44217  11.721   7.688   3.335  0.1373 -0.2290  0.1480
27744W        W44218   5.215   2.877   4.014  0.2476  0.3729  0.0781
27745W        W44219   7.976  18.432   4.418 -0.0501 -0.1909 -0.0290
27746W        W44220   7.876  16.111   4.340  0.1707  0.0724  0.0610
27747W        W44221  16.362  17.698  13.326 -0.1749  0.0636 -0.1115
27748W        W44222   4.732  10.648  12.411 -0.1487 -0.0473  0.5640
27749W        W44223   1.605   1.605   4.052 -0.0665  0.3286 -0.3000
27750W        W44224  16.986  18.167   2.486  0.0309 -0.0383  0.2041
27751W        W44225   7.206  15.011  12.555  0.0853 -0.1412  0.0723
27752W        W44226  18.287  13.683  15.315 -0.0773 -0.1653  0.3336
27753W        W44227   6.420   2.288   5.438  0.1042 -0.1534  0.1469
27754W        W44228  18.414  14.386   4.546 -0.0692  0.1648  0.4900
27755W        W44229  15.887  13.056   4.800 -0.2155 -0.0389  0.1126
27756W        W44230   0.249  12.989  12.255 -0.1064 -0.1271  0.1453
27757W        W44231   0.368  10.567   4.489 -0.1142 -0.1958 -0.0045
27758W        W44232   7.483   9.536   3.533  0.0879 -0.0147  0.0742
27759W        W44233  13.699  16.345   2.138  0.2434  0.2687 -0.0387
27760W        W44234  17.144  12.695  12.438 -0.1565  0.0768 -0.3189
27761W        W44235  10.593   2.045   5.423  0.1909 -0.0904  0.0601
27762W        W44236   1.709   0.713   5.025 -0.1337  0.0068  0.1099
27763W        W44237  10.278  12.165   1.642  0.1490 -0.0103  0.0117
27764W        W44238   4.627   3.941   3.314  0.0409 -0.0673  0.1159
27765W        W44239  11.926   3.030  12.896 -0.0078  0.0004 -0.1124
27766W        W44240   1.118   1.095   1.445  0.2398 -0.0026 -0.1157
27767W        W44241  12.609   8.735  15.595  0.0001  0.0824  0.2632
27768W        W44242  12.340  18.163  13.439 -0.1249  0.0503  0.3362
27769W        W44243   4.533  17.561   2.344  0.0243  0.1088 -0.0538
27770W        W44244   1.170   1.925  13.096  0.3835 -0.1064 -0.2851
27771W        W44245   6.027  13.007  12.340 -0.2993 -0.1850  0.2246
27772W        W44246  17.384   3.958   4.219  0.2067 -0.1729 -0.0380
27773W        W44247  18.663   6.565   0.408  0.0094  0.1820  0.0956
27774W        W44248   6.782  17.453   3.056 -0.0874  0.0049 -0.2935
27775W        W44249  18.505   2.344   3.729  0.1901 -0.0434  0.2334
27776W        W44250   4.096   9.088  15.591  0.2432  0.2011  0.0105
27777W        W44251   6.089   8.216  11.614 -0.1833 -0.1757  0.3210
27778W        W44252   2.630   0.811  10.356 -0.0347 -0.0210 -0.3060
27779W        W44253  16.795  12.676   3.765  0.1259 -0.0456  0.1614
27780W        W44254  16.586  12.471  11.647  0.2806 -0.1378 -0.1604
27781W        W44255  13.607  13.164   3.911  0.3915 -0.1380 -0.0218
27782W        W44256  10.120   8.248  11.389  0.1750 -0.1698  0.1618
27783W        W44257   0.261  13.169   5.638 -0.1045  0.4123  0.1813
27784W        W44258  14.480  18.652  12.872 -0.0929 -0.2084 -0.1333
27785W        W44259  11.878   6.049  11.159  0.0013  0.0957  0.0571
27786W        W44260   3.399  15.779   0.734 -0.0232 -0.1327  0.0976
27787W        W44261   6.690  13.621   2.896 -0.2723  0.0967  0.1039
27788W        W44262   4.967   0.544   4.095  0.1409  0.2372 -0.1086
27789W        W44263  16.428   0.956   2.870  0.2393  0.0401  0.3125
27790W        W44264   4.244  12.664  12.699 -0.0170 -0.1214  0.0978
27791W        W44265  17.552   4.956   0.749  0.0177  0.0706  0.1103
27792W        W44266   5.362   0.958  14.188  0.0157 -0.2887  0.1916
27793W        W44267   8.851   2.178  14.436  0.1248 -0.3210  0.0197
27794W        W44268  17.924  12.158   1.795 -0.1108  0.0392 -0.1810
27795W        W44269   0.274  10.849   9.891  0.1286 -0.1230 -0.0197
27796W        W44270  13.991   7.024   3.716  0.0316 -0.1204 -0.5571
27797W        W44271   4.389   2.318   4.668  0.0563 -0.1936  0.2038
27798W        W44272   3.495  15.292   5.366 -0.0671  0.1441 -0.2006
27799W        W44273   0.751   2.567  11.969 -0.1710  0.4351 -0.0448
27800W        W44274  15.639   1.644  13.742 -0.0681  0.1627 -0.0604
27801W        W44275  14.341   3.618  13.360 -0.0829 -0.0983 -0.2538
27802W        W44276  13.359  12.747  11.362 -0.1287 -0.0890  0.0340
27803W        W44277  15.794  14.372  11.057 -0.1974 -0.2305  0.1160
27804W        W44278   1.665  16.941  15.124 -0.0210  0.0812  0.2791
27805W        W44279  10.893  13.195  14.621 -0.1079  0.0634  0.3929
27806W        W44280   8.056  12.640  11.397  0.1027 -0.2314  0.0296
27807W        W44281   5.711  16.310  14.758  0.1245 -0.1404  0.0943
27808W        W44282  13.953  10.245  13.794 -0.0017  0.1051  0.1286
27809W        W44283  10.696  10.635   0.952 -0.2248  0.0583  0.1205
27810W        W44284   6.529  15.899   4.085  0.1985 -0.3772 -0.1960
27811W        W44285   1.947   1.513   5.402  0.0863  0.1240  0.1656
27812W        W44286  15.715   7.993   2.772 -0.1791 -0.3122  0.1551
27813W        W44287  12.370  18.318   4.902 -0.1230 -0.3886  0.1583
27814W        W44288   6.492  15.468  11.200 -0.4503  0.1911 -0.2800
27815W        W44289  18.153  15.110  12.689  0.0533 -0.1325  0.0182
27816W        W44290  16.850  11.909  13.303  0.1305  0.0213  0.1501
27817W        W44291  12.732   9.348  10.975  0.1158  0.3359  0.1739
27818W        W44292  13.977  17.546   2.503 -0.1111 -0.0927  0.1417
27819W        W44293   2.127  10.421   0.331 -0.0426 -0.1538 -0.1053
27820W        W44294   2.847   6.681   3.270 -0.1042  0.1210  0.1364
27821W        W44295   1.962  17.092   2.055 -0.1320  0.0637 -0.3847
27822W        W44296   7.396   2.911  12.912  0.0376  0.1417 -0.2088
27823W        W44297  15.125  16.231  12.129 -0.1056 -0.0193 -0.0676
27824W        W44298   6.152   9.204  15.420  0.1837  0.0256 -0.0425
27825W        W44299  13.661  12.195  10.488  0.5526  0.3177 -0.1124
27826W        W44300   5.510   4.762  11.242  0.3321  0.0470 -0.0061
27827W        W44301  10.431   8.828  10.994  0.1366 -0.3856 -0.2621
27828W        W44302   7.353   5.904  14.972  0.0846 -0.2018 -0.2181
27829W        W44303   8.047   0.299  13.120  0.0406  0.0225  0.1510
27830W        W44304  17.514  14.612   3.845  0.0603  0.2158 -0.1629
27831W        W44305   6.970   2.394  13.466 -0.1330 -0.1541  0.1181
27832W        W44306   1.730   0.591  15.016  0.2044 -0.1431 -0.1229
27833W        W44307  12.116   8.980   3.651  0.0457 -0.2600  0.2096
27834W        W44308  15.026  11.209  14.846  0.4014  0.2709  0.0716
27835W        W44309   2.638  16.321  13.240  0.1068 -0.0236 -0.0548
27836W        W44310  18.577   0.972  13.546  0.1052 -0.4580  0.1408
27837W        W44311   8.371  15.585  15.320  0.1840  0.0702 -0.1182
27838W        W44312   1.171  12.807   4.716 -0.2326 -0.0605  0.0924
27839W        W44313  16.234  11.872   3.901 -0.2077 -0.0047  0.3240
27840W        W44314  15.338  12.489  13.977 -0.1695  0.3052 -0.1255
27841W        W44315  18.814  17.764  10.804 -0.1755 -0.0054 -0.0358
27842W        W44316  13.101  11.157   1.107  0.1460  0.2151  0.1455
27843W        W44317  18.028   0.999  10.775 -0.4292  0.1963  0.0653
27844W        W44318  15.852  11.233  12.306 -0.1313 -0.0953 -0.2001
27845W        W44319   0.616  12.541  13.497 -0.1289  0.2763  0.1298
27846W        W44320  18.201  18.836  13.770 -0.1064  0.2837 -0.2760
27847W        W44321   6.938  10.850   3.274 -0.0586  0.0969 -0.0905
27848W        W44322   4.343  17.027   1.443 -0.2920 -0.1141 -0.1086
27849W        W44323  13.363  16.021  15.413  0.3062  0.1307 -0.0791
27850W        W44324  15.839  13.280   0.567 -0.0054 -0.2032 -0.0839
27851W        W44325   3.409   2.585  11.807 -0.2754 -0.3469 -0.1077
27852W        W44326  18.687  12.538   3.871 -0.4136 -0.2002  0.1502
27853W        W44327   7.282   0.111   0.451 -0.0361 -0.3438  0.0883
27854W        W44328  12.605  18.781   4.046 -0.0176 -0.1085  0.1086
27855W        W44329   0.026   6.643  15.615 -0.1029 -0.2501 -0.0869
27856W        W44330  14.776  16.955   3.483 -0.0394  0.0607  0.2401
27857W        W44331   0.706  11.478  13.214 -0.0346 -0.0813 -0.1764
27858W        W44332   6.082   5.479  11.493 -0.0411  0.1370 -0.1970
27859W        W44333   3.640   4.046   3.307  0.3179 -0.2155 -0.0880
27860W        W44334   0.522   2.487   2.926  0.1936  0.0660 -0.1902
27861W        W44335   1.485  12.816   1.128 -0.2112 -0.3195 -0.0004
27862W        W44336   7.209  14.670  12.162  0.1521  0.3472  0.2773
27863W        W44337  18.289  13.266   0.583 -0.2612  0.1153 -0.0441
27864W        W44338   9.874   0.146  11.533 -0.2827 -0.2632 -0.0266
27865W        W44339   5.487  16.737  14.473 -0.1330  0.1560  0.0882
27866W        W44340  18.379  10.456  14.365 -0.0437  0.1357  0.0590
27867W        W44341   9.162   8.056   4.659 -0.2158 -0.0960  0.1783
27868W        W44342   3.482   9.072   0.689  0.1463  0.2071  0.0720
27869W        W44343  12.729   0.241   2.709 -0.0932 -0.1506  0.2635
27870W        W44344  17.681  14.526   0.393  0.1916  0.4601  0.1210
27871W        W44345  16.697  10.202   2.683  0.1774 -0.1750 -0.0188
27872W        W44346  12.113  12.433   4.092  0.1428 -0.1859 -0.3235
27873W        W44347   0.936   7.779  14.948 -0.2183 -0.0088 -0.2136
27874W        W44348  13.778   7.828  14.002  0.1592  0.0052  0.0158
27875W        W44349   5.041  17.509  11.901 -0.1628 -0.1246 -0.3924
27876W        W44350   7.385   4.713  12.675 -0.1401  0.1636 -0.2670
27877W        W44351   5.643   2.784   2.138 -0.1670  0.0564  0.3140
27878W        W44352  15.154  17.202  12.316  0.2651 -0.0484  0.2251
27879W        W44353   9.327   0.318  11.380 -0.0503 -0.0248  0.1983
27880W        W44354   1.781   3.540  10.459 -0.0464 -0.1555 -0.0324
27881W        W44355  15.926   9.684  14.734  0.3347 -0.1291 -0.1518
27882W        W44356   0.775  10.838   1.796 -0.1048 -0.3374  0.1866
27883W        W44357  12.812   6.459  11.790  0.2821 -0.1694 -0.2869
27884W        W44358  15.985   2.255   1.815 -0.0154  0.0334  0.1848
27885W        W44359  14.195  13.986  14.792 -0.1004 -0.1801 -0.1431
27886W        W44360  11.456  11.058   3.774 -0.1610  0.2355 -0.0537
27887W        W44361  18.618   2.011   2.391  0.0359  0.0877 -0.2205
27888W        W44362   6.664  15.788   0.165 -0.2334 -0.2478 -0.3766
27889W        W44363   0.517   0.954  13.739 -0.0933  0.1562 -0.1066
27890W        W44364  15.358   5.596  13.268  0.1736  0.3097  0.0932
27891W        W44365  11.393  16.647  13.520 -0.3411  0.0717  0.1218
27892W        W44366   1.845  16.848  14.119 -0.2916  0.1291  0.2346
27893W        W44367   5.973  10.389   0.035 -0.3075  0.0439 -0.1614
27894W        W44368   2.703  17.442  14.029 -0.1587 -0.0016  0.2119
27895W        W44369   3.290  12.750   4.420  0.2212  0.0006  0.0122
27896W        W44370  13.524   3.795   4.482 -0.1704  0.3636  0.1773
27897W        W44371   9.127  15.840   2.214  0.1927 -0.1100  0.0832
27898W        W44372  14.092   7.349  15.306  0.1078 -0.0623  0.1944
27899W        W44373   2.803   3.472   3.938  0.1363 -0.4472 -0.1021
27900W        W44374  17.161  10.184  10.934 -0.1231 -0.1885  0.2160
27901W        W44375  13.805   3.908   0.821  0.3440  0.1142 -0.0120
27902W        W44376  15.079  13.248  11.032  0.0907  0.1418  0.0455
27903W        W44377   7.557  11.824   5.425  0.0138  0.0474  0.0995
27904W        W44378  17.285   5.836  13.804  0.2108 -0.0734 -0.0226
27905W        W44379  13.071   7.870   1.558  0.1057 -0.2555  0.0815
27906W        W44380   1.220  14.625  11.779 -0.0894  0.2718 -0.1150
27907W        W44381   6.623  16.172  14.089  0.1465 -0.0272  0.4171
27908W        W44382  13.554  15.988   1.754  0.0945 -0.2638  0.2224
27909W        W44383   4.231   7.230  10.314  0.1493 -0.1458  0.2522
27910W        W44384   3.784  10.769  14.431  0.0651  0.4136  0.2915
27911W        W44385   7.715  15.097   4.059  0.1211  0.0823  0.1892
27912W        W44386   2.412   7.815  15.050  0.0170 -0.0678 -0.0055
27913W        W44387  17.245   9.872  12.412  0.0047  0.0008  0.2062
27914W        W44388  17.635   1.190   1.803 -0.0272  0.3250  0.4523
27915W        W44389  13.191   3.467  15.533  0.0322 -0.0373 -0.2533
27916W        W44390   4.948   3.187  11.698  0.0998 -0.0594 -0.0422
27917W        W44391   2.830   0.255   5.471 -0.0387  0.1147 -0.0493
27918W        W44392   5.158   2.289   0.750 -0.1817  0.1657  0.2128
27919W        W44393  15.224  18.284  11.840 -0.5585  0.0530  0.0266
27920W        W44394   2.061  16.588  11.943  0.0418 -0.1351  0.1545
27921W        W44395  17.733  17.751   5.410  0.0735  0.2562  0.3674
27922W        W44396   3.225  10.205  12.856  0.0913  0.2728  0.2174
27923W        W44397   7.428  12.460   2.162 -0.0152 -0.3380  0.2334
27924W        W44398   2.883  15.015  13.019 -0.0287  0.0778 -0.3604
27925W        W44399   8.697   9.502   0.578 -0.0663  0.1421 -0.3280
27926W        W44400  10.242   7.764   2.648  0.2802 -0.0961  0.2301
27927W        W44401   9.853  16.204  14.569  0.2840  0.1846 -0.0046
27928W        W44402  10.442   0.703  14.286 -0.0393 -0.3201  0.1987
27929W        W44403  14.648   9.743  13.687  0.0208  0.0202  0.1686
27930W        W44404   1.489   4.681  11.791 -0.0394 -0.0540 -0.1599
27931W        W44405   4.626   2.957  11.267  0.0779 -0.0593  0.0152
27932W        W44406  11.115   6.776  11.011  0.0210  0.1882  0.2605
27933W        W44407   1.789   1.199   0.048 -0.1865  0.0465 -0.0135
27934W        W44408  12.809   3.473  13.454  0.0897  0.0357 -0.1214
27935W        W44409   3.493  15.542   0.316 -0.0689  0.1954  0.0564
27936W        W44410   6.134   2.800   4.345  0.3106  0.1268  0.1170
27937W        W44411   1.294  16.599  15.283  0.2050 -0.1187 -0.4861
27938W        W44412  16.696  10.366   2.141 -0.5089  0.0122  0.0154
27939W        W44413  12.404  12.131  11.896 -0.0375  0.1540 -0.1753
27940W        W44414   5.106   0.636  14.519 -0.0978 -0.1579 -0.2774
27941W        W44415   1.682  15.665   1.040 -0.0195 -0.0240 -0.2561
27942W        W44416  15.061   5.179  14.177 -0.1562 -0.3594  0.0732
27943W        W44417   5.301   2.272   4.057  0.0204 -0.0034 -0.1551
27944W        W44418  16.685  11.284  11.806  0.1244 -0.0228  0.2186
27945W        W44419   2.644   7.724  10.491 -0.4001 -0.1713 -0.2636
27946W        W44420  14.466   1.353  13.410 -0.1753  0.0376 -0.0831
27947W        W44421   8.203   4.796   1.054 -0.0804 -0.3063 -0.0653
27948W        W44422  17.334  15.934   1.470 -0.0243 -0.2800 -0.2571
27949W        W44423   0.623   9.524   4.113  0.1723 -0.1690 -0.1924
27950W        W44424   8.348   4.264   4.376 -0.0220 -0.0680 -0.0947
27951W        W44425   0.416  18.417   1.473 -0.4010  0.0712  0.1223
27952W        W44426  12.014  17.946   4.371 -0.2832 -0.0368  0.0952
27953W        W44427  16.500  15.811   1.152 -0.1281 -0.0929  0.2207
27954W        W44428  11.471   2.999  13.840  0.1266 -0.0281 -0.2119
27955W        W44429   1.261   8.022  14.598 -0.0722  0.2494 -0.2462
27956W        W44430   2.840   4.621   3.359  0.0384  0.1689 -0.0539
27957W        W44431   9.187  14.333   2.702  0.3796 -0.1974  0.0119
27958W        W44432   1.542  13.042  12.219 -0.1133 -0.1102 -0.0875
27959W        W44433   9.697  14.674   3.565  0.0592 -0.0447 -0.1137
27960W        W44434  15.263  18.320   2.989  0.1044 -0.0399  0.1393
27961W        W44435   6.611  14.637   4.935  0.0029 -0.1400 -0.0406
27962W        W44436   1.780   0.893  14.263 -0.1909  0.1875  0.0484
27963W        W44437   5.931   4.441   5.057 -0.1485  0.0789 -0.0470
27964W        W44438   9.308   9.603   1.270 -0.0080 -0.2816 -0.2034
27965W        W44439   4.144  15.840   4.276 -0.0874  0.2763 -0.1355
27966W        W44440   3.732  11.997   4.246  0.1813  0.1828  0.4914
27967W        W44441   0.122   4.012   3.737 -0.1122 -0.0422 -0.0357
27968W        W44442   0.157   5.047  12.247 -0.0402 -0.1506 -0.0904
27969W        W44443  13.633  11.912  11.485 -0.3371 -0.1045 -0.2651
27970W        W44444   9.719  13.472  13.658 -0.0874  0.1927 -0.2342
27971W        W44445   1.961  13.103  12.490  0.2700 -0.1923  0.0193
27972W        W44446  13.644  14.189   5.334 -0.2778 -0.1061 -0.3412
27973W        W44447  18.431  15.806  13.705  0.1537  0.0267  0.3369
27974W        W44448   5.522  11.969  11.603  0.0794 -0.1102 -0.0167
27975W        W44449  18.376   6.572  15.685 -0.1378  0.0666 -0.0075
27976W        W44450  18.393  16.483   3.396 -0.3933  0.2276  0.0908
27977W        W44451  13.216   0.659   0.506  0.0595  0.1195 -0.1017
27978W        W44452   4.156  17.870   2.639  0.2969  0.3731  0.0168
27979W        W44453   9.833   3.366   1.554 -0.0645  0.2216 -0.1335
27980W        W44454   7.011  10.315  13.428  0.1029 -0.2183  0.0378
27981W        W44455  17.383  10.281  14.276 -0.0122 -0.0298  0.3404
27982W        W44456  13.995  16.971  13.057 -0.4145  0.3198  0.0198
27983W        W44457  14.228  10.596   1.424 -0.4255  0.2314  0.0097
27984W        W44458  14.040   8.010  11.074 -0.0109  0.0630  0.0231
27985W        W44459  15.593   2.734   1.088  0.0327 -0.1578 -0.2033
27986W        W44460  10.130   1.820   3.479  0.0250  0.1265  0.0269
27987W        W44461  14.758  14.736   4.491 -0.3016  0.0562 -0.0456
27988W        W44462  14.454  16.814  12.152  0.0623 -0.1511 -0.0431
27989W        W44463  12.498  10.686   3.701  0.0358 -0.0100 -0.3017
27990W        W44464   4.714   6.843  12.515  0.2793 -0.2828  0.1071
27991W        W44465  17.288  14.986   4.147  0.1293  0.1692  0.2127
27992W        W44466  12.618   3.786   1.762 -0.1347 -0.2191 -0.1320
27993W        W44467   0.570   9.204  11.709 -0.2544 -0.1313 -0.2736
27994W        W44468   4.818  13.532  14.379 -0.1225 -0.0610  0.1621
27995W        W44469   4.230  11.478  11.347 -0.1235  0.2916 -0.2314
27996W        W44470  15.253   5.818   4.811  0.1318  0.2498  0.2688
27997W        W44471   7.583  16.495  13.064  0.1789  0.0792 -0.2611
27998W        W44472   4.627   9.675   0.114 -0.2374 -0.0187  0.3271
27999W        W44473   2.481   2.386  15.511 -0.2704 -0.0319 -0.0790
28000W        W44474  17.902  17.022  14.054  0.0762 -0.1252 -0.2238
28001W        W44475   7.236   2.252  15.026  0.2563 -0.0101 -0.1590
28002W        W44476   9.476   9.012  14.332  0.0202 -0.1919  0.3289
28003W        W44477  10.539  14.475  11.513 -0.1064  0.3950  0.1597
28004W        W44478   5.716   6.233  15.221  0.3453 -0.0930  0.0394
28005W        W44479   3.354   6.440   2.376  0.0797  0.1244  0.2872
28006W        W44480   6.071  12.347   2.605 -0.1372 -0.0464  0.1116
28007W        W44481  10.622   1.839  14.890 -0.0351  0.2252 -0.0034
28008W        W44482  15.265   7.512   2.322 -0.1945 -0.1269 -0.2630
28009W        W44483  17.644  13.511  14.650 -0.0511  0.2928  0.1684
28010W        W44484  12.680   1.243  11.009  0.0079  0.3028  0.1766
28011W        W44485   4.076   4.763   5.361  0.0065 -0.3239  0.0649
28012W        W44486  12.635   4.486   3.693  0.1091  0.2312 -0.2188
28013W        W44487  14.876   6.151   1.088 -0.1598  0.0136 -0.1304
28014W        W44488  15.129  18.309   3.826 -0.2647 -0.1490 -0.1560
28015W        W44489  13.638  14.446  12.800  0.0634 -0.0378  0.1296
28016W        W44490   6.442  14.148   1.689 -0.2557 -0.0120  0.0153
28017W        W44491   1.820   3.639  15.431  0.2282  0.2272  0.2228
28018W        W44492  14.429   9.950   2.978  0.0244 -0.1273 -0.0993
28019W        W44493   7.959  17.057  12.791  0.1385 -0.1494 -0.1970
28020W        W44494  13.389   1.579   1.373 -0.0648 -0.4727  0.0067
28021W        W44495  17.917  15.290  12.246  0.4431 -0.2648  0.1484
28022W        W44496  16.506   0.135   4.276  0.1059 -0.1515 -0.0489
28023W        W44497  18.279   3.218   4.976 -0.0256  0.0792  0.0742
28024W        W44498  14.052   4.431  12.278 -0.0242 -0.0648  0.4884
28025W        W44499  17.437  17.449   0.479 -0.2025  0.1113  0.0049
28026W        W44500   8.409  16.033   1.581 -0.1138  0.1327  0.1450
28027W        W44501   0.489  16.798   0.351 -0.1136  0.1472 -0.2250
28028W        W44502  10.314   5.963   3.078  0.0434 -0.3011 -0.1993
28029W        W44503  18.432  12.473  11.999 -0.2788 -0.1273 -0.0511
28030W        W44504   8.478   9.946   0.458  0.4644 -0.4410  0.1915
28031W        W44505  11.010   9.946   5.249 -0.0005 -0.0177  0.2091
28032W        W44506   6.912  16.021   3.543  0.2624  0.2765 -0.1835
28033W        W44507   4.952   4.137  15.286  0.2914 -0.0427  0.0046
28034W        W44508   7.773   9.868  12.296  0.3509 -0.1178 -0.2903
28035W        W44509  14.997   8.497   4.009 -0.3779  0.2429 -0.1237
28036W        W44510  16.218  13.631   4.064  0.0711  0.0757  0.5327
28037W        W44511  18.215   4.932  14.150 -0.0249 -0.1696  0.0828
28038W        W44512  12.422  15.523   3.981 -0.3088 -0.2640  0.0899
28039W        W44513  17.780   5.656  12.105  0.1750  0.0131 -0.0572
28040W        W44514  14.303   5.125   0.840 -0.3227 -0.0461  0.1822
28041W        W44515   4.659   8.760   4.628  0.2140 -0.2356 -0.5319
28042W        W44516  11.745  16.280   0.728 -0.1452 -0.0462 -0.0855
28043W        W44517  15.110  14.583   5.746  0.0134  0.1184  0.1703
28044W        W44518  13.535  15.677   0.790 -0.0353  0.0254  0.0595
28045W        W44519  14.747  18.468  11.881  0.1221 -0.2058 -0.1473
28046W        W44520  10.236   7.784   5.448 -0.3338  0.3027 -0.0945
28047W        W44521  16.197  13.626  12.221 -0.0006  0.2324 -0.1660
28048W        W44522   4.509  16.645  14.950 -0.1226  0.2858  0.1456
28049W        W44523   6.451  18.008  15.101 -0.1624 -0.2760 -0.1072
28050W        W44524   4.268  14.404   9.834 -0.2627 -0.2310  0.1888
28051W        W44525  11.924  12.107  11.447 -0.0860 -0.1813 -0.0351
28052W        W44526  18.617   1.335   4.447  0.0830 -0.0366  0.0583
28053W        W44527   9.251   6.829   5.684 -0.1892 -0.0102 -0.1458
28054W        W44528   4.433   1.873  15.108 -0.0845  0.0313 -0.3184
28055W        W44529   6.616  10.392   3.271 -0.0566 -0.2792  0.0008
28056W        W44530   7.362   1.453   0.900  0.1856 -0.1000 -0.3302
28057W        W44531   0.747   8.299   5.604 -0.3539  0.0635  0.3186
28058W        W44532  14.251  11.031   3.114  0.0497 -0.0281  0.3300
28059W        W44533   4.181  16.026   0.322  0.0147  0.1792  0.0303
28060W        W44534   7.565  10.987   1.079  0.0814 -0.0397 -0.0023
28061W        W44535   8.526  17.652  12.749  0.2844 -0.3174 -0.0419
28062W        W44536  15.390  10.930  13.139  0.2664  0.1982  0.2422
28063W        W44537  10.328   1.752   1.389  0.1744 -0.2818 -0.1483
28064W        W44538  10.516  12.026  12.367  0.2112 -0.0542 -0.1682
28065W        W44539   1.692   6.201  14.190  0.0734  0.0803 -0.0714
28066W        W44540   1.592  12.790   1.659  0.0436 -0.0109 -0.1513
28067W        W44541  16.849  15.015  13.336  0.2596  0.2143 -0.4120
28068W        W44542  17.912   9.269   2.825  0.2043  0.2879 -0.2269
28069W        W44543  17.704   4.776  10.332  0.2112 -0.1581  0.0165
28070W        W44544  12.415   5.847   0.934  0.2027  0.2058 -0.0173
28071W        W44545   2.154   0.685   2.604  0.1511 -0.1648 -0.2290
28072W        W44546  12.087  13.706   4.562  0.1262  0.1168 -0.2003
28073W        W44547  17.577   2.628  13.394  0.0727  0.2261 -0.2565
28074W        W44548  14.639  14.779  11.459  0.5538  0.2262 -0.0686
28075W        W44549   5.429   4.945  12.103 -0.1303  0.4216 -0.0337
28076W        W44550   6.443  11.420   1.787  0.1253  0.3834  0.1732
28077W        W44551  13.209   2.795   5.595  0.3200  0.1558  0.1132
28078W        W44552   7.545   5.403  14.995  0.1068  0.1380 -0.3496
28079W        W44553   1.221   4.752   4.449 -0.3118  0.1164  0.0392
28080W        W44554   0.377  10.482   3.166  0.0145 -0.1660 -0.2586
28081W        W44555  18.201  14.043  12.649  0.2230 -0.3889 -0.4302
28082W        W44556  18.161   2.031  13.308  0.2172  0.2019 -0.2889
28083W        W44557  14.871  16.950   1.490  0.1551 -0.2119 -0.0085
28084W        W44558   2.903  15.590  14.383  0.1238 -0.1540 -0.0183
28085W        W44559  15.316  13.945   2.227  0.2918  0.0199  0.2160
28086W        W44560   5.023   6.252   4.523  0.1972 -0.3718  0.0622
28087W        W44561  10.193   8.275  14.853  0.1332 -0.2274 -0.0551
28088W        W44562  18.085  11.214  12.424 -0.1881  0.1833 -0.1560
28089W        W44563  11.678  10.662   4.139  0.1772 -0.0558  0.2953
28090W        W44564   7.910   0.106  12.004  0.1163 -0.0831  0.0422
28091W        W44565   6.336   8.857   0.295 -0.4701  0.0884 -0.0357
28092W        W44566  13.632  13.423  12.620 -0.1811  0.3296 -0.1401
28093W        W44567  14.679  10.757   1.000 -0.0248  0.0590  0.1882
28094W        W44568  12.750   3.283   0.225 -0.1746  0.0496 -0.3425
28095W        W44569  14.724   7.054   1.797  0.2724  0.0856 -0.3485
28096W        W44570   0.727  10.045  13.631  0.1208  0.0026 -0.4637
28097W        W44571  18.189   6.334   2.262 -0.0140  0.2657  0.1151
28098W        W44572   7.682   3.081   4.912 -0.1674  0.1384 -0.1920
28099W        W44573  17.974   1.094   0.234  0.0040 -0.1640  0.2265
28100W        W44574  13.182   3.940  14.782 -0.2521 -0.1457  0.3723
28101W        W44575   5.960  18.677   2.851  0.1819  0.2441  0.0646
28102W        W44576  14.646   6.319  15.353  0.2483  0.0040 -0.0370
28103W        W44577  16.847   6.590  14.357  0.1659 -0.1954  0.1315
28104W        W44578   4.826  14.935   4.805  0.1369  0.5093 -0.0747
28105W        W44579   6.267   4.147   1.753 -0.0427 -0.0451  0.1965
28106W        W44580   2.882  13.698   3.575 -0.0197  0.2145  0.0506
28107W        W44581   3.456  14.901   4.621 -0.1285  0.1661  0.0671
28108W        W44582  16.160  13.476  10.759 -0.0585 -0.1555 -0.0124
28109W        W44583  14.393  17.355  12.122  0.2156 -0.2201  0.0489
28110W        W44584   0.730   6.356  12.420  0.1240  0.1007 -0.1460
28111W        W44585   2.889   7.496   2.856 -0.2322  0.2118 -0.1814
28112W        W44586   8.511  18.626   1.019  0.0285 -0.0577  0.0995
28113W        W44587   6.599   0.792  10.187  0.1454  0.0641  0.4542
28114W        W44588  14.512   9.316   3.628  0.4015 -0.1878  0.1814
28115W        W44589   2.654   9.720   2.085 -0.0912  0.2257  0.1784
28116W        W44590  15.141  17.354  13.016 -0.0163  0.0347  0.0692
28117W        W44591   5.552   0.209   2.500 -0.3941  0.3995  0.1551
28118W        W44592  12.172  10.166  11.900  0.0853 -0.2951  0.0271
28119W        W44593   9.235   0.542  13.614  0.3192 -0.1979  0.1309
28120W        W44594   5.642   0.855  15.144  0.0130 -0.0422 -0.0554
28121W        W44595   9.232  10.790   2.376 -0.5051 -0.0973 -0.4214
28122W        W44596   2.284  13.894   0.048 -0.1615 -0.1263 -0.0429
28123W        W44597  17.308  14.837   0.879  0.3199  0.1147  0.1317
28124W        W44598   3.549   3.148  13.981 -0.5362 -0.1864 -0.1009
28125W        W44599  10.483  11.670  11.353  0.0879 -0.4779  0.0683
28126W        W44600   0.910   9.219   3.192 -0.0906  0.2020 -0.0052
28127W        W44601  16.062  14.817   2.998 -0.0462 -0.1002 -0.2569
28128W        W44602  10.637   4.417   3.809 -0.1467 -0.0758  0.1417
28129W        W44603   8.038   7.991   1.897  0.0809  0.0775 -0.3136
28130W        W44604  11.722  14.926   3.333 -0.0061 -0.0780 -0.2503
28131W        W44605  10.211   2.343   2.164  0.0464 -0.1493 -0.2018
28132W        W44606   5.975   2.764   0.080 -0.1119 -0.2594  0.0352
28133W        W44607  10.800  13.907   0.925  0.0421  0.3303  0.1621
28134W        W44608   6.011   9.109   5.626 -0.2794  0.1585 -0.1286
28135W        W44609   9.598   5.388   3.109  0.2965  0.2613  0.0417
28136W        W44610   1.496   8.053   3.588  0.2105  0.0261  0.0504
28137W        W44611  10.054   2.610   0.029  0.1864 -0.0025  0.0739
28138W        W44612  14.012   3.190   3.375  0.1164 -0.0345 -0.3903
28139W        W44613   3.383   8.446   1.982  0.2677 -0.0053  0.2900
28140W        W44614  17.410  17.236   0.959 -0.0160 -0.3032 -0.1451
28141W        W44615  11.162  12.146  15.314  0.2459  0.4541 -0.0341
28142W        W44616  11.522  17.755   3.394 -0.0038  0.1864 -0.0045
28143W        W44617   9.068  16.663   1.266 -0.0420 -0.2771 -0.1298
28144W        W44618   2.227   9.044  12.194 -0.0362  0.0326  0.1419
28145W        W44619  13.207  18.172   3.735  0.0784  0.0165 -0.0083
28146W        W44620   4.501  13.913   5.723 -0.2308 -0.2946 -0.1000
28147W        W44621   4.922  18.733  15.020 -0.1148 -0.0124 -0.1139
28148W        W44622  15.339   8.481   5.226 -0.0081 -0.0059 -0.3272
28149W        W44623   9.932   4.727   2.770 -0.1408 -0.0069 -0.1758
28150W        W44624   6.647  11.452   2.337 -0.1159 -0.0570  0.0643
28151W        W44625  16.728   0.984   3.293  0.2890  0.1012  0.1509
28152W        W44626  10.349   0.084   1.833  0.0666 -0.1417 -0.0886
28153W        W44627  14.789   6.675  11.215 -0.1483 -0.2305 -0.1248
28154W        W44628   1.989  18.012  11.522 -0.1541 -0.2713  0.0385
28155W        W44629  17.081   4.619   2.856  0.0078  0.0465  0.1540
28156W        W44630   4.957  18.015   1.518  0.4814  0.1260 -0.0191
28157W        W44631  14.762  16.435  13.541 -0.1929 -0.2639 -0.2176
28158W        W44632   0.022   2.654  13.248 -0.3279  0.2219  0.1858
28159W        W44633  16.555  16.128  12.835 -0.0349 -0.0578 -0.1380
28160W        W44634   5.295   3.028  14.683  0.0944 -0.3141 -0.1962
28161W        W44635  11.089   3.804   0.336  0.1229  0.0738 -0.0415
28162W        W44636  12.930  13.465  15.191  0.0106  0.2656 -0.4602
28163W        W44637   9.249  16.785  14.217 -0.1293 -0.0227 -0.2128
28164W        W44638  15.506  12.601  11.531 -0.0453 -0.1757  0.0583
28165W        W44639   2.527   3.737  11.183 -0.0098 -0.2505  0.2035
28166W        W44640   0.884   3.276   5.113 -0.1008  0.4423 -0.0161
28167W        W44641   3.860   8.961  15.162  0.1297 -0.0563 -0.0964
28168W        W44642  13.018   7.112   0.309 -0.3107 -0.0449 -0.1529
28169W        W44643   7.134   7.247   5.613 -0.0619 -0.3325 -0.0280
28170W        W44644  12.621   5.772  12.429 -0.0096  0.1379  0.1208
28171W        W44645   0.511  15.226   1.349 -0.3507 -0.0741  0.1250
28172W        W44646   2.591  10.250   1.837  0.4238 -0.2908  0.1781
28173W        W44647   4.272  14.296  13.219 -0.1264  0.0635  0.1618
28174W        W44648   1.427  15.431   0.244  0.0337  0.0802 -0.0829
28175W        W44649  12.308   6.167  10.876  0.2286 -0.0807  0.0717
28176W        W44650  12.830   6.077  11.144 -0.0962  0.1080 -0.0770
28177W        W44651  15.898   7.805   1.064  0.3406  0.0138 -0.0408
28178W        W44652  16.856   9.377  13.809  0.2451 -0.4058 -0.0985
28179W        W44653   6.412   9.402  15.038 -0.0393 -0.0996 -0.0702
28180W        W44654  14.603  14.389  10.957  0.1010 -0.3059  0.0977
28181W        W44655   3.175  18.477   1.771 -0.1931  0.3185 -0.2818
28182W        W44656  13.235  15.974  11.508 -0.2893  0.3268 -0.0545
28183W        W44657  15.845  16.787   1.937  0.2558 -0.0178  0.0066
28184W        W44658   4.507  14.547   4.929  0.0403  0.1822 -0.1587
28185W        W44659  15.754   4.058  13.050  0.1245  0.0655 -0.1262
28186W        W44660  15.873   4.820  12.859  0.0113 -0.1959  0.1764
28187W        W44661   1.993   7.350   0.913  0.2021 -0.0689  0.0523
28188W        W44662   7.796  12.393   0.910 -0.1538  0.0072  0.0427
28189W        W44663   4.854   3.697   0.887  0.2266 -0.0056  0.4514
28190W        W44664   5.959  13.768   5.182 -0.0085 -0.4214  0.0321
28191W        W44665   2.574  15.227  14.298  0.0422 -0.2468 -0.0602
28192W        W44666  11.416   6.978   5.585 -0.0844  0.1508 -0.2631
28193W        W44667  13.952  10.815   4.999 -0.1981  0.2320  0.0680
28194W        W44668  16.672  17.433  14.309  0.0431  0.1560 -0.1245
28195W        W44669   4.858  11.903   4.437  0.4721  0.1892  0.1778
28196W        W44670  13.083   2.265   4.707 -0.3348  0.1207  0.2482
28197W        W44671  11.122   5.224  12.303  0.2707  0.0264  0.0150
28198W        W44672   9.003   1.584  11.947 -0.1116 -0.1759 -0.2368
28199W        W44673  10.788   5.925   2.119 -0.4302  0.2091  0.3062
28200W        W44674  12.737   4.165  10.874  0.1431  0.0437  0.0927
28201W        W44675   6.804  15.536   2.178  0.0830  0.1689  0.1499
28202W        W44676  18.654  18.342   0.191 -0.2288 -0.1730  0.1174
28203W        W44677   9.945  18.004   4.133 -0.0769  0.0882 -0.1503
28204W        W44678  14.274  16.842   4.324 -0.0938  0.2415  0.1112
28205W        W44679   8.328   6.115   6.259  0.1278 -0.1450 -0.1648
28206W        W44680   5.309  11.730   2.809 -0.1188  0.0688  0.2671
28207W        W44681   0.571  15.182  11.214  0.2123 -0.0049 -0.1284
28208W        W44682   0.870   8.550   0.143 -0.1628  0.2243 -0.1179
28209W        W44683  11.283   3.656  11.846 -0.0336 -0.0091  0.2358
28210W        W44684   1.392  14.775  14.831  0.1092  0.0830 -0.0373
28211W        W44685   7.264   2.568  14.673 -0.1576 -0.4512  0.3981
28212W        W44686   5.355  11.121   1.035 -0.1597  0.4868 -0.2066
28213W        W44687  12.592  14.732   0.582 -0.1796 -0.0787 -0.2468
28214W        W44688  13.018  16.730   4.109  0.4498 -0.0342 -0.1604
28215W        W44689   0.607   0.630  11.899  0.1794 -0.0249 -0.2768
28216W        W44690  18.759  12.783   0.843 -0.0640  0.7203 -0.4206
28217W        W44691   1.689  15.265  14.710 -0.0187 -0.0247  0.0132
28218W        W44692   7.838  10.572   1.820  0.0783 -0.1022  0.1397
28219W        W44693  12.184   1.916   5.100  0.2710  0.1128  0.1195
28220W        W44694  18.543   7.012  10.200  0.1346 -0.0538 -0.0198
28221W        W44695  16.698   4.684  12.713 -0.1091 -0.0070 -0.5843
28222W        W44696   2.772   7.208   4.799 -0.2348  0.0716  0.0382
28223W        W44697   6.418  11.244  10.960 -0.0209 -0.2044 -0.0365
28224W        W44698  17.802  17.060   4.235  0.0257  0.2015 -0.3051
28225W        W44699  12.593  10.449  11.590  0.1077 -0.1473  0.2918
28226W        W44700  17.385  17.849  10.461  0.1046 -0.0698 -0.0947
28227W        W44701  13.169   6.647  13.564 -0.0700  0.1122 -0.1823
28228W        W44702   4.419   6.028   1.682  0.1999 -0.0892  0.3792
28229W        W44703  15.166   1.584  11.362  0.1085  0.3720  0.0908
28230W        W44704   5.110  13.205  15.198 -0.2739 -0.0490  0.0490
28231W        W44705  18.311   5.025   4.454 -0.0046  0.4479  0.1587
28232W        W44706   1.554   3.416   2.765  0.3667  0.1030 -0.3378
28233W        W44707   9.313   9.556   2.842 -0.0021  0.0024 -0.1272
28234W        W44708   4.931   7.370  12.155 -0.0414 -0.1899 -0.0769
28235W        W44709   5.022  15.737   0.190 -0.1061 -0.2280  0.4652
28236W        W44710   8.890  14.749   3.882 -0.1422  0.1047  0.1665
28237W        W44711  12.116  13.507   5.593 -0.0582  0.4431  0.0573
28238W        W44712  16.533   5.559   0.610 -0.0296  0.5914  0.0705
28239W        W44713   4.294   5.303   2.276 -0.1157 -0.0065 -0.0654
28240W        W44714   0.948  17.862   1.523 -0.0996 -0.1358  0.0301
28241W        W44715   8.293   4.725  12.039 -0.0010  0.1206  0.0678
28242W        W44716   5.840   4.051   3.177  0.0374 -0.0345 -0.2917
28243W        W44717   1.308   0.108   2.731 -0.0916 -0.0440  0.3307
28244W        W44718  16.855   7.721   2.605  0.0755  0.3555 -0.0697
28245W        W44719   5.765   8.719   3.260 -0.1023  0.1142 -0.1726
28246W        W44720   0.341  11.397  15.029  0.0159 -0.0574  0.1594
28247W        W44721   6.199  15.274   1.078 -0.1586  0.1857 -0.2225
28248W        W44722   7.212   0.091  15.506 -0.2582 -0.2446 -0.0534
28249W        W44723   5.368   9.264  14.070  0.4122  0.1213 -0.1224
28250W        W44724   1.039  12.763  13.663 -0.1873  0.0092 -0.0207
28251W        W44725  18.623  14.883   3.850  0.0221 -0.0477 -0.1638
28252W        W44726   2.566  18.137  15.263 -0.1475 -0.3329  0.1364
28253W        W44727   8.789  11.448   0.876  0.2798 -0.0993  0.0394
28254W        W44728   7.507  11.303   0.684 -0.0196  0.1991  0.2093
28255W        W44729  11.304   1.930   1.196  0.1048 -0.2895  0.1189
28256W        W44730   3.292   6.154   1.144 -0.0751 -0.1611 -0.0860
28257W        W44731  17.311  12.659   3.754  0.0537 -0.0004  0.0510
28258W        W44732  14.883   6.647  13.576  0.1306  0.1298 -0.3214
28259W        W44733   0.291   1.478  12.425  0.0536  0.4394 -0.1760
28260W        W44734   3.440   5.740   3.044 -0.3179 -0.0945 -0.0072
28261W        W44735   4.430  10.268  12.998  0.0291  0.1868 -0.1744
28262W        W44736   6.733   8.472  15.179 -0.0843  0.2073 -0.2341
28263W        W44737   0.364  10.537  13.654 -0.0226 -0.0581 -0.0509
28264W        W44738   8.147   1.808   0.818  0.0626  0.0072 -0.1257
28265W        W44739  15.188  14.229   0.065 -0.0451  0.0308  0.1079
28266W        W44740   4.194   5.122   0.818 -0.0676 -0.2224 -0.0644
28267W        W44741   2.249   7.361   4.396 -0.0289  0.0712 -0.1724
28268W        W44742  17.840   4.910   3.509 -0.1933 -0.4924  0.0659
28269W        W44743  12.925   4.866   4.470 -0.0648 -0.1575  0.1356
28270W        W44744   9.107   7.058  12.741 -0.0252 -0.1915 -0.0131
28271W        W44745   1.379   9.641   0.639  0.0577  0.0051  0.0470
28272W        W44746  12.883   3.795  11.526  0.2429  0.0523  0.2969
28273W        W44747   8.490  17.180  11.635  0.0651 -0.1837  0.2912
28274W        W44748  17.110  16.857   3.468 -0.1510  0.0323  0.1679
28275W        W44749   5.191  12.113   3.215 -0.1341  0.1133  0.2162
28276W        W44750   3.988   2.362  15.109  0.1307  0.0485  0.1030
28277W        W44751   6.390   0.104  12.044  0.5314 -0.2710  0.1888
28278W        W44752   6.771  17.848   3.439  0.0084  0.3483  0.2515
28279W        W44753   2.919   4.066   5.433 -0.0325  0.0694 -0.2386
28280W        W44754  12.631   0.460   2.256 -0.0513  0.0512  0.0290
28281W        W44755  15.368   7.171   1.496 -0.0889 -0.0213 -0.0231
28282W        W44756   9.612   3.468   0.882 -0.0356 -0.1744  0.0510
28283W        W44757  15.305  14.330  10.902  0.0040 -0.2196  0.0969
28284W        W44758  13.516  16.599  10.928 -0.1810 -0.4311  0.0224
28285W        W44759  13.237  11.349  12.889  0.1677  0.0436 -0.0455
28286W        W44760   2.320   0.569   0.796 -0.0103  0.1331  0.0259
28287W        W44761  16.578  12.796   4.253  0.0423 -0.0844  0.0471
28288W        W44762  16.272  18.115  14.890  0.0666  0.0530 -0.0677
28289W        W44763  10.222   0.554  13.244  0.2398 -0.0852  0.2318
28290W        W44764   0.870   6.478   3.382  0.1583  0.2204  0.0844
28291W        W44765   2.641  16.234  12.777 -0.1446 -0.3141  0.0950
28292W        W44766   1.767  16.952   3.915 -0.1355  0.2633 -0.1185
28293W        W44767  15.179  15.213   1.136 -0.0868 -0.1707 -0.3173
28294W        W44768   7.507   0.072   0.985  0.0151 -0.1766 -0.1435
28295W        W44769  15.319  18.350  10.854  0.2130 -0.2191  0.1307
28296W        W44770  13.216   0.611   3.984  0.1962 -0.2026  0.3412
28297W        W44771   9.420   0.570  15.473  0.1415  0.2763  0.1149
28298W        W44772   4.776  15.935   1.233 -0.0116 -0.1132 -0.1792
28299W        W44773  10.905  13.867   3.222 -0.3349  0.0533 -0.1031
28300W        W44774  16.570  10.052   0.914  0.2532 -0.0028  0.0670
28301W        W44775  17.882  10.251  14.526  0.0447 -0.0308  0.2732
28302W        W44776   3.926   7.621  13.286  0.0162 -0.1348 -0.0674
28303W        W44777   6.588  15.447   2.679  0.1579  0.3212  0.0857
28304W        W44778  11.319  10.548   0.278 -0.1268  0.2989  0.1839
28305W        W44779  12.270  17.217  12.869  0.0825 -0.2167 -0.2438
28306W        W44780   7.572   8.562   5.442  0.2679  0.0457 -0.0626
28307W        W44781   1.319   6.883   0.891 -0.5861  0.0325  0.2477
28308W        W44782  13.797   4.093  11.890 -0.1757 -0.0128  0.1632
28309W        W44783  11.278  13.416  14.871  0.2504 -0.5461  0.0345
28310W        W44784   1.822  18.308   4.310 -0.2313  0.1394 -0.1703
28311W        W44785   6.823   7.742  15.668 -0.2929  0.2380 -0.0722
28312W        W44786   7.570  18.467   3.515  0.0420 -0.0311  0.1673
28313W        W44787  17.334  15.427  14.347  0.0866 -0.0807  0.1788
28314W        W44788  10.539  13.050   1.386 -0.1507 -0.1128  0.1256
28315W        W44789  12.859   7.202   2.716 -0.0282  0.0793 -0.2443
28316W        W44790  12.472  17.625  10.932 -0.0379 -0.1277  0.0031
28317W        W44791  10.027  13.842   1.520  0.2066 -0.2032  0.0980
28318W        W44792   2.721   0.408  13.194  0.1568 -0.2868 -0.1014
28319W        W44793   7.630   8.223  15.485  0.1726 -0.0961  0.4245
28320W        W44794  16.664  11.465  11.157 -0.2221  0.3060 -0.2366
28321W        W44795   9.188   3.476   2.417  0.0939 -0.0903 -0.2598
28322W        W44796  17.658  14.801   1.843 -0.0701 -0.3632 -0.1417
28323W        W44797  16.401  13.655   9.546  0.4180  0.1644 -0.0131
28324W        W44798  10.232  13.240  15.361 -0.1123 -0.0396  0.1453
28325W        W44799  14.560   9.919  12.358  0.1112  0.0214 -0.0064
28326W        W44800   2.461  12.096   3.822 -0.1033  0.4378 -0.1069
28327W        W44801  14.041  13.760   3.848 -0.1046 -0.2934  0.2524
28328W        W44802   9.516   8.488   1.804 -0.3151  0.0511  0.1425
28329W        W44803   2.397   3.037   4.611  0.3288  0.3056 -0.0223
28330W        W44804  12.853   2.029  14.450 -0.1243 -0.1718  0.2618
28331W        W44805   1.831  11.134   3.958  0.0238  0.0312  0.0445
28332W        W44806  12.066  14.525  15.190 -0.0657  0.1775 -0.0454
28333W        W44807  11.147   0.274  14.696  0.1820  0.0171  0.1231
28334W        W44808   0.799   3.559   1.556  0.1412 -0.1659 -0.0717
28335W        W44809  15.753  15.178  14.055  0.1627  0.3711 -0.1156
28336W        W44810  14.141  15.703   1.591  0.1690  0.1615 -0.0397
28337W        W44811  15.891  17.484  13.398  0.0707  0.3567 -0.3504
28338W        W44812  17.036   8.518  12.892  0.3834  0.2346 -0.2511
28339W        W44813  15.390  11.073  12.502 -0.3252 -0.0579 -0.3695
28340W        W44814  17.800   0.237  13.646  0.1112 -0.0376  0.2219
28341W        W44815   4.339  13.427  14.692 -0.0177  0.2002 -0.2848
28342W        W44816  16.896  16.792  11.303  0.0149 -0.1414  0.1305
28343W        W44817  15.898  12.528  14.024  0.3673  0.0228  0.0846
28344W        W44818   0.783   1.493   4.628  0.0137  0.3241  0.0836
28345W        W44819   4.268   2.024   3.448  0.0676  0.0527  0.2036
28346W        W44820   3.825   4.370   4.392 -0.0410 -0.2537 -0.2764
28347W        W44821   6.438   3.531   2.523 -0.3072 -0.0069  0.1530
28348W        W44822  12.403  13.990  13.461 -0.3581  0.1441  0.1022
28349W        W44823   6.609   0.616  10.660  0.3894  0.0818  0.2918
28350W        W44824  11.697  10.624  12.808  0.1479 -0.1792  0.2188
28351W        W44825  12.713   5.118  14.722 -0.1706  0.1871  0.0184
28352W        W44826   9.332  15.925   3.135  0.1188  0.0293 -0.1456
28353W        W44827  10.055   6.609  15.241 -0.1089 -0.1075 -0.1374
28354W        W44828  13.829  17.949   4.460 -0.1636 -0.2449 -0.0813
28355W        W44829  10.335  17.295   4.002 -0.1131  0.0248  0.2619
28356W        W44830  17.952   6.194   4.490 -0.2781  0.0619  0.0434
28357W        W44831   5.925  13.730  10.825  0.2398  0.1870  0.1362
28358W        W44832   3.448   7.022  13.963 -0.1580 -0.0982  0.1814
28359W        W44833   4.968   6.753   9.910 -0.3429 -0.0632 -0.0508
28360W        W44834  10.976  14.696  11.428  0.1041  0.3841 -0.3758
28361W        W44835  10.640  12.284   2.072  0.1290 -0.1364  0.0813
28362W        W44836   7.566  17.926   0.408  0.0543 -0.1554 -0.0267
28363W        W44837  15.868  17.005  11.219 -0.1363  0.0229  0.0768
28364W        W44838  15.206  17.925   1.246 -0.4295 -0.2579 -0.3271
28365W        W44839  11.952   4.240   5.031 -0.2989  0.1126  0.2113
28366W        W44840  14.844   1.942  12.101 -0.2907 -0.0181 -0.1960
28367W        W44841   2.606   2.246   0.357 -0.1144 -0.0172  0.0184
28368W        W44842  14.173   7.519   4.521 -0.2604  0.0553 -0.0181
28369W        W44843  17.465  10.258   3.701 -0.0140  0.2878 -0.1145
28370W        W44844   7.514  11.363   2.693 -0.1732  0.3336 -0.4296
28371W        W44845  14.776   3.225  15.195 -0.1126  0.3351 -0.0109
28372W        W44846  10.348   6.929  12.049  0.0444 -0.0151  0.1413
28373W        W44847  17.724  16.351  11.250  0.1832 -0.1099 -0.0076
28374W        W44848   5.815  10.519  11.458  0.0301  0.0291  0.2879
28375W        W44849   2.571   5.678  14.417  0.1956 -0.0073  0.2586
28376W        W44850   6.096   2.358  14.929  0.1053 -0.3339 -0.2808
28377W        W44851  18.331  18.140  11.015  0.0455 -0.1126 -0.0173
28378W        W44852   9.693  10.545  14.647 -0.4108  0.1168  0.0109
28379W        W44853   2.781  12.033   0.037 -0.2513  0.1865 -0.1758
28380W        W44854   0.510  18.763   4.886 -0.3307  0.1906  0.0677
28381W        W44855  16.303  15.396  15.252 -0.1863  0.0489  0.2090
28382W        W44856  14.790  17.407   3.801  0.0910 -0.2545 -0.0521
28383W        W44857   9.638   1.658   0.061 -0.1553 -0.3062 -0.2341
28384W        W44858   7.061   7.151   1.985 -0.0350  0.0691  0.2462
28385W        W44859  14.420  18.282  12.463 -0.0335 -0.2292 -0.3355
28386W        W44860   8.526   6.188   2.545 -0.0744  0.1363  0.2475
28387W        W44861  11.987  17.571  11.219  0.2440 -0.0310 -0.1235
28388W        W44862  16.569  16.704  15.626  0.0694  0.2256  0.3286
28389W        W44863   2.377  15.619  11.987  0.1296 -0.0686  0.0306
28390W        W44864   2.325  14.879   0.178  0.2180  0.0493  0.0950
28391W        W44865   3.206   6.421   4.855 -0.0801  0.0107 -0.1110
28392W        W44866   3.737  11.075   2.848  0.1773  0.3606  0.3123
28393W        W44867  14.051  10.594  15.630 -0.0250 -0.2857 -0.1721
28394W        W44868  13.941   2.745   2.475 -0.1452  0.1529 -0.2868
28395W        W44869   7.568  16.643   2.493  0.0484 -0.0868 -0.0720
28396W        W44870  14.138   9.446  12.446  0.0111  0.0148 -0.0281
28397W        W44871   8.870   5.703  14.888  0.0976 -0.0324  0.2174
28398W        W44872   6.512   7.026  12.275  0.0525 -0.1268 -0.3822
28399W        W44873   1.951  12.350   4.197 -0.2624  0.0389 -0.0676
28400W        W44874  13.609   2.052  11.638  0.0402 -0.0120  0.0864
28401W        W44875  16.658  10.832   2.837  0.0293  0.1559  0.1117
28402W        W44876  12.055   0.972  11.238  0.1875 -0.1030 -0.0819
28403W        W44877  15.952   9.666   2.617 -0.2587 -0.1954  0.1032
28404W        W44878  15.606  17.148   0.839 -0.0016  0.0934 -0.2854
28405W        W44879   5.075   9.441   4.223 -0.2299 -0.3093  0.1632
28406W        W44880  10.194   5.318   4.370  0.1516 -0.0149 -0.1489
28407W        W44881  12.689   0.894   2.619  0.0627  0.0460 -0.0421
28408W        W44882   3.008  15.499   3.471  0.1437  0.0098 -0.1865
28409W        W44883  13.855   6.491  12.009 -0.1083 -0.1931  0.2077
28410W        W44884  16.494   3.704   0.021  0.0283 -0.1982  0.0345
28411W        W44885  12.093  15.050   2.734  0.0329 -0.2518 -0.1222
28412W        W44886  11.467   5.339   5.172 -0.0844 -0.0201  0.2101
28413W        W44887  17.513   7.541   0.793  0.2224  0.2856 -0.0503
28414W        W44888  10.969  14.824  12.814  0.0198 -0.3628  0.0041
28415W        W44889  10.183   6.547   0.637  0.2865 -0.2799 -0.3565
28416W        W44890   3.174   7.040   4.565 -0.2532 -0.2585  0.0096
28417W        W44891  14.171  11.800   3.951  0.0931  0.1559  0.0014
28418W        W44892   1.662   7.283  15.212  0.0594 -0.1035  0.0491
28419W        W44893  11.656   0.962  13.799  0.2778 -0.4053  0.1700
28420W        W44894  17.918   3.462  12.154  0.1255 -0.2223  0.1051
28421W        W44895  12.682  12.399   0.671 -0.1560 -0.1179 -0.3610
28422W        W44896   1.491  18.638  15.502 -0.1480  0.1700  0.0599
28423W        W44897  10.309   4.326   5.575  0.1177 -0.1795 -0.1367
28424W        W44898   2.990  13.668  10.592 -0.1481 -0.1116 -0.0736
28425W        W44899   1.981   9.515   3.840 -0.0078  0.1175 -0.1888
28426W        W44900  17.440  15.157  14.819  0.1554  0.3518 -0.1724
28427W        W44901  15.641  11.909  14.564  0.0517 -0.3266  0.2167
28428W        W44902   1.478   4.922  14.854 -0.2040  0.1215 -0.3579
28429W        W44903   2.185  12.438   0.319  0.0176  0.1370 -0.1143
28430W        W44904  16.121  13.158  11.231 -0.4584  0.0741  0.1245
28431W        W44905  10.786   9.515  13.056  0.2031  0.0638 -0.2040
28432W        W44906  10.511  15.804   1.858  0.2570 -0.0596  0.2249
28433W        W44907  17.969  13.663   0.823 -0.0437 -0.1011 -0.4949
28434W        W44908  17.697  10.579  13.058  0.2430  0.0465 -0.3205
28435W        W44909   4.712   8.331   4.919 -0.1119  0.0494  0.0494
28436W        W44910   6.579   0.495   5.289  0.2953  0.0133  0.3189
28437W        W44911   0.327  13.671  10.938 -0.2429 -0.3643 -0.1334
28438W        W44912   0.259   9.732   3.006  0.0724 -0.0244 -0.0092
28439W        W44913   9.489  10.163   1.142  0.2366 -0.1591  0.3095
28440W        W44914  13.991  18.071  12.195  0.3672  0.3111  0.0284
28441W        W44915   6.615   4.203  13.411 -0.1406  0.0712  0.0047
28442W        W44916  13.813   8.275   1.654  0.3677 -0.1676 -0.1841
28443W        W44917   8.365   2.766   3.811  0.2758 -0.4455  0.0651
28444W        W44918   0.177   0.142  12.942 -0.0168 -0.3267 -0.0367
28445W        W44919   8.698   0.014  15.295 -0.1030 -0.0897  0.0905
28446W        W44920   8.891   2.747  14.289 -0.0569  0.2868 -0.0086
28447W        W44921   3.043  10.949   1.557 -0.1295 -0.0726  0.0142
28448W        W44922  15.862  16.008  14.315  0.0354  0.0214 -0.1404
28449W        W44923   2.708   5.376  11.688 -0.0436 -0.0826  0.1619
28450W        W44924   0.354  12.362  15.486  0.0196 -0.1575  0.1876
28451W        W44925   4.512  15.918  10.359 -0.2982 -0.1433  0.0668
28452W        W44926   3.204   1.011   2.037  0.3568  0.1032  0.1016
28453W        W44927  14.857  12.434  13.957  0.2148  0.2687 -0.1427
28454W        W44928   3.492  11.342   5.341  0.1514  0.3109  0.1390
28455W        W44929   7.608  12.759  13.726 -0.1651 -0.0609 -0.2033
28456W        W44930   1.145   5.245   4.430 -0.0156 -0.0357 -0.4220
28457W        W44931  13.333   6.218   0.869  0.1644 -0.0111 -0.1210
28458W        W44932   7.771  17.912   2.112  0.0736 -0.0238  0.0104
28459W        W44933   7.475  16.349  15.390 -0.0408  0.1979  0.1711
28460W        W44934   4.423   2.284  12.218 -0.1251  0.2623  0.1444
28461W        W44935   4.580   5.151  14.415  0.1202 -0.1132 -0.1567
28462W        W44936   0.709   8.052  10.596 -0.2408  0.0592  0.0987
28463W        W44937   4.708  13.807  13.744 -0.1165 -0.3534 -0.1618
28464W        W44938   0.712   9.501  12.728  0.3515 -0.1268  0.0081
28465W        W44939   6.332   7.147   4.225 -0.1197  0.0841 -0.0594
28466W        W44940   0.501   2.732   5.538 -0.0674  0.4276 -0.2391
28467W        W44941   2.328  17.817   2.426 -0.3073  0.1614  0.0909
28468W        W44942  11.525  13.981   0.544  0.3969  0.2553 -0.1959
28469W        W44943  11.511   0.805  12.040  0.1816  0.1089 -0.1400
28470W        W44944   5.855  18.161   1.371  0.1265  0.2722 -0.1762
28471W        W44945   3.935   3.763   0.525  0.0326 -0.1315  0.1516
28472W        W44946  13.413  10.469   5.228  0.1349  0.0681 -0.0561
28473W        W44947  16.023   5.298  12.773 -0.2305 -0.0107 -0.0480
28474W        W44948  17.360  11.659  13.963  0.1532  0.0536 -0.0147
28475W        W44949   4.951  18.684  13.097  0.0440 -0.0157 -0.1329
28476W        W44950   4.459  10.665   4.661  0.3655 -0.0120 -0.2529
28477W        W44951   1.662  15.785  10.357  0.1291 -0.0242  0.0064
28478W        W44952   4.697   7.617   2.126  0.0637  0.3578 -0.0215
28479W        W44953   1.354   7.405  10.409  0.0607  0.2065  0.1690
28480W        W44954  11.163   9.874  12.618 -0.1466  0.2397  0.0460
28481W        W44955   9.403  13.844  11.630  0.0572  0.1005  0.0821
28482W        W44956  11.057   7.263   1.804  0.0010 -0.3173  0.3169
28483W        W44957   4.312  13.505  15.227  0.1142  0.1579  0.0531
28484W        W44958  12.363  16.928  13.917  0.0682  0.0285 -0.2268
28485W        W44959   1.741  18.440  14.862  0.2509 -0.0591 -0.0047
28486W        W44960   2.111   1.770   3.269  0.1522  0.2041  0.3368
28487W        W44961   2.433   7.333  11.900 -0.1191  0.0567 -0.2922
28488W        W44962   1.065   4.662   3.302  0.3169  0.0089 -0.0204
28489W        W44963  16.298   0.054  14.391 -0.0025 -0.0274  0.1338
28490W        W44964   1.775   8.327   1.204 -0.1598  0.0204  0.3995
28491W        W44965  16.055   7.324   3.058 -0.0628  0.1224  0.1922
28492W        W44966  17.299   7.711  13.148  0.3777  0.1391 -0.1835
28493W        W44967   9.868   6.590   1.808 -0.0775 -0.3808 -0.0603
28494W        W44968  18.751   4.183  11.052  0.1467  0.1231  0.0223
28495W        W44969   3.179  12.900  12.042 -0.0007  0.0825  0.2531
28496W        W44970  11.220   3.781   6.249 -0.1132 -0.2806 -0.0052
28497W        W44971  14.265   0.666  12.684  0.0131  0.0253  0.3552
28498W        W44972   0.928  13.457   1.676  0.4600 -0.0083 -0.1097
28499W        W44973   7.570  10.247   0.451  0.2223 -0.0130  0.3838
28500W        W44974  12.287   3.174   0.254  0.1264  0.3334  0.0080
28501W        W44975  15.834  13.714   2.253 -0.0674  0.1729 -0.1224
28502W        W44976   8.275  14.150   4.970 -0.1415 -0.1575  0.0862
28503W        W44977   5.447   8.733   1.518 -0.1925  0.0147  0.2501
28504W        W44978  18.681  14.358  12.783  0.1242 -0.4482  0.0023
28505W        W44979   0.658  13.049   5.267 -0.2128 -0.1670 -0.2600
28506W        W44980  12.296   0.427  13.841 -0.0178  0.2174 -0.3544
28507W        W44981   8.044   9.031  15.502 -0.1619 -0.1774 -0.2464
28508W        W44982  13.207  10.368   1.561 -0.0296 -0.1414  0.1467
28509W        W44983   1.476  12.677  10.525 -0.2587  0.0889  0.1308
28510W        W44984  11.433   2.776  14.895  0.1410 -0.3187  0.1087
28511W        W44985  17.075  13.848  10.597  0.0472 -0.3899  0.0092
28512W        W44986   1.582  18.377   2.440  0.1154  0.0130 -0.0722
28513W        W44987  12.162   3.718   1.965 -0.2663 -0.1837 -0.0524
28514W        W44988   4.830  14.279   1.827  0.0106  0.0003  0.2542
28515W        W44989   8.501   7.094   2.302  0.1973 -0.0835 -0.1732
28516W        W44990   2.464   0.977   0.568  0.1710  0.0756 -0.3699
28517W        W44991   2.564  17.574   2.793 -0.1813 -0.2317 -0.1927
28518W        W44992   6.125  12.057   4.857 -0.0893  0.1998  0.1120
28519W        W44993   2.774   8.450  10.937  0.0956  0.0392  0.1832
28520W        W44994   3.094  17.553   1.713 -0.1563 -0.1081 -0.0532
28521W        W44995   8.282   9.849  13.285  0.1850  0.4704  0.1109
28522W        W44996  11.169  14.538  13.273  0.5323  0.3579  0.0941
28523W        W44997   1.587   0.676  13.919  0.3049  0.2685 -0.0492
28524W        W44998   0.317   7.724  13.762  0.1888 -0.0995 -0.3679
28525W        W44999   1.979  15.669  11.651  0.1107  0.2756 -0.2885
28526W        W45000   0.784   9.025   4.123 -0.1320 -0.2807 -0.1189
28527W        W45001  16.479   6.006  14.918  0.2109 -0.1285  0.2300
28528W        W45002  11.785   3.378  13.860  0.0275 -0.2727 -0.4735
28529W        W45003  14.778  12.482   4.092 -0.1765  0.0661 -0.0814
28530W        W45004   5.539  10.057  11.593  0.1322  0.1137  0.1204
28531W        W45005   4.656   8.877   2.858  0.1547  0.1617 -0.3494
28532W        W45006  13.764   4.503  15.015 -0.2229 -0.2945 -0.0240
28533W        W45007   1.944   8.103  15.104  0.0502 -0.0533 -0.2188
28534W        W45008   8.740  15.434  12.430  0.0211  0.1387 -0.3096
28535W        W45009   7.203   0.443   0.852  0.1367 -0.0486 -0.0064
28536W        W45010  12.118   7.318  15.594  0.2017 -0.2342  0.3866
28537W        W45011   3.970   3.558  15.020  0.1836  0.0418 -0.1512
28538W        W45012  15.961   1.276  15.449 -0.0125  0.1809 -0.0619
28539W        W45013   6.529  16.308   5.868 -0.0801 -0.0548 -0.0506
28540W        W45014  13.896  16.492   0.165 -0.1757  0.1705 -0.0991
28541W        W45015   1.061   0.432   3.620 -0.1774 -0.1329  0.1454
28542W        W45016   2.584   6.548   1.231 -0.2928  0.0715  0.1376
28543W        W45017  10.001   2.587   5.013 -0.2782 -0.2221  0.1099
28544W        W45018   9.869  11.954   5.109  0.0150 -0.2299 -0.1935
28545W        W45019  11.561  11.291   4.860 -0.1250 -0.1378 -0.2290
28546W        W45020  17.962  17.878  15.325 -0.0933  0.0654 -0.0717
28547W        W45021   6.127  11.123   3.099  0.1767  0.1503  0.2371
28548W        W45022   6.710   6.743  10.684 -0.1141  0.4091 -0.1171
28549W        W45023   3.232  12.601   2.954 -0.1345  0.1379  0.1254
28550W        W45024  10.850  11.562  11.621  0.2365 -0.1333 -0.1323
28551W        W45025   2.588   2.105  10.072  0.0853  0.1164 -0.2950
28552W        W45026   3.131  16.211  13.481 -0.5058 -0.1423  0.0214
28553W        W45027  15.189  14.726   2.828  0.4600  0.1969 -0.0551
28554W        W45028  13.449   4.941   1.916 -0.0011  0.0534  0.1325
28555W        W45029   8.880  12.308  11.780  0.0042  0.0390  0.2483
28556W        W45030   4.922   9.336   0.556 -0.1787  0.1329  0.1053
28557W        W45031  15.419   9.620   0.322 -0.0446 -0.1604 -0.0581
28558W        W45032   5.913   3.716  11.470  0.0878 -0.3766 -0.2098
28559W        W45033  16.300   6.506   0.497 -0.1532  0.0975  0.3631
28560W        W45034   5.096  11.524  13.249  0.1767  0.2900  0.3542
28561W        W45035   1.836  18.247  11.948 -0.3426 -0.0278 -0.2677
28562W        W45036   1.351   5.713   5.949 -0.0359 -0.0337 -0.0576
28563W        W45037  15.781  18.108   2.911  0.2630  0.2599  0.0667
28564W        W45038   2.527  17.801  13.141  0.1377 -0.1396  0.3136
28565W        W45039   8.506  15.142   2.679 -0.0928  0.1110  0.0316
28566W        W45040  13.293  16.287  13.907 -0.1072  0.0080 -0.3966
28567W        W45041  17.226  11.645  13.411 -0.0126  0.0235 -0.0197
28568W        W45042   8.476   5.412   4.956  0.2080  0.2896  0.0452
28569W        W45043  15.946   5.320   0.540 -0.3436  0.0950 -0.0299
28570W        W45044  16.839   2.176  12.847  0.2557  0.1589 -0.1483
28571W        W45045  10.480  17.621   3.172  0.3633 -0.3689 -0.0597
28572W        W45046  18.763   6.887   5.525 -0.2803 -0.0520  0.0148
28573W        W45047  13.816   1.853   3.308 -0.2816 -0.0352 -0.2694
28574W        W45048  10.133  10.190   1.658 -0.2310 -0.1668  0.1047
28575W        W45049   3.194  17.347   5.040  0.4017  0.2046 -0.1907
28576W        W45050   0.045   9.366  10.200 -0.0754  0.1778 -0.2233
28577W        W45051   0.814  12.194   1.439  0.1212  0.0142 -0.1718
28578W        W45052  13.247   2.769   4.985 -0.1825  0.0844 -0.1185
28579W        W45053  17.487  10.238  15.430  0.0918 -0.1107 -0.1665
28580W        W45054   3.305  12.409  12.169  0.0600  0.0671  0.2901
28581W        W45055   3.923   8.464   2.888 -0.0331 -0.0494  0.3477
28582W        W45056   2.678  14.309   2.368 -0.1510 -0.1879  0.0263
28583W        W45057  10.255   0.973  12.572 -0.1966  0.6139 -0.2490
28584W        W45058  14.769  14.694   0.227 -0.1391  0.0966 -0.2490
28585W        W45059   3.048   9.281   0.148  0.0076  0.0471 -0.0915
28586W        W45060   8.637   5.157   2.704 -0.3127 -0.2163 -0.1840
28587W        W45061   8.430  12.354   2.107  0.1053 -0.0642 -0.1677
28588W        W45062  14.712  11.610  14.647 -0.1323 -0.0450  0.0191
28589W        W45063  12.917   8.917   5.351 -0.0814  0.0829  0.2552
28590W        W45064  12.590  16.448   4.298 -0.1437 -0.0301 -0.1181
28591W        W45065   8.803   4.235   1.942  0.0742 -0.1670 -0.1818
28592W        W45066  10.220   3.531  11.339  0.2075  0.0586  0.1805
28593W        W45067   7.264  11.419  13.831 -0.1219 -0.1910 -0.3058
28594W        W45068   8.802  16.460   3.873 -0.1310  0.3301 -0.2488
28595W        W45069  18.246  13.646   2.575  0.1063  0.3038 -0.0999
28596W        W45070  16.065  12.599   3.278  0.0337  0.2280  0.2726
28597W        W45071   6.692   9.710   2.609 -0.1094 -0.0137  0.3245
28598W        W45072   0.515   2.485  15.020 -0.0011 -0.1556  0.3426
28599W        W45073   5.455   3.922  14.446  0.2306 -0.2720  0.4024
28600W        W45074  13.097  14.131   5.758  0.0667 -0.4935 -0.2443
28601W        W45075   0.342   7.317  13.388  0.1699 -0.2465  0.1655
28602W        W45076  13.245   9.627  15.582  0.0862  0.0049 -0.0552
28603W        W45077   3.452   3.623   1.758 -0.0934 -0.1868  0.0939
28604W        W45078  14.930   3.019   2.223  0.0732  0.1924  0.4523
28605W        W45079  17.943   6.680   2.515  0.0319  0.0411 -0.2505
28606W        W45080  13.338   1.056  11.690 -0.0357  0.1466  0.0266
28607W        W45081  16.842  12.235   1.746  0.0020  0.1310  0.2345
28608W        W45082   3.282  11.016   3.933  0.0262  0.1372 -0.2232
28609W        W45083   6.142  15.971  14.440  0.2344 -0.2147  0.0452
28610W        W45084  16.061  16.834   0.832 -0.0994 -0.1554  0.0094
28611W        W45085  10.416   8.052  11.078 -0.1412  0.0280 -0.1841
28612W        W45086   6.814  11.500  11.398 -0.0419 -0.3383 -0.3427
28613W        W45087   6.195   2.058  14.480 -0.1194 -0.1015 -0.3850
28614W        W45088  11.023   6.516  15.191  0.1553  0.0535  0.1163
28615W        W45089  17.621   1.083  13.080  0.3443  0.6471 -0.2912
28616W        W45090   1.291   2.842  13.339  0.0232  0.1222  0.0519
28617W        W45091   6.497   3.024   3.829  0.2604 -0.0794 -0.0619
28618W        W45092   1.755   7.186   3.316  0.1945 -0.0204 -0.1279
28619W        W45093  10.054  15.864  11.866 -0.0310  0.1344 -0.4190
28620W        W45094   1.128  10.843   9.532 -0.0398  0.2263  0.1735
28621W        W45095  13.842   1.009   4.761 -0.1372 -0.5897 -0.0436
28622W        W45096   4.490   2.125  12.857  0.0513  0.5766  0.0292
28623W        W45097   7.378   7.112  12.349  0.1208 -0.1496 -0.2087
28624W        W45098  13.120   1.723  12.372  0.1263  0.1531  0.1218
28625W        W45099   2.220   9.552   4.257 -0.0056 -0.0358  0.3942
28626W        W45100   6.249  12.821   1.804 -0.0491 -0.0611 -0.2108
28627W        W45101  17.335  16.461  12.960 -0.2828 -0.0303 -0.1936
28628W        W45102   9.025  16.588  11.290  0.2643  0.1777  0.1010
28629W        W45103   9.815  13.897   1.004 -0.0857 -0.1792  0.0692
28630W        W45104   9.319  12.505   2.544 -0.0429  0.1376  0.0930
28631W        W45105  18.550  18.058   2.221  0.1987  0.2134  0.0329
28632W        W45106   7.533   2.464   2.182 -0.0831  0.0078  0.3410
28633W        W45107  12.698  11.524  12.432  0.0103 -0.0801  0.1316
28634W        W45108   6.918   3.392  13.913  0.0805  0.0645 -0.0269
28635W        W45109   3.416  10.079   1.797  0.1225 -0.2459  0.1452
28636W        W45110   9.649  18.707  12.303  0.3305  0.0137 -0.0445
28637W        W45111   7.158   5.601  12.161  0.1442  0.1322  0.3202
28638W        W45112  18.681   0.201  13.391 -0.1487 -0.0345 -0.1567
28639W        W45113   9.633   8.861   2.100 -0.3821  0.1475  0.1278
28640W        W45114   4.328   9.231  12.815 -0.1805 -0.0160 -0.0085
28641W        W45115  10.161  12.524   2.008 -0.1458 -0.0548 -0.1963
28642W        W45116  14.646   6.105  14.470 -0.0793 -0.5319 -0.2255
28643W        W45117   4.789  13.158   1.103  0.1315 -0.2613 -0.2293
28644W        W45118   7.706  11.877   2.233  0.2119  0.0671  0.3042
28645W        W45119   2.778  12.729   0.838 -0.4265  0.0875  0.2071
28646W        W45120   0.977  12.552  15.470 -0.0995  0.0893  0.3926
28647W        W45121  17.946  12.020   4.693 -0.0664  0.0656  0.1027
28648W        W45122  18.320  18.143  15.481 -0.4006  0.1718 -0.4835
28649W        W45123   9.675  13.702   3.886 -0.3998 -0.1348 -0.0415
28650W        W45124   8.780   9.383   5.241 -0.0623 -0.0592  0.0976
28651W        W45125  17.941  13.287  11.264  0.0379  0.4051  0.1911
28652W        W45126   9.333   8.789  15.321 -0.1501 -0.0883  0.2136
28653W        W45127   5.457   5.981   0.237  0.0357 -0.1871 -0.2098
28654W        W45128   1.180   2.331   4.123 -0.2692  0.2655 -0.3460
28655W        W45129   2.621  15.478   4.297  0.4078 -0.1488  0.3390
28656W        W45130  17.335  18.786  14.960  0.1854  0.2918 -0.3507
28657W        W45131   1.316   5.615   0.746 -0.0907 -0.1884 -0.2084
28658W        W45132  12.631   9.733  13.476  0.3271  0.0902  0.1504
28659W        W45133  15.645  13.937  13.042 -0.2575  0.2212  0.1336
28660W        W45134   1.693  18.412  14.097  0.0313  0.1032 -0.1748
28661W        W45135   4.259   1.649   4.020  0.0657  0.0797 -0.1279
28662W        W45136  11.624   9.468   1.396  0.2022  0.0517 -0.0170
28663W        W45137   5.714  15.925  11.174  0.2043  0.0116  0.0047
28664W        W45138  12.646   0.132   0.432  0.4406  0.2104 -0.0095
28665W        W45139  11.718   5.838  12.276 -0.1099 -0.1352  0.0294
28666W        W45140  16.272  10.620   3.489  0.1867  0.0447 -0.2294
28667W        W45141   9.262  15.845  13.478 -0.3354  0.2394  0.1319
28668W        W45142  16.498  12.655   2.993 -0.2113 -0.1062 -0.0161
28669W        W45143   1.716   3.324  11.875  0.0328 -0.3994 -0.1121
28670W        W45144   9.668  16.487   4.934 -0.1476  0.0191 -0.0475
28671W        W45145  16.788  14.733   4.716  0.1143  0.0291  0.0949
28672W        W45146  11.302   8.784  13.015  0.1080 -0.0031  0.0947
28673W        W45147   2.952  11.249  14.123 -0.0041 -0.3676  0.1804
28674W        W45148   6.336   0.015  15.690 -0.1767 -0.1438 -0.1834
28675W        W45149   9.261  11.474   5.564  0.0683 -0.2318  0.0769
28676W        W45150   4.138  13.844  10.774 -0.0682 -0.0073 -0.1882
28677W        W45151   4.738  14.086  14.177 -0.1670  0.2404 -0.1093
28678W        W45152   7.803   6.568   5.155  0.3457  0.0339 -0.1816
28679W        W45153  11.846  14.369  10.966  0.0179 -0.2550  0.1710
28680W        W45154   5.011  17.608   5.990  0.0056  0.0771 -0.1650
28681W        W45155  12.606  15.174  14.588  0.0131 -0.0736  0.1029
28682W        W45156  17.396  15.296   1.846 -0.0833 -0.1040 -0.1902
28683W        W45157  18.653  18.468   4.440 -0.2491 -0.2064 -0.2688
28684W        W45158   1.871   7.546   2.037 -0.1648  0.1674  0.0300
28685W        W45159   9.239   3.554  15.358 -0.0898 -0.2067 -0.0955
28686W        W45160   2.994  10.307   0.852 -0.4743 -0.1142 -0.0137
28687W        W45161  18.239   0.133   2.269 -0.0190 -0.1201 -0.1912
28688W        W45162  15.154   3.059   0.342 -0.1133  0.1327  0.0495
28689W        W45163   9.526   2.035   2.390 -0.3919  0.1185  0.1122
28690W        W45164   6.094  18.340   4.590  0.2567 -0.0452 -0.0246
28691W        W45165  11.068  13.323   1.619  0.2915  0.0721 -0.2054
28692W        W45166  10.428   9.428   2.133  0.0775 -0.4898 -0.1197
28693W        W45167   6.162   4.577   2.071  0.0063 -0.0062 -0.3057
28694W        W45168  11.730   5.171  13.634  0.1741  0.1640 -0.2190
28695W        W45169   8.288   4.910  15.061 -0.0734  0.0352  0.0437
28696W        W45170  11.526   4.465  13.949  0.3395  0.0787 -0.0090
28697W        W45171  11.145  18.825  15.569  0.1054  0.2140 -0.0407
28698W        W45172   7.309  13.481   0.756  0.1593 -0.0368 -0.1019
28699W        W45173   8.645  14.774   5.703 -0.2168  0.0532 -0.0167
28700W        W45174   9.703   4.705   2.014  0.0461  0.1982  0.0647
28701W        W45175  14.206   7.767  13.807  0.1648  0.2755  0.3800
28702W        W45176   5.311  11.572   4.305 -0.1035 -0.2736 -0.0718
28703W        W45177  10.505  16.805  13.737 -0.1417 -0.0476 -0.0132
28704W        W45178   9.350   1.737   4.322  0.1438  0.2908 -0.1772
28705W        W45179   6.796  18.499  11.962  0.0848 -0.0451 -0.0094
28706W        W45180   5.577   3.380  13.874 -0.1945  0.0281 -0.1274
28707W        W45181   3.546  15.115   5.813 -0.1021  0.1175  0.0160
28708W        W45182   8.434   1.852   2.008 -0.2956 -0.1366  0.0167
28709W        W45183  13.560   7.421  11.886  0.1036 -0.0571 -0.1423
28710W        W45184   2.649   1.163   1.928  0.2463  0.0859  0.1808
28711W        W45185  17.944  15.233   1.652  0.1813 -0.0538 -0.0552
28712W        W45186  11.298  10.348  15.124 -0.0697  0.0743  0.1622
28713W        W45187   9.318   9.845   1.811  0.0602  0.1684 -0.0975
28714W        W45188  15.321   0.774   3.435 -0.3263  0.0415  0.1503
28715W        W45189   7.456  13.935  14.443  0.2273 -0.1580  0.0988
28716W        W45190  13.541   1.983  13.655  0.0915 -0.0472  0.0422
28717W        W45191   5.564   8.871   1.021 -0.0367 -0.0870 -0.1461
28718W        W45192   1.816   6.678  13.179 -0.1200  0.1318  0.0550
28719W        W45193   2.860   9.001   2.985 -0.2577  0.3683  0.2476
28720W        W45194  11.818  16.606   2.573  0.0535  0.1832 -0.2285
28721W        W45195   4.350   9.817   1.326  0.1206  0.3518  0.2922
28722W        W45196   1.143   4.780  14.036 -0.4199  0.0350  0.3969
28723W        W45197  11.036   1.492   1.339  0.3207 -0.1105 -0.1448
28724W        W45198   2.276   0.022  14.852  0.1633  0.2178  0.1643
28725W        W45199  15.686  10.603   1.802  0.1148  0.0936 -0.1655
28726W        W45200  17.721  17.313   4.787  0.1329  0.3399 -0.2428
28727W        W45201   5.024   9.913  15.533  0.0369 -0.1472  0.1259
28728W        W45202   4.102   7.647  11.720  0.1512 -0.3054  0.0130
28729W        W45203  14.409  15.162  13.582 -0.2517  0.0332  0.1450
28730W        W45204   3.485   5.679  14.406 -0.1936  0.1512  0.5220
28731W        W45205   1.592  14.630  11.374 -0.1255  0.3738 -0.0536
28732W        W45206  13.627  10.062   0.089  0.0887 -0.1036 -0.0863
28733W        W45207   1.555  18.425  12.381 -0.1002  0.4830 -0.1799
28734W        W45208   2.033   2.453  11.295  0.0749 -0.0427 -0.0877
28735W        W45209   9.097   1.443   1.870 -0.4391 -0.0347  0.1495
28736W        W45210  17.012  13.224  14.893 -0.0249  0.0566 -0.1042
28737W        W45211   6.706  16.383   2.106 -0.0077  0.2200  0.0131
28738W        W45212   6.701   9.196  15.643  0.3057  0.1951  0.0793
28739W        W45213  16.719  17.530  15.464 -0.0068 -0.1742  0.3139
28740W        W45214   0.153   4.671   1.614  0.2821 -0.0543  0.0191
28741W        W45215   3.804   8.077  12.357  0.2614 -0.1916 -0.0094
28742W        W45216   3.094   6.016  12.768  0.2251  0.0153 -0.0635
28743W        W45217  12.297   3.961   6.115 -0.1360 -0.1667 -0.0421
28744W        W45218   6.072   0.827   0.388  0.2007  0.0356 -0.1496
28745W        W45219  16.560   5.424  15.473 -0.0891 -0.0463  0.0402
28746W        W45220   3.195  15.942  11.603 -0.0831  0.3522 -0.1106
28747W        W45221   9.631   6.929  14.876 -0.1858 -0.0206 -0.1444
28748W        W45222  10.766  15.155   4.194 -0.0613 -0.1603 -0.2345
28749W        W45223   3.391   8.085   0.569 -0.1547  0.0490 -0.0048
28750W        W45224  14.086   0.956   3.188  0.2971 -0.0497 -0.2361
28751W        W45225  15.066   0.445   1.560 -0.0671  0.0449  0.1872
28752W        W45226  16.088  18.750  13.931  0.2410  0.0979  0.0018
28753W        W45227  12.621   5.656  11.926  0.1633 -0.0633  0.0289
28754W        W45228  14.133   6.577  10.599  0.0699 -0.1655  0.1614
28755W        W45229  10.040  16.881   5.559  0.0499 -0.1070 -0.3750
28756W        W45230   6.595   9.918   3.510 -0.3239  0.0299  0.0983
28757W        W45231   0.485   2.717  11.616  0.3509 -0.0801 -0.0985
28758W        W45232   0.548   4.067   2.280 -0.0104  0.2243 -0.0607
28759W        W45233  16.791   4.614   1.713  0.0173 -0.1383  0.0567
28760W        W45234   6.620  10.486  15.109  0.1084  0.0506  0.0542
28761W        W45235   0.898   4.012  14.634 -0.2716 -0.1326  0.0239
28762W        W45236  11.952   0.127   0.490 -0.0419  0.0482 -0.0950
28763W        W45237   5.260   9.618   5.920 -0.0209 -0.2220 -0.1134
28764W        W45238  17.835   1.807  12.027 -0.3341  0.1784  0.2755
28765W        W45239   9.307   4.924   2.166 -0.2078 -0.0116 -0.0375
28766W        W45240   6.694  11.109   5.415  0.0534 -0.0125  0.0047
28767W        W45241   6.975   8.904  15.358 -0.4740 -0.1666 -0.1312
28768W        W45242   7.990  14.464  14.518  0.3657  0.0171 -0.0039
28769W        W45243   4.691   6.378  11.970  0.2715 -0.1238  0.2378
28770W        W45244   4.331  10.746  13.259  0.0320 -0.0977 -0.0111
28771W        W45245   0.888  13.858   3.312 -0.0989 -0.0179 -0.2460
28772W        W45246   9.760   8.714  14.066  0.0979 -0.0751  0.2733
28773W        W45247   9.340  15.622  11.470  0.1933 -0.0664  0.2953
28774W        W45248  14.399   6.831   4.217 -0.0030  0.1840  0.0966
28775W        W45249  18.659   1.626  14.351  0.1808  0.2602 -0.2071
28776W        W45250  18.227  15.581   1.907  0.1015 -0.1779 -0.0967
28777W        W45251   5.783  18.454   0.980 -0.2177  0.2387 -0.3353
28778W        W45252   4.079   0.817   5.287  0.0649  0.3109  0.0927
28779W        W45253  10.461   6.904   2.568 -0.0942 -0.1628  0.0129
28780W        W45254   0.744   8.280  14.628 -0.4162  0.1619  0.3202
28781W        W45255   4.069  14.647  12.852  0.0705 -0.2319 -0.2458
28782W        W45256   1.927   3.862  11.283 -0.2187  0.2617 -0.0696
28783W        W45257   7.743   5.065  11.435  0.3405 -0.2394 -0.1567
28784W        W45258  13.637  10.409   4.593 -0.1072 -0.1013 -0.1499
28785W        W45259  15.991  15.923  12.272 -0.0125 -0.1324 -0.1270
28786W        W45260   5.107  13.367  13.686  0.0577 -0.1362 -0.2009
28787W        W45261  10.579  10.582  14.607  0.0288  0.0305  0.1823
28788W        W45262   4.883   7.515  11.608 -0.0701 -0.1785 -0.0506
28789W        W45263  15.780   2.757  12.450  0.1753 -0.0053  0.2406
28790W        W45264   8.166  11.596  12.746 -0.1934 -0.0409  0.0172
28791W        W45265  11.555  18.292   3.303  0.2722 -0.1684  0.1722
28792W        W45266   5.577   9.727  14.371  0.0116 -0.1745 -0.0425
28793W        W45267  17.200   0.288  12.963 -0.2075 -0.3144  0.0775
28794W        W45268  11.066  11.806   1.582  0.0536 -0.0265 -0.1120
28795W        W45269  12.513   6.427  11.235 -0.0784 -0.0107 -0.0100
28796W        W45270  10.294   1.950  15.251  0.0489  0.1633  0.2583
28797W        W45271  17.112  16.348  10.524 -0.0476 -0.0351  0.0238
28798W        W45272  11.225   1.855   2.374  0.0310  0.2238 -0.1499
28799W        W45273  10.561   3.749  12.002  0.1366 -0.1492 -0.2023
28800W        W45274   5.221   0.362   5.256 -0.2528  0.1142 -0.1008
28801W        W45275   3.233  18.460  15.269  0.2417 -0.0934  0.1963
28802W        W45276   5.146  14.281   4.004  0.0617  0.1589  0.1295
28803W        W45277   8.458   9.341   0.112  0.1864  0.1442 -0.1349
28804W        W45278   6.617  18.777  11.118 -0.1289 -0.1534 -0.0937
28805W        W45279  16.465  16.953  13.964 -0.0294 -0.0848 -0.2277
28806W        W45280  10.065   5.541   0.702 -0.3835  0.4943 -0.1555
28807W        W45281  10.625  10.523   4.061  0.0324 -0.0656 -0.0522
28808W        W45282   2.666   5.110  11.241 -0.1200 -0.0432 -0.1745
28809W        W45283  10.628   6.737  12.667  0.1359  0.1676 -0.1286
28810W        W45284   8.803   1.330  13.197 -0.2145  0.1965  0.2287
28811W        W45285   3.486   8.528   3.127 -0.3549 -0.1096 -0.0498
28812W        W45286   8.514   2.373   2.013 -0.2815  0.3933  0.3378
28813W        W45287   4.478  10.935  11.463 -0.2060 -0.1692  0.0110
28814W        W45288   7.293   3.225   0.477  0.0314 -0.1242  0.2506
28815W        W45289  15.154  12.080   2.237 -0.0325  0.0024  0.0700
28816W        W45290   6.780  15.795   4.619 -0.0089 -0.2109  0.0774
28817W        W45291  13.717  14.821  10.492 -0.3774  0.0356 -0.3220
28818W        W45292   0.637  15.334  11.674  0.1414 -0.1809 -0.0737
28819W        W45293   4.464  14.325  15.009  0.1458 -0.2093  0.0020
28820W        W45294  14.824  14.244  14.262 -0.1577  0.3410 -0.2445
28821W        W45295   6.398   8.947  13.281  0.0703  0.0632 -0.2133
28822W        W45296   5.172   3.925  13.694  0.1495  0.0692 -0.3992
28823W        W45297   9.551   4.604  13.176 -0.5495 -0.0693 -0.0551
28824W        W45298   9.692   1.323  12.056  0.2253  0.3785 -0.4485
28825W        W45299   6.871   0.648   5.827 -0.1666  0.1985  0.4343
28826W        W45300   2.555  13.800   2.598 -0.3091  0.0170  0.3221
28827W        W45301  13.922   9.312   3.623  0.0769  0.0873  0.1363
28828W        W45302  12.853  12.111  11.581 -0.1456 -0.0528 -0.3942
28829W        W45303   4.279   1.464  14.848  0.2239  0.2744 -0.1082
28830W        W45304  13.003  14.982   1.186  0.0634  0.2645  0.0417
28831W        W45305   1.508   4.565   4.119  0.0617  0.0041 -0.1346
28832W        W45306  12.372  10.437   5.144  0.4766  0.0440 -0.1200
28833W        W45307  10.649   7.395   2.778  0.0097  0.0374  0.0940
28834W        W45308   2.488  13.566  13.944 -0.2283  0.0292  0.3559
28835W        W45309   9.977   0.514   3.609 -0.0014  0.1583 -0.0378
28836W        W45310  15.318   8.288  12.099  0.1004  0.0160 -0.0332
28837W        W45311  12.852   0.815  12.854  0.0626 -0.2212 -0.0848
28838W        W45312  17.725  13.988   1.126 -0.1305 -0.0677  0.0489
28839W        W45313  17.677   1.190  10.407 -0.0545 -0.0682 -0.2709
28840W        W45314   3.585  15.928   4.099 -0.1805 -0.1026 -0.0897
28841W        W45315   1.411  16.565  11.662 -0.1119  0.4362 -0.0023
28842W        W45316   0.187  18.100   4.746 -0.1794  0.1362  0.0942
28843W        W45317   8.885   7.076  12.276 -0.1830  0.1298  0.1404
28844W        W45318  14.033  17.892   2.074  0.2509 -0.0270  0.0473
28845W        W45319  11.006  14.673   1.786  0.1771 -0.1453 -0.1126
28846W        W45320  16.722   3.752   3.402 -0.0774  0.1759  0.1398
28847W        W45321   4.223  10.711  14.203  0.0946 -0.4106  0.3827
28848W        W45322  11.549  15.744   4.332 -0.2376 -0.0647  0.0176
28849W        W45323  17.593   7.215   2.464  0.2745  0.0748  0.1593
28850W        W45324   1.213  17.609   0.369  0.3849 -0.0762  0.0202
28851W        W45325  11.556   7.186  12.993  0.3007  0.0997 -0.2239
28852W        W45326  11.134   7.101   1.296 -0.0345  0.2446  0.0400
28853W        W45327   6.255   2.766  13.944 -0.1884 -0.0482 -0.1771
28854W        W45328   5.556   7.099   1.945 -0.0098 -0.0068  0.1043
28855W        W45329  18.178  10.568   0.639  0.0071 -0.0305 -0.1001
28856W        W45330   2.645  17.628  12.099 -0.2252 -0.0215  0.2615
28857W        W45331  15.825  15.822  11.431  0.1203  0.1987  0.1024
28858W        W45332  10.816   1.603  15.390 -0.0445 -0.2945  0.1403
28859W        W45333   6.218   9.534   1.279  0.1993  0.1189  0.0993
28860W        W45334   5.371  17.078  12.103  0.3697  0.4051  0.0468
28861W        W45335   9.348  10.836  11.285 -0.0613  0.2456 -0.0493
28862W        W45336   8.137   5.938   1.747 -0.2059 -0.1918  0.1628
28863W        W45337   0.427   2.993  13.658  0.1302  0.2650  0.1374
28864W        W45338  17.447  18.309   2.530  0.0213  0.2564  0.3079
28865W        W45339  13.039  17.504  15.020 -0.1827 -0.1036 -0.1961
28866W        W45340   1.910  10.478  15.503  0.2399  0.0611  0.2617
28867W        W45341   6.337  17.711  12.411 -0.2350  0.2267  0.1491
28868W        W45342   4.007  17.082  13.227  0.0648 -0.1214 -0.0160
28869W        W45343   3.085   7.482  13.805  0.0745  0.0380 -0.4399
28870W        W45344   8.981  14.317  11.087 -0.1603 -0.1024  0.0285
28871W        W45345  16.017  11.360   4.033 -0.1453 -0.3650 -0.0609
28872W        W45346   3.264   5.931   2.024  0.1276  0.0157  0.1784
28873W        W45347  17.346   4.365  13.983 -0.0718 -0.0358  0.1066
28874W        W45348   3.145  15.653   1.720 -0.3827 -0.0107 -0.0724
28875W        W45349  11.920   6.617   1.635 -0.1442  0.2189  0.4298
28876W        W45350  17.800  14.824  12.979  0.0452  0.0681  0.3455
28877W        W45351   9.389   4.918   0.302  0.0350  0.1077  0.2350
28878W        W45352  17.756  13.292   2.813 -0.0026  0.1177  0.3172
28879W        W45353   8.212   9.057  14.856  0.0815 -0.2223  0.0307
28880W        W45354   7.852   8.200   4.928  0.3073 -0.1507  0.0123
28881W        W45355   9.395  11.951   2.246 -0.0868  0.0841 -0.3012
28882W        W45356   9.420   5.728   4.982  0.1037  0.2854 -0.2925
28883W        W45357   5.539   0.977  14.690  0.0755 -0.2600 -0.0002
28884W        W45358  18.469   3.942   3.785 -0.4097 -0.2700 -0.0229
28885W        W45359  17.706   3.562   4.850  0.0173  0.1569  0.0699
28886W        W45360  16.816   2.846   5.084  0.0414  0.5430 -0.1901
28887W        W45361   0.371  17.801   0.641 -0.2294 -0.1650 -0.0951
28888W        W45362   9.135   8.863   3.880 -0.0195  0.1311 -0.0212
28889W        W45363   7.328   3.720   3.998  0.1770 -0.0295 -0.1159
28890W        W45364  17.051  13.590  13.245 -0.2939  0.2059  0.3057
28891W        W45365   9.680   1.294   2.842 -0.0567 -0.1434 -0.0777
28892W        W45366   6.486  16.360  15.002  0.0368  0.1289 -0.2106
28893W        W45367   6.294   5.092  15.208  0.5334 -0.0892 -0.2924
28894W        W45368  16.746   3.586  10.366  0.1019 -0.0968  0.3231
28895W        W45369   8.919  16.101   5.195 -0.3687 -0.0545 -0.2992
28896W        W45370  12.133   2.210  13.864 -0.2486  0.5145 -0.1283
28897W        W45371  13.786  12.250   0.600 -0.0885  0.0733  0.1464
28898W        W45372  10.656   5.720  12.073 -0.0981 -0.2213  0.2295
28899W        W45373   0.573   4.204   0.326 -0.1143 -0.2678 -0.1240
28900W        W45374   9.627   4.476  15.119 -0.0872 -0.2207 -0.1166
28901W        W45375  12.952   2.592   0.085 -0.0016  0.3550 -0.1943
28902W        W45376   7.891  14.062  14.256 -0.0328  0.0039  0.0970
28903W        W45377   7.513  13.789   3.687 -0.0283 -0.1127 -0.2122
28904W        W45378   4.075   3.859   1.985 -0.0139  0.4234  0.0186
28905W        W45379   9.987  17.214   2.647 -0.1926  0.1608 -0.0527
28906W        W45380  15.674  14.817  10.254 -0.2720 -0.1748  0.0635
28907W        W45381   1.194   1.855   4.322  0.2307  0.2281  0.2580
28908W        W45382  13.082   8.724   1.670 -0.0602  0.0967 -0.1992
28909W        W45383   7.909  10.006   0.167  0.2111 -0.2062 -0.2402
28910W        W45384   3.290  12.416   3.388  0.3560 -0.3370 -0.2575
28911W        W45385  12.930  18.664   3.630  0.5171  0.1660 -0.2298
28912W        W45386   5.393   4.435  15.296  0.2154  0.0844  0.0801
28913W        W45387  17.594  13.512   3.202 -0.0016 -0.0423  0.0262
28914W        W45388   9.380   0.960  13.361  0.0137 -0.1591 -0.2040
28915W        W45389   4.939   6.444  14.336 -0.0463 -0.0879 -0.2804
28916W        W45390  12.891  14.051   4.765 -0.1135 -0.0551  0.1135
28917W        W45391   6.630  10.817  12.144 -0.1208  0.0446  0.3376
28918W        W45392   1.989  15.720   4.564 -0.2390 -0.3484 -0.0305
28919W        W45393   1.307  12.533   1.982  0.2614 -0.0588  0.1922
28920W        W45394   0.979  15.905   2.277 -0.2998  0.0779  0.1856
28921W        W45395  15.265  14.859   9.968 -0.1944 -0.2982 -0.1191
28922W        W45396  16.049  17.973  12.384  0.1474  0.3487 -0.2961
28923W        W45397  10.956  13.678  11.392 -0.0189 -0.1268  0.2310
28924W        W45398  16.832  18.600   0.958  0.1512  0.0919  0.1128
28925W        W45399  12.194  16.656   2.163 -0.2705  0.1851  0.0645
28926W        W45400  12.226   1.053   4.756  0.0992  0.1772  0.1950
28927W        W45401  17.299  17.984   0.211  0.0892  0.1814 -0.3041
28928W        W45402   3.855   8.874   3.160  0.1233 -0.1708  0.1777
28929W        W45403  13.603   0.204  10.681 -0.1201 -0.0812  0.2850
28930W        W45404  10.144  11.118  10.202  0.0920  0.1799 -0.2451
28931W        W45405   2.297   0.025  12.077  0.0768 -0.2827  0.0089
28932W        W45406   3.418  13.642   2.223 -0.0786 -0.1562  0.3005
28933W        W45407   1.498   7.949   4.097  0.0146  0.1085 -0.1832
28934W        W45408  16.617   2.536  14.155 -0.2299 -0.1874 -0.1904
28935W        W45409  16.407  15.341   4.045  0.0993 -0.1893 -0.1869
28936W        W45410   6.906   9.398  15.144 -0.2762  0.4031 -0.3183
28937W        W45411   3.531   8.311  11.459 -0.2566 -0.0878  0.2428
28938W        W45412   2.478   0.786  12.241 -0.3904 -0.2689  0.0555
28939W        W45413  15.219   0.495   0.578  0.1665 -0.1755  0.1409
28940W        W45414  10.724   5.099   3.065  0.1392 -0.1674  0.3718
28941W        W45415  17.645  16.126  13.347 -0.1041  0.1330 -0.5214
28942W        W45416  14.429   5.713  11.572  0.1659 -0.1600  0.0710
28943W        W45417   0.554   7.341   0.322  0.2656  0.1560 -0.0060
28944W        W45418   6.853   2.944  12.889  0.0273 -0.0796 -0.3234
28945W        W45419   9.856   4.227   2.587  0.1728 -0.1307 -0.0478
28946W        W45420  11.582  16.328   4.288  0.1318 -0.2665  0.0755
28947W        W45421   2.557   6.831   5.122  0.2326  0.1956  0.0072
28948W        W45422  12.965  13.460   0.798 -0.3099 -0.1211  0.0481
28949W        W45423   0.350   0.095   0.628  0.0555  0.2680 -0.0439
28950W        W45424   1.827  11.796  13.032 -0.3295 -0.0734 -0.1011
28951W        W45425  14.595   3.118   1.024 -0.0573  0.1826  0.1947
28952W        W45426   5.510  17.266  11.075  0.0707  0.1075  0.0196
28953W        W45427   7.252  10.494  14.296 -0.1020 -0.0378 -0.0796
28954W        W45428  12.827  14.342  15.570 -0.4420 -0.1448 -0.4391
28955W        W45429   9.605  16.817   2.633 -0.1955 -0.0897 -0.0957
28956W        W45430   9.918   2.175  10.673 -0.0905 -0.3351  0.1737
28957W        W45431   9.530  12.819   4.171 -0.2531 -0.1469  0.0669
28958W        W45432   6.513   7.882  15.227 -0.0233 -0.3405  0.1581
28959W        W45433   2.962   5.286  14.999 -0.1542  0.3144  0.0322
28960W        W45434  14.328  15.086   3.796  0.1171  0.0126  0.3432
28961W        W45435  11.589  12.963   0.710 -0.0565  0.1356  0.1029
28962W        W45436  13.870  17.524  10.880  0.0140 -0.1268 -0.1370
28963W        W45437  18.194  11.003   0.876  0.1092 -0.2675 -0.0701
28964W        W45438  15.068   2.414  12.152  0.2711  0.3472 -0.1827
28965W        W45439   7.152   2.222  10.706 -0.4657  0.0830 -0.2208
28966W        W45440   2.369   1.336  10.725 -0.1927  0.2445 -0.1938
28967W        W45441   3.490   8.380   2.662  0.2133 -0.1058 -0.4440
28968W        W45442   7.995  13.173  11.441 -0.0826  0.3547  0.0467
28969W        W45443  10.752   5.763  14.400 -0.1701 -0.0789  0.1535
28970W        W45444   1.661  14.873  14.317 -0.1498  0.2005 -0.0102
28971W        W45445   5.134   1.761  11.924  0.1506  0.4504  0.2618
28972W        W45446  15.429   9.382  10.647  0.2127 -0.0713 -0.2546
28973W        W45447   7.621   9.273   1.331 -0.0434  0.0574 -0.3327
28974W        W45448   6.898  17.240  11.217 -0.1156 -0.0310  0.0873
28975W        W45449   0.183  11.438  13.063  0.2279 -0.1561  0.0200
28976W        W45450   1.852   8.527  11.114 -0.1217  0.0841  0.0412
28977W        W45451  11.666   6.242   1.512 -0.0409 -0.4792 -0.2193
28978W        W45452  16.079  12.889   2.185  0.4209  0.0182  0.0139
28979W        W45453  17.596   5.928   1.885  0.0870 -0.1201 -0.0450
28980W        W45454  17.310   7.876  11.225  0.0616  0.1123 -0.1670
28981W        W45455  15.327  14.609   3.660  0.0889  0.1575  0.0063
28982W        W45456  11.290   9.822  13.183 -0.1905 -0.2937  0.2369
28983W        W45457  15.159   4.721   0.852 -0.1953  0.4424 -0.1687
28984W        W45458   4.137  13.061  12.967 -0.0564 -0.3773  0.5560
28985W        W45459  18.802   8.338   3.908  0.3548 -0.1098 -0.1918
28986W        W45460  17.673  15.656  13.631 -0.0071  0.2593 -0.1684
28987W        W45461   1.106  15.531  11.467  0.1722 -0.0844 -0.1686
28988W        W45462  15.455   5.793  11.623 -0.2087 -0.3045  0.2496
28989W        W45463   4.376   2.767  12.113 -0.4762  0.0793 -0.0005
28990W        W45464  15.285  18.045   2.263  0.0196 -0.0412 -0.1024
28991W        W45465   0.969  12.364   4.471 -0.0072  0.1515 -0.2562
28992W        W45466   5.939   3.582   2.416 -0.1097 -0.0527 -0.0068
28993W        W45467   0.763  12.043  11.783  0.0781 -0.1500 -0.0709
28994W        W45468   5.627  14.917   3.512  0.2725  0.0622 -0.0094
28995W        W45469  11.069  12.628  11.789  0.3625  0.2585  0.0497
28996W        W45470   7.706   1.801   5.917  0.1587  0.0099  0.0291
28997W        W45471   3.626  18.036   3.323  0.2065  0.1660  0.1697
28998W        W45472  18.515  16.064   9.314  0.0469  0.0597  0.0964
28999W        W45473   4.501  13.900   0.103  0.0403  0.1417 -0.0649
29000W        W45474   4.481  14.975  14.255  0.1346 -0.0753  0.1885
29001W        W45475   2.527   3.835  14.481  0.3021  0.0640  0.0245
29002W        W45476  17.777   5.723   0.701 -0.2551  0.0669  0.2937
29003W        W45477  13.372  11.043   3.588 -0.0366 -0.0163 -0.0384
29004W        W45478   2.399  14.564   2.960 -0.1099 -0.2954  0.0065
29005W        W45479   1.164   1.943   1.450  0.0568 -0.0407  0.0540
29006W        W45480   7.647  12.288  11.344  0.0696  0.3614  0.1371
29007W        W45481   4.634  14.776  11.913  0.1068  0.1041  0.0371
29008W        W45482  18.515  17.983  12.585  0.3648  0.1362 -0.2968
29009W        W45483   8.962   0.927   3.676 -0.3469  0.0689 -0.0227
29010W        W45484   3.200   0.103   3.930 -0.1271  0.0951  0.0875
29011W        W45485  13.042   1.609   0.073  0.2814  0.2055 -0.1744
29012W        W45486   9.974   2.093   0.004 -0.0832  0.1293  0.1281
29013W        W45487   3.518   3.961   2.639  0.0702 -0.3855 -0.4194
29014W        W45488  15.109  12.961  13.917 -0.0444 -0.0438  0.2661
29015W        W45489   1.439   1.190   5.668 -0.1593 -0.0433 -0.2726
29016W        W45490  18.170   8.250  12.856 -0.0175  0.0108  0.0999
29017W        W45491   5.992   9.651  15.257 -0.1790  0.1016 -0.0425
29018W        W45492   2.850  14.799  13.483 -0.0912  0.0867  0.4277
29019W        W45493  13.290   3.682   0.689  0.0144 -0.2284 -0.0608
29020W        W45494  15.413  15.542  11.555  0.0387 -0.2398 -0.2401
29021W        W45495  16.259   0.954   4.737  0.1600 -0.1791 -0.1044
29022W        W45496  13.912  14.213   3.641 -0.0985  0.0557  0.0795
29023W        W45497  11.566  18.595  12.181  0.0139  0.2735  0.0948
29024W        W45498   7.294   2.083   1.939  0.1634  0.2101  0.0429
29025W        W45499   1.695  14.936   1.611  0.0937  0.0462 -0.3008
29026W        W45500   4.271  11.932  15.652 -0.2335  0.0663  0.1401
29027W        W45501  18.003   7.573  10.395 -0.0921  0.1622  0.0580
29028W        W45502   9.072   5.596   1.413 -0.3786  0.2604  0.0596
29029W        W45503   4.630  10.461  14.388 -0.0883 -0.1001 -0.1101
29030W        W45504   6.010   4.309   4.379 -0.0614  0.1342 -0.1544
29031W        W45505  12.294   4.749  12.445  0.0809 -0.1748  0.2553
29032W        W45506   1.094  10.416   2.749  0.0083 -0.1739 -0.1198
29033W        W45507  14.084   8.486   5.737 -0.0268  0.3743  0.1672
29034W        W45508   0.801   8.601   4.800 -0.1354 -0.1845  0.1062
29035W        W45509   5.353   3.613   2.565  0.0173 -0.2967 -0.1695
29036W        W45510  18.698   0.522  15.261 -0.0687 -0.0479  0.0237
29037W        W45511  12.832  12.910  11.309 -0.2551 -0.0626 -0.2429
29038W        W45512   6.640  12.896  15.349  0.1797 -0.2388 -0.6337
29039W        W45513   0.629   6.464   1.055 -0.0048  0.0575 -0.2786
29040W        W45514  15.883  10.951  12.822  0.0455  0.3479 -0.0035
29041W        W45515   9.218  16.288   2.664  0.0958 -0.0684 -0.1273
29042W        W45516  18.745   7.015  15.279 -0.0643 -0.3091  0.2800
29043W        W45517   3.775   4.237   3.870 -0.2584  0.3610 -0.4475
29044W        W45518  16.607  10.928   3.827 -0.1938  0.1090  0.1828
29045W        W45519  10.269   5.945   4.974 -0.1445 -0.0426  0.0021
29046W        W45520  15.741  17.014  10.697  0.0976  0.1249  0.1243
29047W        W45521   2.841   6.737   0.142 -0.0735 -0.3139 -0.0078
29048W        W45522   6.407  13.335  12.412 -0.0696 -0.2260 -0.4219
29049W        W45523  11.141   3.036   3.821  0.0355  0.0017 -0.0158
29050W        W45524  10.091   2.171   5.332 -0.2362 -0.1617 -0.2609
29051W        W45525   2.413  15.066  13.231 -0.0557 -0.0675 -0.1593
29052W        W45526   7.580  10.310  15.192 -0.2920  0.2697  0.1873
29053W        W45527   2.789  10.816  13.342 -0.0483  0.3270  0.3208
29054W        W45528  17.295  10.674  12.382 -0.1098  0.0562 -0.0967
29055W        W45529   0.049  10.669   5.271 -0.1856  0.0404 -0.1169
29056W        W45530   8.382   5.746  15.297 -0.1900 -0.2534  0.1930
29057W        W45531   9.345   5.221  11.201 -0.1315 -0.3551 -0.2432
29058W        W45532  11.400  10.382   5.187 -0.1129  0.0096 -0.1652
29059W        W45533  14.043   3.031   2.026  0.0561 -0.0884 -0.0435
29060W        W45534   6.608  15.798   1.826 -0.1734  0.0287  0.1413
29061W        W45535   3.601   3.035   4.908 -0.1790 -0.1730 -0.1974
29062W        W45536   9.303   5.009   5.240  0.2829 -0.0779 -0.0458
29063W        W45537   2.920   5.103   0.707  0.1646 -0.0399 -0.1279
29064W        W45538   2.697  18.075   1.101 -0.0135  0.5431 -0.1855
29065W        W45539   9.580   7.843   4.829 -0.0350  0.2750 -0.0778
29066W        W45540   5.509   4.774   5.759 -0.1335  0.0017  0.1262
29067W        W45541   3.375  12.164  11.254 -0.0624  0.0337 -0.1597
29068W        W45542  12.013   7.419  12.593  0.2519  0.1668  0.1255
29069W        W45543   8.098   9.238   1.271  0.3090  0.0251 -0.0364
29070W        W45544   3.091  12.471  14.203 -0.1064 -0.1584  0.0155
29071W        W45545  12.993  15.589   0.428 -0.0316  0.3178 -0.1876
29072W        W45546   4.003  14.496  15.177  0.1247  0.3514  0.1980
29073W        W45547   8.565   5.924  11.443  0.0347  0.0570 -0.0142
29074W        W45548  12.773  12.630   1.164 -0.0269  0.1812  0.0629
29075W        W45549  16.527  12.575  13.892  0.1449  0.1857 -0.0411
29076W        W45550  12.330   2.866  14.647 -0.2791 -0.3480 -0.2125
29077W        W45551  16.098   2.584   2.178 -0.3498  0.0238 -0.0131
29078W        W45552  14.454   2.195  12.762  0.0284 -0.0047  0.0813
29079W        W45553   2.611  11.829  15.122  0.0383 -0.2079  0.1337
29080W        W45554  11.450   6.700  14.009 -0.1203 -0.2976  0.2497
29081W        W45555  15.547   5.947   2.558 -0.1831  0.3519 -0.0996
29082W        W45556   4.501   7.935   1.300 -0.2883 -0.0742 -0.3050
29083W        W45557  12.660  13.923  11.327  0.1585 -0.0075 -0.2389
29084W        W45558   5.138   1.908   1.135 -0.1507 -0.0769  0.4307
29085W        W45559   8.608   9.691   5.558  0.0368 -0.4144  0.1649
29086W        W45560   2.842  15.671  15.128 -0.0718 -0.1342 -0.0995
29087W        W45561  13.853  13.376  15.036  0.0120  0.0186  0.0938
29088W        W45562  16.210   6.264  11.194 -0.1778 -0.1037 -0.1605
29089W        W45563   7.597  17.576   2.513 -0.1930  0.0727  0.1137
29090W        W45564  15.184  13.698  14.602  0.3057  0.2991  0.1153
29091W        W45565  16.925   3.722   2.119  0.0586 -0.0591  0.1428
29092W        W45566   2.182  11.187  14.655  0.3426 -0.0616  0.1877
29093W        W45567   6.448   1.482  11.741 -0.0650 -0.3872 -0.1882
29094W        W45568   6.801  12.631  11.585 -0.2832  0.2165  0.1342
29095W        W45569   3.010   1.443   2.126  0.0020 -0.2731  0.2052
29096W        W45570   2.975   8.320  13.800 -0.4927  0.0472  0.2379
29097W        W45571  12.654   0.720  14.103 -0.1294  0.1297 -0.1707
29098W        W45572  16.876  16.249  14.768  0.0523  0.2266 -0.0366
29099W        W45573   9.728  13.718  12.919 -0.1495  0.1171 -0.1768
29100W        W45574   7.732   8.826   0.218 -0.2101  0.2709  0.2183
29101W        W45575  13.399  10.167   3.750 -0.2027  0.0152 -0.0719
29102W        W45576  13.597   5.558  11.151 -0.4423  0.1009 -0.1134
29103W        W45577  15.576  12.078  15.624 -0.2198 -0.1647 -0.2049
29104W        W45578   8.672  16.059  14.677 -0.0598 -0.0124 -0.0079
29105W        W45579   5.420  18.340   5.561  0.0692  0.0401 -0.2617
29106W        W45580   0.735  12.322   0.208 -0.4646 -0.2455 -0.2378
29107W        W45581  17.482   1.728  13.325  0.2211 -0.3118  0.1363
29108W        W45582   9.712   3.932  13.451 -0.0143  0.1783 -0.1820
29109W        W45583   0.995  16.618   5.046  0.0250 -0.0243  0.0717
29110W        W45584   9.433  13.371  14.906 -0.0434  0.1192  0.0807
29111W        W45585  16.050  12.737  14.771 -0.0309 -0.0300  0.2567
29112W        W45586   3.209  16.478  14.891  0.1609 -0.0692 -0.0271
29113W        W45587  14.262   6.103   0.847  0.1941  0.3025 -0.2458
29114W        W45588   1.073  12.326  10.033 -0.0198  0.2438  0.0748
29115W        W45589   9.029  11.584  13.155 -0.0934 -0.2397  0.2170
29116W        W45590  12.657   1.322   0.057  0.2875 -0.1212 -0.1128
29117W        W45591  14.523  13.612  12.054  0.4138 -0.0303  0.0526
29118W        W45592  15.696  15.727  15.650  0.0112 -0.0805 -0.0393
29119W        W45593  18.573  11.536  14.599 -0.0675 -0.6257 -0.1627
29120W        W45594   8.559  12.618  14.389  0.0773 -0.1278  0.1016
29121W        W45595   9.146   1.645   0.275  0.1621 -0.0386 -0.1126
29122W        W45596   5.708   8.004   3.702  0.0079  0.0463  0.1790
29123W        W45597   2.711   4.037   3.876  0.1655  0.0060 -0.1941
29124W        W45598   0.172   4.780   3.400  0.1815  0.0252  0.0141
29125W        W45599   4.378   8.650  13.367 -0.0324  0.2139 -0.1037
29126W        W45600   2.596  17.209   1.301 -0.1834  0.0432  0.3920
29127W        W45601   9.458   4.084   0.115  0.2541  0.0165  0.0776
29128W        W45602   2.502   8.515   5.653  0.2535 -0.0838 -0.1451
29129W        W45603  15.465   9.722  15.029  0.0951 -0.0645 -0.1810
29130W        W45604   5.901  17.502  14.154  0.3444  0.0190 -0.3324
29131W        W45605   7.586   5.790  15.422  0.2535 -0.0045 -0.1103
29132W        W45606  17.628   7.987   2.070  0.0723  0.0680  0.1656
29133W        W45607   3.461  18.133  15.547  0.2439 -0.3385  0.1743
29134W        W45608  13.099   1.063   0.191  0.0002  0.1467  0.2383
29135W        W45609   1.295   1.752  14.532  0.0242  0.2258 -0.1457
29136W        W45610   4.534   6.221  12.404  0.2202  0.0630 -0.0275
29137W        W45611  12.797  13.616  14.207 -0.3189  0.0088 -0.1898
29138W        W45612   1.204   8.015  11.582 -0.2925 -0.0441  0.0990
29139W        W45613  18.562   2.398   1.018  0.0841 -0.1341 -0.0390
29140W        W45614   9.735  15.030  15.188 -0.4103  0.1805  0.0359
29141W        W45615  15.410   3.513  14.624  0.3469 -0.1331 -0.2918
29142W        W45616   1.108  13.501  11.594 -0.0521 -0.0173 -0.1499
29143W        W45617   9.234  13.535   2.321  0.3315  0.1775  0.2125
29144W        W45618   9.153  14.252   5.273  0.2738 -0.3983 -0.0588
29145W        W45619  12.015   4.152   4.448  0.0863  0.1413  0.3173
29146W        W45620   0.889   5.756  15.341 -0.2905 -0.1596 -0.1711
29147W        W45621  11.334  15.068   4.257 -0.1902  0.0388  0.0915
29148W        W45622  11.888   5.246  12.436 -0.2510  0.0429  0.2862
29149W        W45623   3.275   0.328   5.252  0.1396  0.2009  0.0065
29150W        W45624   4.612  15.018   4.338  0.3342 -0.1082  0.0560
29151W        W45625   9.785  17.374   4.757 -0.2069  0.0471  0.3525
29152W        W45626   8.550   7.030   0.907  0.0111  0.1006 -0.0389
29153W        W45627   8.709  15.748   1.938  0.0930  0.0959 -0.5220
29154W        W45628   9.932  11.043   1.457  0.0526 -0.1156  0.2324
29155W        W45629  11.839  17.370  12.142  0.0273 -0.0622  0.1112
29156W        W45630   3.427   4.458  13.785 -0.3738 -0.2285  0.2170
29157W        W45631   3.400  12.123   3.804  0.0323  0.2588 -0.0945
29158W        W45632  12.855  18.591   3.015 -0.1809  0.0635 -0.0746
29159W        W45633  13.304  18.193   2.359  0.0452 -0.0369 -0.0901
29160W        W45634  16.791   7.044  11.555  0.1287 -0.1897  0.0731
29161W        W45635   9.297  14.126  15.605  0.2137  0.0262 -0.1744
29162W        W45636   9.563  18.627   1.050  0.0236  0.0738 -0.0581
29163W        W45637   1.910  11.651   1.013  0.0250 -0.0936 -0.1705
29164W        W45638   6.291  11.445   2.721  0.4860 -0.1225  0.4848
29165W        W45639   0.927  14.911  15.105 -0.2200 -0.1386 -0.1341
29166W        W45640  11.820   3.056  12.410  0.2466 -0.0435  0.2995
29167W        W45641  12.429   6.810   4.329 -0.1740 -0.0797 -0.1038
29168W        W45642  14.241   7.831  14.317  0.3933 -0.2024 -0.1152
29169W        W45643   4.047   3.134  15.260  0.2152 -0.1751 -0.0170
29170W        W45644   9.000  15.030   2.202  0.1183  0.2943  0.0409
29171W        W45645  12.945   7.071   5.279  0.1236  0.0847  0.1676
29172W        W45646   8.625   3.984  11.399 -0.0573  0.2712 -0.0415
29173W        W45647   6.613   1.463   4.459  0.0997  0.1916  0.3541
29174W        W45648  16.673  15.815   3.360  0.0808 -0.1390  0.1434
29175W        W45649  16.071   1.598  14.576  0.0334 -0.2812  0.0859
29176W        W45650  15.735   0.342   0.698 -0.0759  0.2181  0.0362
29177W        W45651   8.085   1.368   0.432  0.0883 -0.1967  0.0058
29178W        W45652   6.133  17.846  12.005  0.4294  0.1805 -0.0497
29179W        W45653  16.241   2.561  15.032 -0.0731 -0.1510  0.1048
29180W        W45654  15.199   7.707  11.471  0.2416 -0.1250 -0.2831
29181W        W45655  10.562  15.192   3.672 -0.1825 -0.0245 -0.1210
29182W        W45656   5.643  17.962  13.416 -0.3536 -0.6134 -0.1153
29183W        W45657   0.262  10.447  11.925 -0.0454  0.1559  0.0842
29184W        W45658  13.834  13.225   2.063 -0.1771 -0.1495  0.1198
29185W        W45659  11.290  13.565   4.115  0.4420 -0.1699  0.2159
29186W        W45660   9.958   6.740  11.826  0.2009  0.1322 -0.1285
29187W        W45661   3.556   1.642  11.110  0.0118 -0.1804  0.2306
29188W        W45662   5.389   8.464  15.589  0.1950  0.0583 -0.1322
29189W        W45663   1.365   3.136   0.958 -0.0834 -0.1159  0.2676
29190W        W45664  17.641  17.987  12.375  0.1489  0.0477 -0.3344
29191W        W45665  13.573   7.691   1.534 -0.2920 -0.0072  0.1266
29192W        W45666   7.104   3.448  12.104  0.0050  0.0268  0.0497
29193W        W45667   8.408  11.204  14.326 -0.0217 -0.0257  0.1500
29194W        W45668   1.772   3.895   0.202  0.5155  0.1464 -0.1265
29195W        W45669   1.321   4.163  11.107 -0.1833 -0.3551 -0.0134
29196W        W45670  10.575   7.076   1.380 -0.7366 -0.0715 -0.0623
29197W        W45671   9.614   3.933   3.947  0.0685 -0.0798 -0.1680
29198W        W45672   4.880  14.825   2.721  0.3947  0.1130 -0.1539
29199W        W45673  13.852   5.792  13.414  0.1682 -0.0532 -0.2685
29200W        W45674  15.284   9.336  14.735 -0.2714  0.2771  0.1563
29201W        W45675  10.185  18.679  12.148  0.0055  0.1145  0.1892
29202W        W45676  14.280   1.158  15.128  0.1710  0.1602  0.1127
29203W        W45677   8.958  17.849  13.400 -0.0209  0.0063  0.0546
29204W        W45678   4.012   0.382  11.010 -0.3806  0.0368 -0.2078
29205W        W45679  13.847   3.950   4.115  0.1365  0.0308 -0.0681
29206W        W45680   5.536   7.884   4.162  0.4577  0.2160  0.1685
29207W        W45681   7.463   7.579  12.174 -0.1707  0.4169 -0.3709
29208W        W45682  11.321   3.249   1.597 -0.0624  0.1527  0.0494
29209W        W45683   9.256  16.972   0.936 -0.2307  0.1915 -0.0193
29210W        W45684   3.226   5.180   1.084 -0.0060 -0.2882 -0.0470
29211W        W45685   5.126  18.579   3.436  0.0167 -0.1785 -0.0079
29212W        W45686  14.515  13.324  14.495 -0.0884  0.1977  0.0724
29213W        W45687   9.535  16.410   2.364 -0.0369 -0.0097 -0.1596
29214W        W45688   0.005  13.496   2.014  0.0987 -0.3178  0.0323
29215W        W45689  14.627   0.967  15.474 -0.0455 -0.0511 -0.0159
29216W        W45690   4.623  10.670   0.375  0.1735  0.3364  0.3812
29217W        W45691  17.878   6.767  14.595  0.2597 -0.0206 -0.0210
29218W        W45692  16.941  13.233   5.628 -0.0973 -0.1455 -0.0734
29219W        W45693   9.207   8.505  13.363  0.3243 -0.1631 -0.0635
29220W        W45694   9.998  13.480   3.439 -0.0320 -0.0268 -0.0429
29221W        W45695   7.283  10.978  15.592 -0.0793 -0.0778  0.1066
29222W        W45696   7.394  14.006  11.186  0.0083 -0.1361 -0.1289
29223W        W45697  15.549   1.303  11.577 -0.1920  0.0440 -0.2037
29224W        W45698   1.212  15.085   3.097  0.0296 -0.0773 -0.3424
29225W        W45699   4.420  15.443   5.236  0.0262 -0.3502 -0.0467
29226W        W45700   9.854  18.124   1.912  0.0581  0.0606 -0.3427
29227W        W45701   2.419  11.151  13.315  0.4993 -0.3256  0.2501
29228W        W45702  12.705  15.638   3.186 -0.3066  0.1370 -0.1482
29229W        W45703  14.256  18.365   3.247 -0.1420 -0.2600 -0.2035
29230W        W45704  14.626   7.830   3.650  0.1176  0.0639  0.1666
29231W        W45705   4.423   5.894   1.159 -0.1699  0.1980  0.1400
29232W        W45706  16.873  14.695  12.033 -0.1587 -0.0134  0.2698
29233W        W45707  11.739   2.144  12.615  0.1174 -0.4413 -0.1441
29234W        W45708  11.428   3.092  12.705 -0.2095 -0.5738  0.3782
29235W        W45709   6.407   4.011   4.239 -0.0291  0.0806 -0.0787
29236W        W45710   1.052   8.028   1.603  0.2284 -0.3564 -0.0964
29237W        W45711   1.747   7.906   4.655 -0.2143  0.0298 -0.3079
29238W        W45712   1.547   9.843  11.225 -0.0328 -0.1070 -0.3377
29239W        W45713  12.694  16.593  11.612  0.1804 -0.0601 -0.1738
29240W        W45714   8.515   2.501  10.948 -0.2838  0.2412  0.0579
29241W        W45715  14.143   3.931   0.461  0.0317 -0.2070 -0.0359
29242W        W45716  16.832  16.289   0.599 -0.0120  0.1307  0.0805
29243W        W45717   0.482  10.416   1.395  0.1457 -0.5039 -0.1974
29244W        W45718   6.305   4.246   3.092  0.2106  0.1239  0.0903
29245W        W45719  11.422   5.914   5.730  0.2544  0.0777  0.0627
29246W        W45720  11.441   8.934   5.558  0.0971 -0.3618 -0.2004
29247W        W45721   7.216   0.286  12.668  0.0998 -0.0042  0.1211
29248W        W45722  11.094   1.306   0.397  0.2358 -0.2128 -0.0339
29249W        W45723  16.700   7.522  11.377  0.1076 -0.2384 -0.0835
29250W        W45724   0.244   9.041  14.243 -0.1010  0.1045  0.1144
29251W        W45725   4.726  14.874   6.086  0.1773 -0.0084  0.0139
29252W        W45726   4.882   5.255   1.898  0.0597 -0.4168 -0.0011
29253W        W45727  15.573   7.558  14.692 -0.2768  0.0883 -0.2967
29254W        W45728  14.058  14.332   1.272  0.3740  0.0767  0.2591
29255W        W45729  11.054   3.826  13.366  0.0647 -0.0167 -0.0122
29256W        W45730   4.439   7.289  12.466  0.2529 -0.1302  0.0698
29257W        W45731   8.886  10.456  13.080  0.2875 -0.0267  0.0659
29258W        W45732  17.022   9.615   3.852  0.2514 -0.1667 -0.2760
29259W        W45733   2.815  11.224  13.670  0.3398 -0.0724 -0.0640
29260W        W45734   0.672  17.490   0.276  0.1727  0.0901 -0.1738
29261W        W45735  10.813  14.549  12.470  0.0216  0.0949  0.0029
29262W        W45736   5.708   6.835   0.393 -0.0468 -0.0918 -0.1655
29263W        W45737   6.847   8.533  14.704 -0.0177 -0.0088 -0.1050
29264W        W45738  15.394   9.207   1.333 -0.1899  0.0742  0.3315
29265W        W45739  12.752  18.130  14.378  0.1913 -0.2376 -0.1640
29266W        W45740   7.317  11.833   0.007 -0.0548  0.1831 -0.0396
29267W        W45741   1.349  14.216  13.444 -0.1773  0.1831 -0.1781
29268W        W45742   8.557   3.135  13.656  0.1292 -0.0704  0.0574
29269W        W45743   9.668   9.144   0.148  0.0789  0.1058 -0.0032
29270W        W45744   0.594  17.107   2.651  0.2247 -0.2318 -0.0176
29271W        W45745  15.215   2.467  11.664  0.0088  0.1438  0.0379
29272W        W45746   9.781   7.442   1.429  0.3273  0.1722 -0.0835
29273W        W45747   7.784   9.926  14.916  0.0637 -0.2359  0.3207
29274W        W45748  14.017  13.134   1.598  0.1648  0.0360  0.1286
29275W        W45749   9.603  17.937  11.270 -0.0135 -0.1097 -0.3044
29276W        W45750  14.932  11.218   0.730  0.0320 -0.0327  0.2718
29277W        W45751   9.405  13.958   4.373 -0.0251  0.2844 -0.0703
29278W        W45752  11.109   0.311  12.351  0.2811 -0.3682 -0.1362
29279W        W45753   6.988   4.977  14.563  0.1114 -0.0032 -0.0529
29280W        W45754   7.711  13.464   2.118  0.0455  0.1730  0.1378
29281W        W45755   8.741  10.338  12.392  0.0932 -0.3468  0.1375
29282W        W45756   4.360  15.742  12.190  0.3246 -0.0549  0.1526
29283W        W45757   6.925   6.451   1.581 -0.1169 -0.0910 -0.0290
29284W        W45758   1.061   1.277  14.692  0.2138  0.0802 -0.2217
29285W        W45759   2.470   3.845  11.693  0.2211 -0.0089  0.0690
29286W        W45760  14.172   9.323  13.426  0.3103 -0.0215 -0.0280
29287W        W45761   1.084  18.163  15.349  0.3240 -0.0141 -0.0962
29288W        W45762  16.754   0.619   4.194  0.0026  0.2628 -0.1129
29289W        W45763   2.848   4.685  13.791 -0.0108 -0.0500 -0.0490
29290W        W45764   0.497   0.008   1.782  0.2435  0.1128 -0.2398
29291W        W45765  10.326  11.741   2.218 -0.1450 -0.0161 -0.1480
29292W        W45766   8.088   3.930   3.255 -0.2767  0.1109 -0.1265
29293W        W45767   8.156   3.433   0.919 -0.3658 -0.0808  0.0837
29294W        W45768   1.019  17.163   4.847  0.2002  0.4509  0.2060
29295W        W45769   2.139   2.963   1.408  0.3292  0.1353  0.3853
29296W        W45770  13.999  11.668  11.768 -0.1742 -0.1321  0.0675
29297W        W45771   1.568   1.254   0.574  0.2000  0.0215  0.3629
29298W        W45772   9.193   3.599  13.189 -0.0341  0.0914  0.2749
29299W        W45773   0.750   3.323  11.770 -0.0435 -0.1640  0.2470
29300W        W45774  12.825  16.116  11.814 -0.2256 -0.1799 -0.1161
29301W        W45775   5.563  11.395   0.674 -0.1313 -0.2815 -0.0537
29302W        W45776   9.322   6.129   4.722  0.0121 -0.2295  0.0389
29303W        W45777   3.491  12.636   3.992  0.0054 -0.3672  0.5140
29304W        W45778  10.327  10.336  11.001  0.0860  0.1755 -0.0220
29305W        W45779  17.885   5.792  11.651 -0.0862 -0.1736  0.1820
29306W        W45780  13.980   0.984   1.989  0.0423 -0.0761  0.0838
29307W        W45781   3.743   9.925  14.135 -0.3887  0.3491 -0.0018
29308W        W45782   3.956  18.272  15.282  0.2878 -0.0516  0.1401
29309W        W45783   9.021  11.341   3.361  0.1008  0.1460  0.0007
29310W        W45784   6.461  13.941   0.850  0.0035  0.2427  0.0656
29311W        W45785   8.078  13.188  12.726 -0.2685  0.0622 -0.0910
29312W        W45786  17.495  14.569   3.047  0.3962  0.1400  0.2289
29313W        W45787   1.476  15.149   1.186 -0.3698 -0.1700 -0.0339
29314W        W45788   3.904  17.123  14.792 -0.0733  0.3225 -0.2879
29315W        W45789   4.380   0.502   5.066 -0.1363 -0.0718 -0.0387
29316W        W45790  16.579   7.973  11.657 -0.0169 -0.0528 -0.1583
29317W        W45791   0.701  10.196  14.771 -0.2827 -0.1754 -0.1880
29318W        W45792  15.644  11.369  12.797  0.1497  0.0437  0.0174
29319W        W45793   5.923  10.927  14.164 -0.1632 -0.0919  0.2464
29320W        W45794  11.635   7.637  15.252  0.0683  0.2510  0.2552
29321W        W45795   8.478   1.428   4.257  0.3188  0.0352 -0.0525
29322W        W45796   5.717  16.570   2.599  0.0635  0.0155  0.0382
29323W        W45797   6.422  13.546  13.225  0.0064 -0.3707  0.0909
29324W        W45798   9.325   7.766  11.996  0.2519  0.1636  0.1194
29325W        W45799  18.562   1.874   0.793 -0.0146  0.2356 -0.0784
29326W        W45800  15.082  17.294  10.920  0.0321 -0.0008 -0.1466
29327W        W45801   4.259  16.207  15.083 -0.0680  0.2067 -0.1298
29328W        W45802  13.216   8.844   0.715 -0.0468  0.2612  0.2407
29329W        W45803  18.494   2.489  11.737  0.2730  0.0263  0.2869
29330W        W45804  10.901  16.876  11.005 -0.1193  0.0214 -0.0904
29331W        W45805  17.856   8.052  11.622 -0.1164  0.1057  0.0592
29332W        W45806  12.854   9.800  12.045  0.0910  0.0857 -0.0035
29333W        W45807  13.060   9.386   4.334  0.1031  0.2978 -0.0105
29334W        W45808   4.869   0.203   2.556 -0.4972 -0.1533  0.1005
29335W        W45809   9.140   5.299   4.869 -0.0623 -0.0544 -0.6066
29336W        W45810   7.067   6.560  14.406 -0.1828 -0.2739  0.0985
29337W        W45811  17.828   3.045  13.844 -0.0173 -0.1446 -0.2900
29338W        W45812  12.430   5.174  15.555 -0.0294 -0.0816  0.0277
29339W        W45813   8.517  10.174   4.636  0.0432 -0.1559  0.0218
29340W        W45814   5.877  15.406  12.278  0.3282 -0.4358 -0.2238
29341W        W45815   2.433  17.624   5.521 -0.0377  0.1130 -0.1256
29342W        W45816  11.624  12.283  13.872  0.0157  0.1904 -0.0531
29343W        W45817   2.690  16.636   1.103  0.3897  0.1530 -0.0210
29344W        W45818   4.316  13.517   2.448  0.2783 -0.1967 -0.0870
29345W        W45819  18.045   9.412  12.760  0.3214 -0.0559  0.1918
29346W        W45820  15.960   1.258  12.955 -0.1068 -0.2512 -0.0259
29347W        W45821   7.166   7.831   3.139  0.0563 -0.1788  0.1303
29348W        W45822   6.779   6.944   1.525 -0.3386  0.3120 -0.0638
29349W        W45823  17.814  15.659   3.533  0.2935  0.2485  0.2352
29350W        W45824   8.294   0.040   2.336 -0.0302  0.0895  0.1584
29351W        W45825  12.975  17.823   2.181  0.0194 -0.2597 -0.0690
29352W        W45826   3.942  16.724   2.222 -0.2723  0.0831 -0.3091
29353W        W45827  18.079   1.624   4.622 -0.0423 -0.1677 -0.0262
29354W        W45828  18.545   5.240  15.661 -0.1746 -0.2236  0.2026
29355W        W45829   3.662  18.662  15.476 -0.2681  0.1670 -0.1374
29356W        W45830  18.432  15.418   0.310  0.0024  0.1768 -0.1320
29357W        W45831  13.251  13.795   4.095 -0.3088 -0.2506 -0.0905
29358W        W45832  13.004   5.146  14.245  0.0165  0.0174  0.2150
29359W        W45833   9.185  12.457  10.148  0.2036  0.1511  0.1977
29360W        W45834  15.069   4.614   1.489 -0.0158 -0.0911 -0.1257
29361W        W45835  14.245  18.098   0.264  0.2459 -0.0441  0.0542
29362W        W45836  18.267  14.140  11.745  0.1348 -0.1311  0.1973
29363W        W45837   4.982  14.189  15.024  0.1044 -0.1922 -0.0795
29364W        W45838   0.684   2.208   5.647 -0.2113 -0.4648  0.1813
29365W        W45839   2.080  14.529   1.428 -0.1772  0.0381  0.3674
29366W        W45840   2.099   7.570  14.497  0.1047  0.0421 -0.2692
29367W        W45841   8.032  13.511   1.381  0.2106 -0.1252  0.2765
29368W        W45842   1.766  13.745   0.743  0.3150  0.0618 -0.0741
29369W        W45843  10.179   1.456  12.154  0.0114 -0.0056  0.3484
29370W        W45844   5.682   6.640  12.579 -0.1122 -0.0139  0.2141
29371W        W45845   6.859   8.825  11.972 -0.0966 -0.1528 -0.2400
29372W        W45846   8.670  10.421   5.038  0.2270  0.1394 -0.0416
29373W        W45847   2.754  15.980   2.018 -0.1720  0.2310 -0.0395
29374W        W45848  17.396   4.365  10.454 -0.1063  0.2268  0.1890
29375W        W45849   8.536  14.045  12.654  0.2520 -0.2918 -0.0657
29376W        W45850  18.360   8.981  13.462 -0.0295 -0.0457 -0.2734
29377W        W45851   7.785   4.941   4.681  0.0675  0.0638 -0.1345
29378W        W45852  13.693  10.502   1.323  0.6455  0.1101 -0.2938
29379W        W45853   3.724   2.188  11.883  0.1444 -0.0996 -0.0033
29380W        W45854   8.206   4.677  10.846 -0.0281  0.0906 -0.0894
29381W        W45855   9.021   5.760   5.650  0.1446 -0.1629 -0.0882
29382W        W45856  15.634  17.934  11.092  0.1485 -0.0338 -0.2239
29383W        W45857  10.956   3.037  14.025 -0.0890 -0.3287  0.1577
29384W        W45858  16.576  14.410  12.735 -0.2763 -0.0627 -0.1151
29385W        W45859  14.166  13.233   3.200  0.3732 -0.1059 -0.1259
29386W        W45860  13.230  13.715   0.446 -0.2283 -0.1608  0.1814
29387W        W45861  16.261   6.742   2.751 -0.1844  0.2509  0.1099
29388W        W45862  14.777   4.434  15.264  0.0988  0.0225  0.1491
29389W        W45863   5.610   5.183   2.338  0.3116  0.2762 -0.1358
29390W        W45864  11.753  13.768  13.139 -0.1415  0.3790 -0.0478
29391W        W45865   2.889  15.540  11.258 -0.2203  0.1042  0.1379
29392W        W45866   6.576  12.154   4.401  0.2163 -0.0549 -0.1394
29393W        W45867  12.609  18.113  12.631  0.0099  0.3415 -0.0262
29394W        W45868  18.807   3.761  10.531 -0.1900  0.2445  0.0690
29395W        W45869   7.341   4.600  14.590 -0.2244 -0.0082  0.0469
29396W        W45870   4.350   6.522   3.972 -0.1442 -0.0357  0.1635
29397W        W45871  10.815   8.486  12.036 -0.2771 -0.2336  0.1210
29398W        W45872  14.372  15.125  13.028 -0.1399 -0.0606  0.1122
29399W        W45873  12.351   7.240   1.186 -0.5125 -0.2890  0.4421
29400W        W45874  18.189  15.321  14.110  0.2558  0.0885  0.1125
29401W        W45875   8.744   6.209   0.004  0.1590  0.2882 -0.0914
29402W        W45876   4.874   0.857   2.693 -0.1412  0.2393  0.1803
29403W        W45877   1.142   7.480  12.445  0.1441  0.0705  0.1684
29404W        W45878  13.728  10.684   2.654 -0.4056 -0.0191 -0.0690
29405W        W45879  15.643  11.987   4.052  0.0770 -0.1454 -0.1022
29406W        W45880   8.686  14.071   1.030 -0.0027 -0.0166 -0.2377
29407W        W45881   7.684   0.734  11.806 -0.2272  0.1316  0.1178
29408W        W45882   8.732   3.866   4.550 -0.1745  0.2163  0.0033
29409W        W45883   9.790  10.553  11.347 -0.1816  0.3810  0.0475
29410W        W45884  18.308   1.304  15.424  0.3306  0.0840  0.0912
29411W        W45885  13.182   5.661  12.355  0.2596  0.1568 -0.1032
29412W        W45886  15.877   9.264  14.490  0.5225  0.6306  0.0695
29413W        W45887  11.459   1.982  14.840  0.0526 -0.0089  0.0453
29414W        W45888   6.321   6.535  14.882 -0.1946  0.0132 -0.1426
29415W        W45889   2.427   1.970  14.297  0.4118  0.1343 -0.1607
29416W        W45890  11.238  16.272   2.170  0.1175  0.0976  0.2010
29417W        W45891   3.463  13.876  15.228  0.2054 -0.0357  0.1331
29418W        W45892  14.853  15.579  11.373  0.1156  0.0108 -0.0278
29419W        W45893   4.637   6.879  14.223  0.0488  0.2294 -0.0019
29420W        W45894   8.314  15.206  13.150 -0.0603 -0.3196  0.0853
29421W        W45895  16.243   3.623  11.521  0.3195  0.0895  0.2606
29422W        W45896  10.199  18.681  14.043  0.0880  0.0498  0.2241
29423W        W45897   5.364  10.678  13.053 -0.0677  0.0220 -0.3375
29424W        W45898  18.350   1.905  10.495 -0.0798  0.0464  0.1529
29425W        W45899   7.340   5.638   4.928  0.0913  0.2999  0.0542
29426W        W45900  17.950  16.437  15.399  0.1357 -0.0184 -0.0556
29427W        W45901  12.686  17.587  12.829 -0.2716  0.5463 -0.2648
29428W        W45902   7.671   5.375   2.708 -0.2522  0.0986 -0.4050
29429W        W45903  15.807  11.125   1.861  0.0449  0.0541 -0.1380
29430W        W45904   0.284  10.088  10.622 -0.0998  0.3833 -0.2587
29431W        W45905  10.029   7.246  12.610 -0.2996 -0.0378  0.1896
29432W        W45906   9.379   3.274  12.847 -0.0445  0.0580  0.3806
29433W        W45907   7.746  10.259   4.139 -0.2057 -0.1955 -0.1410
29434W        W45908   4.897  12.774   2.924 -0.1359  0.1151 -0.3777
29435W        W45909  18.811   2.872   1.039  0.0656  0.4016  0.0323
29436W        W45910  12.605  11.405  13.557 -0.3663  0.2967  0.0456
29437W        W45911  15.304  11.470  15.644  0.2957 -0.2919  0.1566
29438W        W45912  18.139   1.372  13.479 -0.0856  0.0715  0.0962
29439W        W45913   6.437  15.236   3.877 -0.0410 -0.0147 -0.3096
29440W        W45914  11.750   7.927  12.586 -0.2605  0.2201 -0.0815
29441W        W45915  11.682  17.857   5.168 -0.0852  0.4577 -0.1945
29442W        W45916  14.157  18.557  14.807 -0.1797 -0.1022  0.1980
29443W        W45917   4.089  14.270   4.954 -0.2266  0.0646 -0.2267
29444W        W45918   9.712   5.180  15.535  0.2873  0.0191  0.3584
29445W        W45919  12.100   1.177   2.062 -0.4229  0.3111 -0.2971
29446W        W45920  17.176  16.670  15.142  0.0937  0.1696 -0.1812
29447W        W45921   0.133   9.276   4.813  0.1716 -0.4295 -0.1741
29448W        W45922   9.949  14.510  15.556  0.0588 -0.0662 -0.0233
29449W        W45923  17.754   4.716  14.011 -0.1402  0.0205 -0.0145
29450W        W45924  15.953   9.493  12.664  0.1440  0.0494  0.0873
29451W        W45925   5.769   2.401  13.352 -0.0596 -0.2409  0.0923
29452W        W45926   9.751  14.156  14.538  0.0475  0.1209 -0.1247
29453W        W45927   0.989   2.352  14.816 -0.2321  0.1795  0.0290
29454W        W45928   2.016  18.496  15.339  0.0404 -0.1361 -0.2866
29455W        W45929   6.795  11.386   1.258  0.0723 -0.0217  0.1044
29456W        W45930  14.331   8.275  11.472  0.2760  0.0571  0.0325
29457W        W45931   3.822  12.383  11.320  0.0104  0.1238 -0.0402
29458W        W45932  10.785   1.720  12.898 -0.0953 -0.0355  0.0861
29459W        W45933  12.895  10.640  12.590  0.0015 -0.2320  0.0426
29460W        W45934  15.465   5.393   1.768 -0.0395  0.2373  0.2826
29461W        W45935  14.152   1.402   4.578  0.1142  0.0137 -0.1339
29462W        W45936   4.168   9.664   3.132  0.0612  0.0651 -0.0236
29463W        W45937  11.538   6.559  14.571 -0.0917  0.0471  0.0548
29464W        W45938   8.564  14.896  11.714 -0.1109 -0.0497  0.1373
29465W        W45939   9.834   5.442  12.540  0.5723 -0.1782 -0.0064
29466W        W45940  11.060   3.040   2.744  0.1059  0.1006 -0.0997
29467W        W45941  14.630  14.741   3.987  0.1157 -0.2497 -0.1922
29468W        W45942   7.211  11.128   1.441  0.1963 -0.2745  0.2779
29469W        W45943  16.386   4.664   3.085  0.1417 -0.1405 -0.0005
29470W        W45944   1.141  11.991  15.197 -0.0631  0.0324 -0.0497
29471W        W45945   4.316   6.667  13.870  0.3135 -0.1720 -0.0811
29472W        W45946   5.717  14.517   4.727 -0.2922  0.1077  0.1792
29473W        W45947  11.527   3.715   0.621 -0.0011 -0.0761 -0.4467
29474W        W45948  18.818   5.681  14.171 -0.1687  0.2263 -0.1500
29475W        W45949   4.595  14.126  11.726 -0.0584 -0.1403 -0.2795
29476W        W45950  16.150  12.619   4.518  0.0072  0.2451 -0.0133
29477W        W45951   6.335   3.661   5.487  0.0068 -0.0644 -0.0718
29478W        W45952   6.123   1.260   4.602  0.2243  0.0863 -0.3265
29479W        W45953   8.903   9.977  14.904 -0.1035 -0.3072  0.0395
29480W        W45954  18.121   4.940  11.249  0.0611  0.2604  0.1068
29481W        W45955   0.359   3.745  11.699 -0.3340 -0.1447 -0.0877
29482W        W45956   7.992   7.305   5.128  0.3980 -0.1011 -0.2556
29483W        W45957   6.632  12.342   0.881 -0.3384 -0.0014  0.2269
29484W        W45958  10.359  16.516   5.687 -0.1109  0.0339  0.0564
29485W        W45959  12.033   6.528  10.787  0.2528  0.0423 -0.0416
29486W        W45960  11.035  12.838   2.896  0.0472 -0.0444 -0.1051
29487W        W45961   0.549  15.638   2.308 -0.2096 -0.0732  0.1426
29488W        W45962   2.458  13.213  12.419  0.0853 -0.2033  0.1520
29489W        W45963   5.364   0.159   3.401 -0.0460 -0.0137 -0.0069
29490W        W45964   0.813   1.336  12.552  0.1754 -0.1385  0.3689
29491W        W45965   0.319  10.928   1.516  0.1603 -0.0975  0.0867
29492W        W45966   9.788   2.607   2.772 -0.1547  0.3980 -0.0096
29493W        W45967  15.998   1.210   5.135 -0.1117 -0.1537  0.0273
29494W        W45968   3.350  14.356   4.815 -0.0223  0.1686 -0.1318
29495W        W45969  11.923  18.471  11.217 -0.1245  0.1016 -0.0600
29496W        W45970   8.879   1.698  14.264 -0.4034 -0.2996 -0.0035
29497W        W45971  16.939   4.758  13.913  0.0562 -0.0230  0.0536
29498W        W45972  18.702  16.117  15.443  0.1406 -0.2730 -0.1774
29499W        W45973   5.051   5.077   2.564  0.0377 -0.2926 -0.0032
29500W        W45974   6.551  18.109  11.258  0.4197  0.1812  0.2564
29501W        W45975  12.698  18.781  15.073 -0.3172  0.0043 -0.0731
29502W        W45976   3.368   4.813  14.162 -0.2294  0.1539 -0.0318
29503W        W45977   4.900   6.571  15.485 -0.1017 -0.1917 -0.2324
29504W        W45978  13.374   0.305  15.210 -0.2757 -0.1416  0.0694
29505W        W45979  15.243  17.303   0.402 -0.1933  0.1188  0.0858
29506W        W45980  17.513  14.074   4.134 -0.0999 -0.0099 -0.0123
29507W        W45981  10.743   0.411  11.502  0.1855  0.0725 -0.0112
29508W        W45982   6.648   9.018  10.984 -0.3534  0.1533 -0.4619
29509W        W45983  10.625  18.201   4.461  0.2281 -0.1833  0.1259
29510W        W45984  14.241  13.454   2.148  0.3080  0.3857 -0.1555
29511W        W45985   7.970   5.402  15.305 -0.1175  0.1249 -0.0612
29512W        W45986  11.787   2.497   2.202 -0.1188  0.0323 -0.0489
29513W        W45987  16.183   4.788  10.611  0.2193 -0.0559  0.0139
29514W        W45988  13.270  18.809   1.698 -0.1440  0.5701  0.0806
29515W        W45989   2.502  10.453  15.401 -0.0050  0.1584  0.0293
29516W        W45990  16.213   9.801   4.683 -0.0589  0.0737 -0.0879
29517W        W45991   6.014  16.799  14.289  0.1744 -0.1945  0.2885
29518W        W45992  17.914   2.158  12.391 -0.0547 -0.1287 -0.1882
29519W        W45993  18.383   1.410   1.145 -0.0818  0.1926  0.3530
29520W        W45994   9.353  13.853   1.099 -0.1072 -0.0195 -0.1655
29521W        W45995   8.709  17.419   3.602 -0.0053 -0.0168  0.2685
29522W        W45996   5.802  14.532   2.152  0.0631 -0.1190 -0.2457
29523W        W45997   4.208  13.274   5.874  0.1888  0.0651 -0.0553
29524W        W45998   8.500  16.738  14.570  0.3076  0.1957 -0.0229
29525W        W45999   6.787  16.023  15.375 -0.0363 -0.2386 -0.0250
29526W        W46000   5.373   1.527   0.884 -0.0623 -0.1763 -0.1672
29527W        W46001  14.366  18.728  11.518  0.2344  0.0268 -0.2782
29528W        W46002   8.947   1.901   1.247  0.1029  0.0480  0.1354
29529W        W46003   5.173   5.474  12.099  0.1645  0.0926 -0.2035
29530W        W46004  11.189   3.203  12.279 -0.0789  0.1963  0.0214
29531W        W46005  12.448   3.472   1.122 -0.2430  0.2245 -0.1685
29532W        W46006   7.218  13.330   3.688  0.3843 -0.0940 -0.1709
29533W        W46007   0.795  15.501   1.772 -0.2162 -0.0145  0.1023
29534W        W46008  14.928   7.358   2.797  0.6080 -0.0995 -0.0902
29535W        W46009   4.641  17.674  12.229 -0.0595 -0.0505 -0.1974
29536W        W46010   3.588  13.765   5.414  0.1466  0.1853  0.0786
29537W        W46011   2.791   9.308  11.534 -0.2333  0.1021  0.0117
29538W        W46012  15.383   6.928  13.764 -0.1807 -0.0203  0.2491
29539W        W46013   8.325  17.880  14.779  0.0559  0.2730  0.0368
29540W        W46014  12.635  12.006  13.139  0.2242 -0.3212 -0.0381
29541W        W46015  11.814  12.750   4.413 -0.0786 -0.1858 -0.0239
29542W        W46016   1.283   8.904  13.156 -0.2299 -0.1106 -0.1111
29543W        W46017   2.953   0.084   4.974 -0.0948  0.5604 -0.0737
29544W        W46018   5.600  10.445   3.227 -0.1735  0.0407 -0.1601
29545W        W46019   5.131  13.019   1.519 -0.4107 -0.0479  0.0144
29546W        W46020   0.987   6.949   3.754 -0.0960  0.5093 -0.0924
29547W        W46021  10.178  14.403  14.645 -0.1803 -0.2816 -0.0703
29548W        W46022   0.710  12.357  15.003 -0.0264  0.4929 -0.3161
29549W        W46023   5.293   0.360   2.876  0.0224  0.0292  0.0573
29550W        W46024   9.072   5.973   4.211  0.0875  0.2437 -0.1851
29551W        W46025  15.423  10.237   3.007 -0.0909 -0.2471 -0.2671
29552W        W46026   5.086  15.026  15.166 -0.0592 -0.1346 -0.5156
29553W        W46027   4.275   8.339   5.360  0.1338  0.0634  0.0188
29554W        W46028  11.414   1.389  13.700  0.0798  0.1722 -0.1024
29555W        W46029   6.472   8.103  12.966 -0.0975  0.1375 -0.1559
29556W        W46030   8.835   7.385   6.324  0.0340 -0.0541  0.1926
29557W        W46031  12.303  16.493   3.841 -0.2278  0.0977 -0.0490
29558W        W46032  17.213   1.810   2.643 -0.0540  0.0472 -0.0346
29559W        W46033   8.544   1.198   3.799  0.0730  0.0356 -0.0322
29560W        W46034  14.601  10.598  15.670  0.3393  0.0908  0.1042
29561W        W46035   3.106   2.220   3.979  0.6219 -0.0318  0.2887
29562W        W46036  10.494  16.979   4.802  0.0772 -0.2094  0.2812
29563W        W46037  17.167   9.015  12.628 -0.0590 -0.2021 -0.2145
29564W        W46038   9.031   2.772   1.175 -0.0129 -0.1280 -0.1025
29565W        W46039  17.435   0.402  12.370  0.0353 -0.0400  0.0146
29566W        W46040   8.222   7.656  14.461  0.0122 -0.2164 -0.0006
29567W        W46041  13.601   5.656   1.590 -0.1166  0.1712 -0.2998
29568W        W46042   2.155   5.889  14.201  0.2941  0.1592 -0.0449
29569W        W46043   4.725  13.079  15.687 -0.0171 -0.0756  0.1610
29570W        W46044  12.250   9.509   5.732 -0.2848  0.0789  0.1477
29571W        W46045   4.170   7.374  12.911 -0.0801  0.2709 -0.2351
29572W        W46046   6.807   5.178  15.447  0.1321  0.1465 -0.2381
29573W        W46047   1.169   5.203   3.884  0.1342  0.0605  0.3636
29574W        W46048  10.046   7.959  13.833 -0.2932  0.1343 -0.2180
29575W        W46049   6.594  15.467  11.770  0.0925 -0.0502  0.3029
29576W        W46050  18.290   8.555   4.735 -0.2331  0.1448  0.1515
29577W        W46051   4.900  15.546   5.646  0.1312  0.1741  0.0898
29578W        W46052  16.590  18.022  11.545 -0.0982 -0.1206 -0.0643
29579W        W46053  10.525   6.458  15.261  0.1728 -0.1836  0.0419
29580W        W46054  17.167  10.961  14.365 -0.0984 -0.0150  0.1704
29581W        W46055   1.535   2.111   3.868  0.0388 -0.0297  0.2115
29582W        W46056   3.012   4.790  15.431 -0.0713  0.0689  0.5148
29583W        W46057  14.803  10.126   4.205 -0.3740 -0.0708 -0.3245
29584W        W46058  17.722   9.818  12.121  0.2061 -0.2058 -0.3203
29585W        W46059  15.885  14.384  10.573  0.1549  0.0647 -0.3014
29586W        W46060   2.794   9.299   1.739 -0.0678  0.1572  0.0142
29587W        W46061  13.198  18.283  11.108  0.0573 -0.2192 -0.3976
29588W        W46062   5.949  10.307   5.573  0.3020  0.0927 -0.0891
29589W        W46063   3.590  18.824   4.259  0.3568  0.0885  0.1141
29590W        W46064  12.801  17.183  13.585 -0.1777  0.0824 -0.3089
29591W        W46065   6.419  11.753   3.948  0.2811  0.0395 -0.1063
29592W        W46066  16.863   3.632  13.200  0.1073  0.0722  0.0645
29593W        W46067  18.727  11.393   2.049  0.0780 -0.1880  0.1146
29594W        W46068   0.663   9.737  13.168  0.0177  0.0500  0.0328
29595W        W46069   1.619  16.460   3.803  0.2430 -0.0625  0.3116
29596W        W46070  13.981   9.730   5.030  0.2353  0.0409  0.2654
29597W        W46071   0.419  17.560  15.446  0.0790 -0.1793  0.2483
29598W        W46072  13.451  12.498  10.924  0.0628  0.2002  0.0673
29599W        W46073   8.533  18.578  13.318 -0.4100  0.4015  0.3855
29600W        W46074  17.593   6.501  10.654  0.2407 -0.0072 -0.1733
29601W        W46075  17.684   4.501  12.965  0.0538  0.1172  0.1204
29602W        W46076  14.276   7.372  11.372  0.1416  0.0990 -0.0641
29603W        W46077  16.738   9.280  10.730  0.0953 -0.0799  0.0832
29604W        W46078  13.542   2.473   1.076  0.0921  0.2702  0.0921
29605W        W46079   9.452   2.712  11.556  0.0487  0.3041  0.0419
29606W        W46080   5.397  13.253  12.387 -0.2363  0.2201 -0.0230
29607W        W46081   2.505   1.464  11.520  0.0484  0.3063  0.0035
29608W        W46082  14.071   1.504  10.737  0.0351 -0.0656  0.2608
29609W        W46083   7.679  16.497  12.123  0.1507  0.0305 -0.0111
29610W        W46084  10.759  11.398  14.415  0.1288  0.1935 -0.0310
29611W        W46085  15.537  14.161   4.576 -0.1985 -0.0900  0.0001
29612W        W46086  13.893   3.607  15.058 -0.3392 -0.2429  0.2466
29613W        W46087  14.101   1.701  13.359  0.3119  0.1041 -0.3617
29614W        W46088   6.019  18.322   0.538  0.3418 -0.0013 -0.0692
29615W        W46089  16.474  18.123  13.147 -0.1802 -0.1560  0.2585
29616W        W46090  18.327  13.475  12.642  0.0062 -0.0979 -0.2514
29617W        W46091   0.088   5.406   2.963  0.0209  0.3104  0.2488
29618W        W46092  13.840  15.389  14.902  0.2241  0.4092 -0.2259
29619W        W46093  15.860   6.175  14.263  0.2626 -0.1396 -0.2908
29620W        W46094   7.442  18.008   3.910 -0.3633 -0.2453 -0.0792
29621W        W46095  10.673   1.481   1.716 -0.2301  0.2831  0.2992
29622W        W46096   8.061  11.343  15.675  0.1023 -0.0413 -0.0227
29623W        W46097  11.167  13.451   5.824  0.2125  0.0624 -0.1603
29624W        W46098   7.220   1.097   2.494  0.0230  0.3710  0.0989
29625W        W46099   4.800   1.334   2.587 -0.2576 -0.2311 -0.1077
29626W        W46100   8.776   6.223   4.965 -0.2489  0.0105 -0.0380
29627W        W46101   3.542  14.480  12.277  0.0140  0.1428  0.1987
29628W        W46102   5.721   7.301  11.498 -0.1448  0.2353 -0.3547
29629W        W46103  13.271   6.301   4.679  0.2268  0.0379 -0.3463
29630W        W46104  17.915  10.924   4.262 -0.0351 -0.1028 -0.1083
29631W        W46105   6.677  10.287  13.018 -0.0419 -0.0453 -0.1049
29632W        W46106  15.381  17.413  15.072  0.1595 -0.2727 -0.0901
29633W        W46107  18.644  11.237  10.677 -0.0482 -0.0237  0.1540
29634W        W46108  10.615  18.639  13.068  0.2307  0.0339 -0.0475
29635W        W46109  13.516   5.187   1.463 -0.1928  0.0896 -0.0316
29636W        W46110  10.759  16.247   3.029 -0.1117  0.0783 -0.1737
29637W        W46111  17.398   2.641  11.063  0.3581 -0.0653 -0.0329
29638W        W46112  13.827   0.894  15.044 -0.1005  0.1947 -0.1748
29639W        W46113  12.759   1.603  13.263  0.0302  0.0607  0.2158
29640W        W46114   8.594   3.957  15.392  0.3530  0.0230  0.0846
29641W        W46115   7.684   5.422   1.788 -0.1103 -0.0321  0.3214
29642W        W46116   0.384  15.277   0.120 -0.1717 -0.0890  0.0274
29643W        W46117  11.501  11.604   4.359 -0.0266 -0.0703  0.1266
29644W        W46118   5.095   4.245   1.948  0.0931  0.1647 -0.1298
29645W        W46119  11.269  17.091   4.229 -0.1649  0.0103  0.0108
29646W        W46120  13.404   9.987   5.142  0.2984  0.2440  0.1334
29647W        W46121  17.586   5.432   1.126  0.0349 -0.2348  0.0988
29648W        W46122  17.972  18.739  10.593  0.1233 -0.0155  0.3519
29649W        W46123  14.106  10.837   1.051 -0.1403 -0.0474  0.4050
29650W        W46124  10.015   8.913  10.757  0.1773 -0.1860 -0.1015
29651W        W46125   7.770   5.954   0.370 -0.1736  0.0290 -0.2042
29652W        W46126  16.378  11.204  13.825 -0.3124 -0.2543  0.0552
29653W        W46127   3.795  14.634   0.974 -0.0114 -0.0464 -0.3653
29654W        W46128   0.990  18.785   1.868  0.2253 -0.0660  0.1472
29655W        W46129   4.655  13.728  12.711  0.2228  0.1295  0.0366
29656W        W46130   4.620   7.528   1.631  0.1781 -0.2286  0.3474
29657W        W46131   3.367   5.491   0.011  0.1883  0.2223 -0.2629
29658W        W46132   1.502   7.591   3.713  0.0449 -0.0993 -0.0419
29659W        W46133   0.619   2.668  10.056 -0.0431 -0.1894  0.3105
29660W        W46134   3.904   5.699   4.552 -0.1443 -0.1600 -0.0827
29661W        W46135  14.578  16.980   2.949  0.2569  0.2618  0.1179
29662W        W46136  11.660  14.718   1.420  0.2338 -0.1180  0.2858
29663W        W46137   3.734   4.230  14.131 -0.0377  0.2100  0.1126
29664W        W46138   6.986   1.060   0.296  0.0849 -0.3126  0.0167
29665W        W46139   5.634   5.449   0.602 -0.2635 -0.4906 -0.2409
29666W        W46140  11.466  12.368  14.663  0.4251 -0.1532  0.0197
29667W        W46141  10.807  18.053  11.893  0.1678  0.4033 -0.0942
29668W        W46142   7.468  15.774   5.248  0.1279  0.1054 -0.1383
29669W        W46143   8.821   9.148  13.746 -0.1874 -0.3320  0.0985
29670W        W46144   7.221  11.378   0.251  0.1469 -0.4454 -0.1424
29671W        W46145  13.505  10.612   3.376 -0.2801  0.2218 -0.0955
29672W        W46146   6.135  16.262  12.781 -0.1666 -0.1369 -0.4019
29673W        W46147  13.802   3.007  14.179  0.3111 -0.2233 -0.2281
29674W        W46148  18.762  15.026   0.325  0.0065 -0.1447  0.1366
29675W        W46149   9.177   7.269  13.622 -0.2111  0.1041 -0.1118
29676W        W46150   4.844  10.013  14.491  0.1252 -0.1138  0.3872
29677W        W46151  12.752  13.962   0.836 -0.0686 -0.0114  0.1857
29678W        W46152  18.492   8.636  12.678  0.2354 -0.1194  0.0213
29679W        W46153  16.554   1.500  11.388 -0.1976 -0.0917  0.1711
29680W        W46154   0.276  17.656   2.013  0.0326  0.0662 -0.0299
29681W        W46155   7.011   8.762  12.598 -0.1542  0.3663  0.0524
29682W        W46156   2.477   5.432   4.145 -0.3288 -0.1433 -0.0001
29683W        W46157  16.943   4.606   0.213 -0.1511 -0.3562  0.0147
29684W        W46158  11.200   6.628  15.648  0.0925  0.2214 -0.1643
29685W        W46159   2.549   7.287  12.578 -0.2342  0.0337 -0.1312
29686W        W46160   0.243   5.249  14.315  0.2989  0.0041 -0.0982
29687W        W46161  17.528   0.446  14.120  0.1250 -0.0955  0.0221
29688W        W46162  17.010   2.307  10.172 -0.1799  0.2148 -0.2246
29689W        W46163  15.540  18.051   5.226  0.0119 -0.3564  0.1184
29690W        W46164  11.631   3.444  12.172  0.1533 -0.0787  0.0642
29691W        W46165  16.291  10.004  14.834 -0.2296  0.2356 -0.0716
29692W        W46166  18.425  15.347  12.991 -0.0354 -0.1473  0.0271
29693W        W46167   5.993  10.864  11.816  0.0171 -0.0531 -0.2314
29694W        W46168   9.592  10.085   2.771 -0.1621  0.1990 -0.1042
29695W        W46169   3.800   9.477   0.604 -0.1203  0.0716 -0.2116
29696W        W46170  18.183   2.593  12.204  0.0022 -0.1888  0.1539
29697W        W46171   9.927   1.174   5.486  0.2097 -0.1746 -0.0183
29698W        W46172  14.800   3.917   3.125 -0.0328 -0.2267  0.2593
29699W        W46173   2.838  13.303   1.760 -0.1662  0.4327  0.1327
29700W        W46174  14.618   2.032  10.029 -0.1900 -0.0458 -0.1667
29701W        W46175  12.934  15.206   3.055  0.3122  0.1077 -0.2159
29702W        W46176   0.325  14.482   3.132 -0.0749 -0.0408 -0.2001
29703W        W46177  14.125  13.160   4.142 -0.0445 -0.2070 -0.3358
29704W        W46178   6.976  13.810   4.611 -0.1978 -0.2517  0.0149
29705W        W46179   8.386   0.043  12.832  0.1235  0.0316  0.0525
29706W        W46180   0.920   4.776   1.245 -0.1650 -0.0216  0.0617
29707W        W46181  13.415   1.357   5.284  0.1000  0.0632  0.1036
29708W        W46182  14.343  12.529  12.768 -0.1519  0.4147  0.1660
29709W        W46183   0.036  15.130  14.036 -0.1358  0.0407 -0.0345
29710W        W46184  13.979   2.246  12.418 -0.3590 -0.0122 -0.1681
29711W        W46185   6.569  13.870  12.171 -0.1633  0.3435  0.1124
29712W        W46186  17.597   3.707  14.835 -0.0811  0.0006  0.2819
29713W        W46187   8.687  11.167   1.558  0.0562 -0.2837  0.2979
29714W        W46188  15.719   6.682  12.410 -0.0315  0.1574  0.2026
29715W        W46189   8.304  13.645  11.937  0.0810 -0.2948 -0.1579
29716W        W46190   1.979  13.484   0.156 -0.2521  0.4435  0.2561
29717W        W46191   0.708  15.734  15.515 -0.1337  0.1449 -0.5318
29718W        W46192  11.488  11.927  14.344 -0.1167 -0.1450 -0.0668
29719W        W46193   6.349   0.279  13.262 -0.2064  0.0965 -0.1022
29720W        W46194  13.270   7.986   0.466  0.1554  0.1905  0.0661
29721W        W46195   4.054  18.130  13.657  0.3970 -0.0987  0.1966
29722W        W46196   0.420   0.989  12.671  0.1840 -0.0303 -0.0261
29723W        W46197  18.845   4.139   4.227 -0.0895 -0.0676  0.2417
29724W        W46198   0.065  17.709   3.804  0.0535  0.3036 -0.0335
29725W        W46199   0.840   9.429  11.208 -0.1826 -0.0884 -0.0216
29726W        W46200   9.240  16.016   5.743  0.0655  0.0619  0.0673
29727W        W46201   9.661   1.360   4.488  0.0806  0.2287  0.1747
29728W        W46202  12.183   3.463  12.068  0.1646  0.1661 -0.0381
29729W        W46203  13.410   9.260   3.880 -0.3938 -0.0835  0.0842
29730W        W46204  12.093  16.290  11.164  0.1023 -0.0498  0.1977
29731W        W46205   2.812  13.132   5.708 -0.1387  0.3129 -0.1618
29732W        W46206   7.141  13.740  12.112 -0.1230 -0.3004  0.1911
29733W        W46207   8.760   7.920   4.415  0.1313 -0.1482  0.0151
29734W        W46208   4.786  17.366  13.895  0.3909  0.1698 -0.3286
29735W        W46209  17.074   3.401  14.979 -0.1021  0.0968 -0.0038
29736W        W46210  17.811   2.088   3.884  0.2343  0.0106  0.2222
29737W        W46211   2.763  15.660  13.926  0.0511 -0.0591 -0.1617
29738W        W46212   3.580  13.488   0.187  0.1017 -0.0311  0.0648
29739W        W46213  16.466   4.440   4.501  0.0783 -0.4694 -0.1147
29740W        W46214   4.799  16.068  14.210  0.0216  0.1531 -0.2273
29741W        W46215  17.624   6.675   1.250  0.1647  0.0730  0.0778
29742W        W46216  13.765   8.445   5.255 -0.2053  0.2793 -0.0222
29743W        W46217   9.195   8.000  14.240 -0.0657  0.1911  0.0520
29744W        W46218  10.456  13.800   2.730 -0.0891 -0.1263  0.1540
29745W        W46219   4.319  16.160   2.972 -0.0155 -0.2735 -0.1566
29746W        W46220  18.703  14.179   3.250  0.1081 -0.0727  0.0712
29747W        W46221  13.837   5.374  11.978  0.0573  0.1515 -0.0687
29748W        W46222  10.603  18.688   2.972 -0.1818  0.0894 -0.1745
29749W        W46223  14.035  16.047   1.009  0.0094  0.2342 -0.4361
29750W        W46224   3.384  17.133  11.067 -0.1047  0.3151 -0.1823
29751W        W46225   0.274   4.828   1.141  0.0717  0.0281 -0.0837
29752W        W46226  16.090   6.700   5.530  0.0667  0.1152 -0.2170
29753W        W46227  18.737  16.623   4.212  0.3905  0.0005  0.2092
29754W        W46228   8.376   1.839  14.409  0.0652  0.0250 -0.0895
29755W        W46229  12.356  11.550  11.153  0.1411 -0.2418 -0.0530
29756W        W46230  13.345   1.103   3.957  0.1747  0.1981  0.0349
29757W        W46231   9.460   3.963   5.823  0.1256 -0.0154  0.1938
29758W        W46232   9.335  16.156  11.469 -0.0004 -0.3230  0.2833
29759W        W46233   4.175   2.065   1.565  0.0370  0.0653  0.4143
29760W        W46234  17.155  12.682  12.993 -0.3187 -0.1186  0.1807
29761W        W46235  14.447   8.449  13.636 -0.0174  0.1782 -0.0704
29762W        W46236   4.574  14.473  14.544 -0.2360 -0.1070  0.1694
29763W        W46237   8.916   3.253   3.114  0.0559 -0.0648  0.0766
29764W        W46238  16.250  18.219   1.722 -0.0191 -0.0467  0.0904
29765W        W46239  11.145  10.672   0.739  0.0218  0.2285 -0.0558
29766W        W46240  16.013   9.876   4.234  0.2038  0.1845 -0.0397
29767W        W46241   1.019   3.752   3.471 -0.2643  0.3269 -0.2099
29768W        W46242   6.156  13.243   2.375  0.2317 -0.0848 -0.1699
29769W        W46243  18.828  14.384  14.936 -0.1634 -0.0692  0.0183
29770W        W46244   2.386   3.812   4.643 -0.1234 -0.0068  0.0984
29771W        W46245  17.236   4.780   4.866  0.4209 -0.0759 -0.2298
29772W        W46246  15.225  14.391   1.941  0.2499 -0.2089 -0.3078
29773W        W46247   4.580  12.924   1.519 -0.1768  0.0669  0.0723
29774W        W46248  14.468   4.659  13.640 -0.2305  0.2059 -0.1573
29775W        W46249  16.149  15.919  15.154 -0.2467  0.1131 -0.1489
29776W        W46250   7.190   8.439  12.957 -0.1827  0.4376  0.1530
29777W        W46251   4.859  14.695  12.394 -0.1310  0.1379 -0.1113
29778W        W46252  12.589  18.705  12.551 -0.0155 -0.1180  0.0349
29779W        W46253   2.106  14.314  10.974  0.1468 -0.0667  0.0279
29780W        W46254  17.923   6.565  10.119 -0.0391  0.2048  0.3315
29781W        W46255  15.826   8.322  13.574  0.0882 -0.3077 -0.2886
29782W        W46256  13.214  10.625   1.050  0.1561  0.0653 -0.1715
29783W        W46257  14.140  14.275  11.841 -0.0331  0.2156  0.0986
29784W        W46258  15.102   5.706   0.801  0.2685  0.4189  0.1462
29785W        W46259  15.746  16.245  15.556 -0.1322  0.2508 -0.0089
29786W        W46260   9.217  13.479  13.728 -0.0685 -0.0446  0.0690
29787W        W46261  12.276   0.585  11.681 -0.1245  0.1889 -0.1110
29788W        W46262  14.533  18.755  14.124 -0.2417  0.1997 -0.1165
29789W        W46263   6.131   4.007  14.150 -0.0309 -0.1855  0.0063
29790W        W46264   4.991   3.891   5.575  0.0760  0.0994 -0.1256
29791W        W46265  11.612   3.397  15.235  0.0351  0.1041  0.0490
29792W        W46266   6.846  15.996  10.711 -0.0079 -0.1223  0.4997
29793W        W46267   4.727   9.122   3.289  0.0100  0.0449  0.1074
29794W        W46268   2.075   8.894  11.387 -0.2769 -0.0404  0.0067
29795W        W46269   0.728   0.764  15.233 -0.0502  0.0126  0.0990
29796W        W46270   6.094   1.813   2.227 -0.2460 -0.1337 -0.0930
29797W        W46271  12.725  16.801   3.729 -0.0707  0.3697  0.3832
29798W        W46272  16.334   0.727   3.379  0.5310 -0.1247  0.2341
29799W        W46273  16.415   1.815   1.542  0.1529  0.0217 -0.2020
29800W        W46274   8.467   3.585   4.947  0.1283  0.1497 -0.1153
29801W        W46275  13.454   2.319  15.644  0.1519 -0.3723 -0.2299
29802W        W46276  11.480   0.852   3.139  0.0314 -0.0285 -0.1197
29803W        W46277  16.546   1.840  15.445  0.0741 -0.1813 -0.1826
29804W        W46278  10.202  13.715   4.832 -0.1201 -0.0613  0.1622
29805W        W46279  12.291  14.232   2.165  0.0632  0.0942 -0.0945
29806W        W46280   8.407   0.914   4.272 -0.0327 -0.1168  0.3547
29807W        W46281   8.049  15.724   1.287  0.2845  0.0536  0.0631
29808W        W46282   8.748   1.624   2.337  0.3596  0.1533 -0.1026
29809W        W46283  15.589   2.792  10.664 -0.0182 -0.1314 -0.0923
29810W        W46284  15.701  13.814   1.061  0.3090 -0.2306 -0.1852
29811W        W46285  11.920  16.731  11.295 -0.3905 -0.2172 -0.0363
29812W        W46286  12.156  18.114   0.519 -0.1716 -0.0368  0.0842
29813W        W46287   3.783  10.204   4.959 -0.0175 -0.1214  0.1986
29814W        W46288   3.927  17.189  12.698 -0.2649  0.1029 -0.0892
29815W        W46289  10.372   9.879  13.759  0.1488 -0.0628  0.2323
29816W        W46290  13.935  18.166  14.332 -0.0778 -0.0868 -0.1208
29817W        W46291  11.482   7.640  11.366  0.0610  0.0460 -0.1054
29818W        W46292   8.578   8.728  14.357  0.1362  0.2265 -0.0228
29819W        W46293   2.571   6.649   0.579 -0.4193 -0.1338  0.0038
29820W        W46294  13.382   8.269   3.891  0.1349 -0.3379  0.0672
29821W        W46295  17.758   1.776  14.759  0.1007 -0.0548 -0.0346
29822W        W46296   3.121   0.585   4.099  0.1631  0.3425 -0.2277
29823W        W46297  16.001   9.245  13.990  0.0933 -0.1228  0.3657
29824W        W46298  10.070   6.478   4.877  0.1785  0.1292  0.0859
29825W        W46299  10.758  13.704   1.380  0.1342 -0.1477  0.0528
29826W        W46300   7.791  14.509   1.718  0.0765 -0.1660 -0.0693
29827W        W46301  14.303  14.658   1.578 -0.1892 -0.0408 -0.0121
29828W        W46302  15.015   7.573   1.193 -0.1295 -0.0697 -0.0706
29829W        W46303  18.396   0.283  10.567 -0.1424 -0.1880 -0.0963
29830W        W46304  12.598  13.129  15.074  0.0324 -0.1841 -0.2482
29831W        W46305  16.581  14.395   2.516  0.1752 -0.2637 -0.0010
29832W        W46306  12.350   2.566  15.013  0.3153 -0.2505  0.2811
29833W        W46307  17.730   7.998   0.699  0.2198 -0.3649 -0.0815
29834W        W46308  10.440  10.687   0.156  0.4779 -0.2757 -0.1909
29835W        W46309   7.208  10.302   3.153  0.0637  0.1505  0.2644
29836W        W46310  17.839   2.133   4.425 -0.1769 -0.0781  0.0140
29837W        W46311  15.142   6.726   5.088  0.1244 -0.0403 -0.1292
29838W        W46312   3.611  10.198   2.797  0.1729 -0.0520 -0.3172
29839W        W46313   6.986  14.810  13.613  0.0190  0.0249 -0.0376
29840W        W46314   4.870   3.942  11.133  0.3874 -0.0622 -0.2227
29841W        W46315  12.822  12.123  12.399 -0.0241  0.1916  0.2915
29842W        W46316   0.499  14.728   3.838 -0.0176 -0.3386 -0.2180
29843W        W46317   5.477  14.069  15.096  0.1227 -0.1042 -0.0567
29844W        W46318   5.982   0.037  11.809  0.0254 -0.0494  0.1576
29845W        W46319  17.221   1.205   4.511 -0.0793 -0.0148 -0.1402
29846W        W46320  18.140   7.279  11.316  0.2122 -0.4259 -0.0251
29847W        W46321   8.558   0.850   2.057 -0.2123 -0.0931  0.2209
29848W        W46322   7.227   4.264   5.794  0.4185  0.1793 -0.0253
29849W        W46323  16.948  13.694  15.137  0.0264  0.0118 -0.2681
29850W        W46324   3.929   1.634   5.025  0.3522 -0.3089 -0.1093
29851W        W46325   9.130   4.036   5.032 -0.0596 -0.2180  0.2262
29852W        W46326   8.086   5.417  13.422  0.0141 -0.1993  0.2821
29853W        W46327   5.518  15.536   0.497 -0.1834  0.0685 -0.0478
29854W        W46328   0.201  11.771  14.652  0.0349 -0.0345 -0.2721
29855W        W46329  17.696   3.387   0.749 -0.1905  0.3162  0.1429
29856W        W46330   2.572  12.918   1.677 -0.0734  0.0154 -0.0590
29857W        W46331  12.693   1.203   4.616 -0.3116 -0.0608  0.2220
29858W        W46332   4.750   7.279  13.180  0.3561 -0.2700 -0.0674
29859W        W46333   5.214  10.964   2.116 -0.0131 -0.1645 -0.0055
29860W        W46334   5.864   7.856  11.394 -0.1297  0.2324 -0.1643
29861W        W46335   6.593   0.820   2.856 -0.0299  0.2173  0.1983
29862W        W46336   0.877  13.528  15.135  0.1804  0.1770  0.0986
29863W        W46337  18.299  11.920   5.561  0.0883  0.1015  0.1478
29864W        W46338   8.966   1.396   1.239  0.0532 -0.5690  0.1303
29865W        W46339   5.896  11.378  11.108 -0.1495 -0.2304 -0.0813
29866W        W46340  17.290   1.851   4.102  0.2150 -0.0542  0.0205
29867W        W46341   5.048   9.532  14.705  0.1301 -0.0634  0.0624
29868W        W46342   1.431   0.755   0.743  0.2349  0.2279  0.1170
29869W        W46343  12.558  11.877   4.749  0.0800  0.2052 -0.1602
29870W        W46344   2.903   4.041  11.959  0.0109  0.1387  0.2352
29871W        W46345  13.474  12.484   3.220 -0.1054 -0.2667 -0.4910
29872W        W46346  18.415   6.888  11.188 -0.0112  0.3870  0.0603
29873W        W46347   3.143   2.443  11.410  0.0915  0.0726 -0.1613
29874W        W46348   0.156   0.771  10.100  0.1309 -0.2407 -0.0564
29875W        W46349   8.778  18.684   2.854  0.3095  0.1363  0.2769
29876W        W46350   4.327   6.629   1.626  0.0267 -0.2017  0.3342
29877W        W46351  12.407   8.564   5.403  0.1315 -0.1307 -0.0483
29878W        W46352  11.405   5.810  15.125  0.2865 -0.1050  0.1693
29879W        W46353   0.980   0.758  13.480  0.2989 -0.1365 -0.2521
29880W        W46354  15.991  13.212  14.919 -0.2004 -0.1571  0.1022
29881W        W46355   6.465   3.184   5.852  0.2298  0.0457  0.0691
29882W        W46356  10.487   2.984  14.304  0.0544 -0.0551 -0.0594
29883W        W46357   7.701   2.183   4.803  0.0974 -0.2126  0.2396
29884W        W46358   3.045   0.378  13.738 -0.0592 -0.0252  0.0900
29885W        W46359  18.707   1.243   2.044  0.6066 -0.0475  0.0593
29886W        W46360   6.152   0.948  11.768  0.3756  0.3297  0.0765
29887W        W46361  11.915   8.161  13.995 -0.3403 -0.1263  0.3349
29888W        W46362   1.553   0.824   2.097  0.3577 -0.1443  0.3466
29889W        W46363  18.152   6.038   0.728  0.0080 -0.0585  0.2553
29890W        W46364   3.699   6.639   3.361  0.1262  0.0001 -0.1168
29891W        W46365  18.742   4.939  10.422  0.0788  0.0598 -0.1285
29892W        W46366   0.705   6.702  15.119  0.0368 -0.1208 -0.1535
29893W        W46367  12.626  16.856   2.962 -0.0663 -0.3681 -0.0641
29894W        W46368   0.007   8.531   1.277 -0.1136  0.1020  0.1485
29895W        W46369   2.462  14.034  12.270 -0.3955 -0.0930 -0.1330
29896W        W46370   4.374  11.195  11.886 -0.1153  0.0293 -0.0848
29897W        W46371   6.227  13.812  15.268  0.0069  0.0754 -0.1128
29898W        W46372   2.226   0.396  12.458 -0.2276 -0.4881 -0.0271
29899W        W46373  18.505   0.620  13.112 -0.5378 -0.1792 -0.1679
29900W        W46374  17.717   9.254   0.380  0.0358 -0.3556 -0.0050
29901W        W46375  13.012  17.635  13.783 -0.1131  0.0550  0.3117
29902W        W46376   2.133  11.361   2.633 -0.1890  0.0980 -0.0936
29903W        W46377   4.216   7.429   1.286 -0.2159 -0.1044 -0.0246
29904W        W46378   7.935   5.466   4.964  0.0788 -0.1346 -0.0295
29905W        W46379   2.592   1.906  15.606 -0.1987  0.1350  0.2683
29906W        W46380   9.875   1.567  13.061 -0.1300 -0.0163 -0.1784
29907W        W46381  15.709   7.073   0.161 -0.1942  0.3545 -0.0639
29908W        W46382  11.450  16.881  11.095 -0.3304 -0.0428  0.4130
29909W        W46383  12.446  16.099  13.347 -0.1697  0.0525  0.2555
29910W        W46384   7.884   0.486   3.692  0.2671 -0.0426  0.0971
29911W        W46385   1.920  12.087  10.381  0.3195 -0.0112  0.0632
29912W        W46386   3.043  10.729   0.064  0.1801 -0.1280 -0.3502
29913W        W46387   9.105   9.593   5.578  0.1483  0.1619  0.1048
29914W        W46388  12.065  12.793   0.328 -0.0814 -0.1862 -0.1625
29915W        W46389  11.344   7.421   0.599 -0.2754  0.1203 -0.3164
29916W        W46390   5.896   1.427  13.766 -0.2434 -0.0941  0.0913
29917W        W46391   4.642  15.023  13.712 -0.2580 -0.0017  0.1931
29918W        W46392   4.747   9.890   2.746  0.0353 -0.0216  0.0384
29919W        W46393  15.677   6.756   2.727 -0.1597 -0.2794 -0.2180
29920W        W46394   6.145   6.972  11.512  0.1667 -0.1213  0.3885
29921W        W46395   0.561   0.836   2.864 -0.2285  0.1833  0.0641
29922W        W46396   1.282   6.797   0.360  0.0131 -0.2618  0.0954
29923W        W46397  13.609  17.189  10.361  0.0355  0.3694 -0.0275
29924W        W46398  14.516   0.549  14.285 -0.0142 -0.1995  0.0119
29925W        W46399   8.417  15.030   3.714 -0.2641  0.0425  0.1510
29926W        W46400  17.815   2.079   3.404  0.2801 -0.1393  0.0943
29927W        W46401   3.234   9.897   2.587 -0.1262  0.2729 -0.2684
29928W        W46402   2.804  17.426   0.513 -0.0415  0.0761  0.3139
29929W        W46403   3.830  18.284  11.439 -0.1270 -0.1314  0.2606
29930W        W46404   9.969   3.098  12.990 -0.0830 -0.1337 -0.1034
29931W        W46405   0.565   3.872  15.058 -0.0879 -0.1210 -0.2087
29932W        W46406   6.844   3.417  14.425 -0.0559 -0.0024 -0.3747
29933W        W46407  18.102   7.581   4.457 -0.2496  0.0176  0.2824
29934W        W46408  15.631   2.817   2.426  0.2271  0.1983  0.1069
29935W        W46409   9.250   2.827   0.192 -0.2454  0.1296  0.4583
29936W        W46410   9.030  11.937  12.696  0.1096  0.2437  0.0305
29937W        W46411   3.051   0.783  13.411  0.4279 -0.2944 -0.0568
29938W        W46412  13.385   4.769   4.774 -0.0549  0.0062  0.2718
29939W        W46413   0.807  12.971   3.285  0.2473 -0.0863 -0.3491
29940W        W46414  13.772  13.566   4.186 -0.0116  0.0334 -0.1538
29941W        W46415   3.403  15.287   0.798  0.4144 -0.1247  0.1311
29942W        W46416  15.630   8.688   0.859 -0.3431 -0.4049  0.0346
29943W        W46417  12.531  16.635  14.283 -0.2514  0.0969  0.0588
29944W        W46418  17.902   5.138   3.053  0.0590  0.0280 -0.0557
29945W        W46419   5.621  11.452   2.184 -0.2075 -0.2147  0.0723
29946W        W46420   4.297   9.100  15.060 -0.1537 -0.0473 -0.0144
29947W        W46421  11.615  18.811   1.278  0.1160 -0.1263 -0.0260
29948W        W46422   3.831  18.759  12.592 -0.1653  0.0782  0.2045
29949W        W46423   5.609   3.328  10.246  0.0001 -0.3503  0.0956
29950W        W46424   2.977  18.064  14.945  0.1035  0.0613  0.1230
29951W        W46425  15.691  12.731   1.154 -0.0283  0.0778  0.0410
29952W        W46426  15.100   0.739  14.573  0.1987  0.0817 -0.1284
29953W        W46427   1.662   8.006   1.677 -0.0409 -0.2254  0.1758
29954W        W46428   0.996   7.224   1.129  0.2191 -0.0501 -0.3901
29955W        W46429  14.256   3.581   4.150  0.2792 -0.0502  0.0826
29956W        W46430  13.357  16.602  12.497 -0.0738  0.0502  0.0347
29957W        W46431   4.693   4.958   1.362  0.0418  0.2477 -0.1307
29958W        W46432  14.401  11.092  13.557  0.0850  0.1678  0.1309
29959W        W46433   7.146   7.749   2.206 -0.0740 -0.0829  0.0345
29960W        W46434   2.739  13.682  15.452 -0.2513 -0.1614 -0.2104
29961W        W46435   1.002   8.514  13.328  0.0311  0.0948  0.2170
29962W        W46436   3.109   2.141   2.419  0.0241  0.1480 -0.3367
29963W        W46437  11.931  18.483  13.619  0.1232  0.2746 -0.3232
29964W        W46438   4.601  18.619   2.225 -0.1114  0.1976 -0.1183
29965W        W46439   1.513   8.318  14.897 -0.4917  0.0135 -0.0068
29966W        W46440  15.261   1.677   0.851 -0.1877 -0.0241  0.0409
29967W        W46441   7.794   7.651   4.603 -0.0117  0.0854 -0.0650
29968W        W46442   3.596  10.860   2.317  0.2769  0.2581 -0.2329
29969W        W46443  15.936   5.795  12.499  0.2587  0.2990 -0.1999
29970W        W46444   0.170   2.824   2.604 -0.0819  0.1199  0.1333
29971W        W46445  10.692   6.570  12.191  0.1476 -0.0772  0.2008
29972W        W46446  13.639  12.272  13.740  0.0542  0.2751  0.1242
29973W        W46447   4.179   1.537  13.182  0.2894  0.1915  0.1163
29974W        W46448   3.372  14.208  12.767 -0.0041  0.2184  0.2415
29975W        W46449  15.997  14.819  10.832 -0.1788 -0.0788 -0.1930
29976W        W46450   6.816   5.656  14.272  0.1156  0.1694  0.2720
29977W        W46451   0.728   6.785  13.746 -0.0308 -0.0911  0.0003
29978W        W46452   6.761   0.623   4.738 -0.0969  0.2244 -0.3276
29979W        W46453   5.822   0.136   0.964 -0.2657  0.0767 -0.0298
29980W        W46454  16.930   4.886  13.120 -0.0905  0.2037  0.1082
29981W        W46455  17.185   9.541   3.301  0.1874  0.0770 -0.0879
29982W        W46456   5.256   7.165   4.949  0.0421  0.0060  0.3009
29983W        W46457  10.416   5.874   0.649 -0.1069 -0.2622 -0.0489
29984W        W46458   0.722   3.441   0.734  0.1799 -0.0662 -0.0789
29985W        W46459   3.252   8.240  10.992  0.0979  0.1354  0.0631
29986W        W46460   6.604  13.655  13.659 -0.0891 -0.1690  0.1107
29987W        W46461  16.531   4.111   0.354 -0.1243 -0.0769 -0.1580
29988W        W46462  15.401   9.954  15.532  0.1510  0.1156 -0.1255
29989W        W46463   8.101   0.667  12.768  0.1124 -0.1769  0.2248
29990W        W46464  12.934   7.145  11.169 -0.0696  0.0669 -0.1066
29991W        W46465  12.013  18.420   2.505  0.2997  0.0786 -0.3579
29992W        W46466  14.777  16.962   4.134  0.4764 -0.1024  0.0513
29993W        W46467   2.618   3.632   2.744  0.0352  0.0053  0.1470
29994W        W46468  16.635   2.677   1.358 -0.0170 -0.0373  0.1208
29995W        W46469  11.579  14.021  14.064 -0.2065  0.0489  0.0604
29996W        W46470  13.624   3.882  13.964 -0.0755  0.2628  0.2263
29997W        W46471  12.534   3.334   2.921 -0.2181  0.2550  0.2100
29998W        W46472   0.111  12.591  11.337 -0.0473  0.0058 -0.1478
29999W        W46473  16.705  17.311  12.030  0.3521  0.0919  0.2436
30000W        W46474  14.235   2.637   1.024  0.1026 -0.0567 -0.2507
30001W        W46475   2.003  17.963  14.989 -0.0483 -0.0014  0.3776
30002W        W46476   4.459   6.863   4.909  0.2695  0.2263 -0.3099
30003W        W46477   0.464   9.149   4.513 -0.0885 -0.0802  0.4839
30004W        W46478   6.145  16.934   1.826 -0.1819  0.0128  0.1175
30005W        W46479   2.265   6.450  11.017 -0.2198  0.1405 -0.0219
30006W        W46480   7.684   4.428  13.910  0.1245 -0.1495  0.0442
30007W        W46481   1.051   1.444   3.602  0.0647  0.0599  0.0388
30008W        W46482   5.293  10.879  11.962  0.0916 -0.2284 -0.1336
30009W        W46483   8.604   8.773   3.880 -0.0485 -0.0301 -0.0415
30010W        W46484   2.806  18.432   3.166 -0.2749  0.3062  0.0660
30011W        W46485   0.446   6.616  14.635 -0.2640 -0.2083 -0.2810
30012W        W46486   6.424   7.736   2.627 -0.0630 -0.3065  0.1769
30013W        W46487   3.456  18.784   2.898  0.0517 -0.0969  0.1700
30014W        W46488   5.497   7.495   1.426 -0.1696 -0.0708  0.1056
30015W        W46489  16.613   4.939  10.978  0.2515  0.0282  0.0881
30016W        W46490  16.263  15.693  14.134 -0.0777  0.2947  0.4086
30017W        W46491   9.271   0.155  12.825  0.0655 -0.1998 -0.0624
30018W        W46492  16.101  17.703   4.391 -0.0054 -0.0114 -0.2484
30019W        W46493  18.455   1.245  13.096 -0.1122 -0.0711 -0.0801
30020W        W46494  11.419   2.045   0.365 -0.1196 -0.0416 -0.0789
30021W        W46495  15.937  14.753  13.789  0.0452 -0.1820 -0.2513
30022W        W46496  10.928  13.989  12.529 -0.0380 -0.2875  0.1623
30023W        W46497   8.956  13.884   1.419 -0.0601  0.0849 -0.2932
30024W        W46498   1.987  11.845   2.026  0.1595  0.3200  0.0214
30025W        W46499   6.188  17.084   3.476  0.3260 -0.2639 -0.0635
30026W        W46500  13.800   5.892  14.718 -0.3408 -0.0194  0.3412
30027W        W46501   4.169   7.468   1.912  0.2897  0.1812  0.0023
30028W        W46502  13.595   3.485  12.055  0.1384 -0.0100  0.2172
30029W        W46503   3.915  15.577   5.171 -0.3936  0.0904 -0.1617
30030W        W46504   2.158  11.510  11.128 -0.1222 -0.1508  0.0709
30031W        W46505   4.020  12.723   0.668  0.1467  0.0862  0.0123
30032W        W46506  14.982   4.428   2.096  0.4236  0.2549  0.3721
30033W        W46507   4.714  12.159  15.487 -0.3422 -0.2425  0.1534
30034W        W46508  11.253  10.372  11.690 -0.1850 -0.1959  0.3819
30035W        W46509  18.463   2.854  13.083 -0.2025 -0.2349  0.1568
30036W        W46510   1.461  15.101   2.047  0.3465  0.0111 -0.1335
30037W        W46511  12.479  13.607  13.833 -0.4207 -0.1341  0.1504
30038W        W46512   3.835  16.159  11.077 -0.0224 -0.0571  0.1531
30039W        W46513  14.251  10.028   1.434 -0.1818 -0.0806  0.4103
30040W        W46514  14.998   4.844   5.104 -0.1779  0.1558 -0.2061
30041W        W46515   8.259  12.864  15.354  0.0963  0.0911 -0.1425
30042W        W46516  16.362  15.337   1.795  0.1831 -0.1734 -0.2717
30043W        W46517  12.205   9.674   0.095  0.2910 -0.2501 -0.0988
30044W        W46518   0.342  11.584   4.286  0.2330 -0.2228 -0.0900
30045W        W46519   5.315   1.042   0.938  0.3120 -0.2055 -0.0985
30046W        W46520  10.744  16.225   0.857  0.0236  0.1848 -0.1080
30047W        W46521  10.138   9.884   0.470  0.0527  0.0665 -0.0258
30048W        W46522   6.032  12.385  14.487 -0.2100 -0.0607 -0.3309
30049W        W46523  12.424   9.387   0.487 -0.0299 -0.5158 -0.1455
30050W        W46524  12.851   4.281  11.387  0.1233 -0.1971 -0.0350
30051W        W46525  18.725   2.411   1.557 -0.0819 -0.1751 -0.0886
30052W        W46526  12.925   5.087   4.969  0.0876  0.0044 -0.2467
30053W        W46527  11.483   8.869   4.053  0.0316  0.1124 -0.2242
30054W        W46528   2.469  13.404   3.382  0.0580  0.2182  0.0618
30055W        W46529   8.994  14.712  11.912 -0.1056  0.0876 -0.0251
30056W        W46530   5.638  16.362   4.502  0.1276 -0.2055 -0.0617
30057W        W46531  15.953   7.191   1.531  0.2032  0.1192  0.1048
30058W        W46532   9.660   0.873  14.263 -0.2788  0.0180  0.0776
30059W        W46533   1.045  16.240  11.686 -0.2113 -0.1484  0.1203
30060W        W46534  10.449   8.007   4.454  0.1418  0.1008  0.2516
30061W        W46535   7.254   6.390   4.368 -0.0113 -0.0721 -0.0401
30062W        W46536  13.196  17.558  11.652 -0.0706  0.0983 -0.1263
30063W        W46537   5.582   5.336   3.555 -0.0209 -0.0580  0.1913
30064W        W46538  15.402  13.273   1.526 -0.2573  0.0205  0.0158
30065W        W46539  14.035   9.725  15.228 -0.3817  0.0466  0.2183
30066W        W46540  11.722  13.542  14.988 -0.0753  0.0958 -0.3537
30067W        W46541  16.747  16.943   2.999 -0.4677 -0.0012  0.0055
30068W        W46542  10.508   2.862  11.602 -0.1862  0.1810 -0.1046
30069W        W46543  10.961   4.627  11.001  0.0722  0.1183  0.0233
30070W        W46544   4.749  12.142  13.782  0.1216  0.0614  0.0976
30071W        W46545  14.113   8.676  12.795  0.0480 -0.1996  0.0075
30072W        W46546   6.460  18.618  11.580  0.1512  0.3832 -0.1236
30073W        W46547   8.382   8.947  13.132  0.0293 -0.0702  0.0487
30074W        W46548  10.020   5.715  15.369  0.0259  0.0857  0.0374
30075W        W46549   0.956   0.102   5.029 -0.0522 -0.0001  0.0770
30076W        W46550   3.840   7.979  14.719 -0.0833 -0.1620  0.0741
30077W        W46551   9.600   7.022  13.779 -0.0864  0.0450 -0.2138
30078W        W46552   0.742   1.913   0.646 -0.1132  0.1324 -0.0781
30079W        W46553  11.098   9.036   3.723  0.0852  0.0708 -0.2269
30080W        W46554  17.685   2.096  11.421 -0.0252 -0.3514  0.0652
30081W        W46555   3.702   2.670  14.235 -0.0178  0.0990  0.2156
30082W        W46556   5.365  13.056   2.741  0.0905 -0.1511  0.1979
30083W        W46557  17.877   5.027  14.973 -0.0443  0.0149 -0.1425
30084W        W46558  15.606  18.134   3.866  0.3194 -0.1079  0.1729
30085W        W46559   1.322  12.372  14.268  0.0882  0.0280 -0.0569
30086W        W46560  18.110  15.517   0.819  0.1406  0.0636  0.2689
30087W        W46561   6.632  10.346  11.389 -0.0461 -0.0656  0.3009
30088W        W46562  11.910   0.734   3.976 -0.0299  0.0055  0.2603
30089W        W46563  11.138   7.992   2.230 -0.1278 -0.2811 -0.3203
30090W        W46564   1.753  12.798  11.834 -0.0535 -0.2466  0.1283
30091W        W46565   7.678   4.449   4.437  0.2479 -0.0233 -0.0745
30092W        W46566   0.215  15.973  11.232 -0.2454  0.1359 -0.0645
30093W        W46567  17.579   5.943   1.360  0.1120 -0.1213 -0.2132
30094W        W46568  13.879   0.521   4.566  0.2974 -0.2485 -0.2008
30095W        W46569  10.521   6.158  13.601 -0.0119  0.0561  0.2105
30096W        W46570   7.396  16.363   0.448 -0.1130 -0.2925  0.0273
30097W        W46571  12.303  13.350   1.679  0.3020 -0.3454  0.2419
30098W        W46572  10.163   8.030   0.610  0.0153 -0.1025  0.1514
30099W        W46573   8.950  13.279  15.009 -0.0376  0.0054  0.3298
30100W        W46574   2.225  16.408  12.964  0.1160 -0.0417 -0.1873
30101W        W46575  13.920  12.784   3.532  0.2029  0.0438  0.0689
30102W        W46576  14.082  15.156   5.363 -0.1176  0.1450  0.1164
30103W        W46577   9.721   1.686   0.712 -0.3381  0.1135 -0.1221
30104W        W46578  16.349   1.986  12.151  0.2269  0.1399 -0.1601
30105W        W46579   3.979   6.050   0.504 -0.2123  0.3914  0.0861
30106W        W46580   5.638   1.092   0.148 -0.4186  0.0121  0.2326
30107W        W46581  18.191   4.144  11.849  0.3523 -0.0090  0.4999
30108W        W46582   9.599  16.921   4.577 -0.2331  0.0350  0.0256
30109W        W46583   8.216  12.337  14.562 -0.2769 -0.0163 -0.0936
30110W        W46584   9.173   6.965   4.358  0.0681  0.0927  0.1876
30111W        W46585  11.105  10.343  13.365 -0.1247  0.1687  0.0760
30112W        W46586   3.039  17.566   2.658 -0.3106 -0.1891 -0.1614
30113W        W46587   2.300   5.346   1.958 -0.1985  0.0557 -0.2096
30114W        W46588   5.102  14.392   3.026 -0.1819 -0.0971  0.3360
30115W        W46589   3.174   3.236  12.559 -0.0296 -0.3282  0.1380
30116W        W46590   4.060  17.213  11.311  0.2409 -0.1315  0.1845
30117W        W46591   3.688  14.169  14.366  0.1806 -0.1263 -0.4607
30118W        W46592  10.306   5.518  14.146 -0.3496  0.0239 -0.0269
30119W        W46593  14.670   3.680  11.604 -0.1157  0.0399  0.2910
30120W        W46594  15.245  18.307  13.763 -0.2278 -0.0732 -0.1687
30121W        W46595  15.708  11.733  12.216 -0.1170  0.0279  0.0977
30122W        W46596  11.459  12.985  11.915 -0.1157 -0.0775 -0.0447
30123W        W46597   4.594  13.086  15.195  0.2872  0.0390 -0.4498
30124W        W46598  11.038  17.675  11.562  0.0322  0.2585 -0.1964
30125W        W46599   9.134  10.244  12.670  0.0362 -0.2142 -0.0840
30126W        W46600  11.015  15.723  14.247  0.2478 -0.0713  0.0971
30127W        W46601   5.239   3.798  10.214 -0.0345 -0.0224 -0.2671
30128W        W46602  17.175   4.564  15.442 -0.1280  0.0861  0.1615
30129W        W46603   2.107   3.604  10.896 -0.0084  0.1145 -0.1768
30130W        W46604   7.968   2.793   5.436  0.0374  0.0406  0.0526
30131W        W46605   9.059   8.194   3.166  0.5208  0.3922  0.2011
30132W        W46606   8.633  18.742   3.705 -0.1339 -0.0231  0.3266
30133W        W46607   0.598  15.819   2.791 -0.0772 -0.0264  0.3273
30134W        W46608  12.657   7.854  11.484 -0.0685  0.0012 -0.0966
30135W        W46609  12.341   0.648  15.678 -0.0032  0.1198  0.1270
30136W        W46610   7.991  13.037  13.857  0.2454  0.2719  0.3009
30137W        W46611   1.830   6.666   3.136 -0.3116  0.0025  0.0855
30138W        W46612  13.813  16.644  14.591 -0.1439  0.0603  0.0169
30139W        W46613  18.785  13.785  12.558  0.1260 -0.0080 -0.0391
30140W        W46614  15.450  15.705  11.043 -0.0387  0.2327  0.2268
30141W        W46615  18.782  12.531   1.791  0.3549  0.1149 -0.3227
30142W        W46616   8.769  14.579  14.462 -0.1979 -0.1976  0.1426
30143W        W46617  16.980   9.915   2.375  0.0683  0.0852 -0.1501
30144W        W46618  13.227  10.343  12.320  0.2573 -0.3289  0.1673
30145W        W46619  18.696   2.262  11.150  0.0572  0.1113 -0.1668
30146W        W46620   8.621   0.864  14.045  0.4255  0.0095 -0.4382
30147W        W46621  10.072   8.414   6.213 -0.1886  0.1184  0.1788
30148W        W46622  18.323   6.835   2.292  0.0875  0.1713  0.2105
30149W        W46623   7.866   3.511  12.411 -0.3225  0.0225 -0.0551
30150W        W46624   1.987   9.978  11.042  0.4296 -0.1565 -0.0566
30151W        W46625  13.576   3.922   3.585  0.3149 -0.0020 -0.2152
30152W        W46626  18.348   8.523  14.627  0.0473 -0.1470  0.1148
30153W        W46627  13.845  15.535   4.611  0.1396  0.2713 -0.3069
30154W        W46628   5.174  12.823  15.634 -0.1429  0.5415  0.0395
30155W        W46629   0.165  11.689   0.562 -0.1275  0.3412 -0.3760
30156W        W46630  10.135  11.230  15.320 -0.0567  0.0568  0.2853
30157W        W46631  14.204   7.333   4.044  0.0758 -0.2186  0.0084
30158W        W46632  11.999   5.302  11.826 -0.0335 -0.0390 -0.4558
30159W        W46633   8.172  16.280   4.761  0.4699  0.1108 -0.0202
30160W        W46634   3.472  14.915  15.330 -0.2425  0.1780  0.1400
30161W        W46635  15.352   1.859  12.278 -0.0584  0.0346  0.1703
30162W        W46636   6.908  10.685   1.617 -0.1344 -0.1557 -0.2082
30163W        W46637   9.998  16.840   5.025 -0.0155  0.0102 -0.0445
30164W        W46638  14.190   6.268  12.876 -0.1958 -0.0547  0.1890
30165W        W46639   2.292  15.844  12.652  0.0353  0.0467  0.1898
30166W        W46640   5.719   6.839   4.738  0.0865  0.4478  0.1344
30167W        W46641   6.533   7.526  12.062 -0.2716 -0.0493 -0.0118
30168W        W46642   5.575  18.674  13.083 -0.0276  0.2250  0.2544
30169W        W46643  15.264   3.169   2.575 -0.0429  0.0026  0.2925
30170W        W46644  13.455  15.182   2.303  0.1322 -0.0256 -0.0860
30171W        W46645  17.885  15.798   4.547  0.0001 -0.2350 -0.0695
30172W        W46646  12.444  11.703  14.066 -0.0876 -0.0476  0.1012
30173W        W46647  14.358   3.098   2.393  0.0952  0.1350 -0.0368
30174W        W46648   3.476   1.428  12.451  0.2848 -0.4030 -0.1754
30175W        W46649   2.764   9.261   5.193 -0.2482 -0.3180  0.3118
30176W        W46650  16.603  14.456   1.511 -0.1986 -0.0903  0.0223
30177W        W46651   2.088   8.500  14.764  0.1309 -0.3591 -0.1209
30178W        W46652  12.352  12.391   2.593 -0.0468  0.2447 -0.0960
30179W        W46653   8.533   1.577   3.282  0.3011 -0.2519  0.0923
30180W        W46654  11.030   0.840   0.703  0.2155 -0.1928  0.1725
30181W        W46655  10.600  15.113   4.680 -0.1952 -0.0306  0.1621
30182W        W46656  10.094  13.431   6.128  0.4211 -0.1951 -0.2008
30183W        W46657   7.170   5.537   2.556 -0.1682 -0.0605  0.1370
30184W        W46658   3.572   9.823   0.263  0.0228  0.1886  0.1297
30185W        W46659  11.074  17.955   4.613  0.1770  0.0869 -0.2766
30186W        W46660   3.658   9.373   4.137 -0.1552  0.0571 -0.3057
30187W        W46661  16.178  17.749   0.871 -0.1373  0.2531  0.3325
30188W        W46662  12.982   2.327  12.583  0.0722  0.2328  0.0206
30189W        W46663   3.887   8.120  13.510 -0.1572  0.4233  0.0965
30190W        W46664  17.069  13.412   3.249  0.1091  0.0881  0.0909
30191W        W46665  14.297   4.325  15.373 -0.2325  0.1346  0.1050
30192W        W46666   8.067   3.249   4.570  0.1420 -0.2474  0.0845
30193W        W46667   9.064   4.287   4.105 -0.0420 -0.0642 -0.1554
30194W        W46668   2.482   0.401   1.688 -0.0290  0.1286  0.0037
30195W        W46669  13.845  10.274   5.007 -0.2026  0.0633  0.1189
30196W        W46670   7.069   0.986  15.380  0.1023  0.0784 -0.0934
30197W        W46671   6.613  14.037   3.200 -0.0385 -0.2053 -0.0832
30198W        W46672  10.075   9.760   5.701  0.0961  0.3035 -0.2155
30199W        W46673  15.221   8.723   3.248 -0.0515 -0.3238  0.4128
30200W        W46674  17.619   0.927   2.958 -0.2452  0.2792 -0.1881
30201W        W46675   6.912   9.409   4.408  0.0804 -0.2583  0.0271
30202W        W46676  12.455   3.786  13.147  0.3591 -0.1836 -0.0920
30203W        W46677  11.713   9.642  13.031 -0.1593  0.1983  0.1603
30204W        W46678  15.568  15.898  11.943 -0.1084  0.0086  0.3069
30205W        W46679   6.013   1.738   3.730  0.1034 -0.3367  0.1108
30206W        W46680  12.703  12.774  14.205 -0.3075 -0.3632 -0.1088
30207W        W46681  15.250   0.464  10.787 -0.0221  0.1874 -0.2766
30208W        W46682  16.737   5.733  12.126  0.1843 -0.0919  0.2091
30209W        W46683   3.433   2.164  15.475  0.3807 -0.4401 -0.1171
30210W        W46684  13.803   5.640   0.330 -0.0886 -0.3116 -0.1724
30211W        W46685  15.430  14.912  10.780  0.2877  0.1217  0.0685
30212W        W46686   4.032   5.205   0.361 -0.0788  0.1571 -0.1279
30213W        W46687   1.544   8.055  11.125  0.0712 -0.1108 -0.0109
30214W        W46688  12.253  12.586   3.644 -0.0151  0.2261 -0.0013
30215W        W46689  16.698  10.043   4.699  0.4015  0.1321 -0.2384
30216W        W46690  12.000   9.061  11.656 -0.0293  0.1745  0.1003
30217W        W46691   2.980   6.305   0.389  0.1905 -0.0604 -0.2063
30218W        W46692  17.802   5.643   4.077 -0.0003 -0.1410 -0.2765
30219W        W46693  14.954   4.645  13.324  0.2994  0.3701 -0.2381
30220W        W46694   9.774  13.403  11.522 -0.1214  0.1821  0.1826
30221W        W46695   7.751  16.118   3.477  0.3228 -0.4129 -0.1860
30222W        W46696  18.766  12.993   3.782  0.0717  0.0499 -0.4660
30223W        W46697  10.268  16.013   2.771 -0.1934  0.4190 -0.0643
30224W        W46698   3.058   0.184  11.499  0.0077 -0.1049 -0.3375
30225W        W46699   7.121   8.198  13.691  0.3563  0.0843 -0.2016
30226W        W46700  15.612   7.949  15.350 -0.2358  0.1323 -0.0169
30227W        W46701   7.604  10.493  14.674 -0.2200 -0.2805  0.0775
30228W        W46702  17.216   6.230   2.643  0.0568 -0.0703  0.3267
30229W        W46703  12.774  15.763   3.677 -0.0819  0.0512 -0.1491
30230W        W46704   7.534   6.185   5.270  0.2471 -0.1210  0.3406
30231W        W46705  17.946   1.733  14.305 -0.1173  0.0432 -0.0852
30232W        W46706   0.173   1.211   1.664 -0.2725  0.0716  0.0022
30233W        W46707   7.613   8.595   1.838 -0.1027  0.0963 -0.1791
30234W        W46708   2.547   3.932   0.849 -0.0837  0.0317 -0.0396
30235W        W46709  11.663   5.926  12.986  0.1909  0.0241 -0.2396
30236W        W46710  12.999  18.164   0.998 -0.0634 -0.2632  0.0940
30237W        W46711  16.150   2.713  12.757 -0.1664  0.0912 -0.0651
30238W        W46712  10.203  13.156   2.001  0.2623 -0.0027 -0.2681
30239W        W46713   8.253   5.145  11.204 -0.2090  0.2334  0.0977
30240W        W46714  11.511   0.833  13.281 -0.2462 -0.1580  0.0652
30241W        W46715   1.865  13.938  12.823  0.0048  0.1362  0.0626
30242W        W46716   9.577  16.216   0.904  0.1615 -0.0150 -0.0571
30243W        W46717  12.434  16.658   1.668  0.1054 -0.0905  0.0370
30244W        W46718   8.225   4.456  13.677  0.1926 -0.1498 -0.0752
30245W        W46719  16.123  10.903   1.505  0.0685  0.0642 -0.0387
30246W        W46720  13.726  13.854   1.266 -0.1938 -0.0095 -0.1543
30247W        W46721  17.639  15.029  11.801 -0.3894 -0.5026  0.2089
30248W        W46722   1.076  17.528  14.132 -0.0484  0.0053  0.0337
30249W        W46723   0.779  10.001   3.919 -0.0562  0.2627  0.0348
30250W        W46724  18.555   8.321   5.736 -0.3294 -0.0706  0.0093
30251W        W46725   5.010   9.971  13.627 -0.0097 -0.3190 -0.2110
30252W        W46726   0.576   8.414  10.907 -0.2309  0.0400  0.1043
30253W        W46727   9.700   4.653   3.580 -0.0276 -0.1742 -0.3035
30254W        W46728  13.043   4.470   3.280 -0.2706  0.0809 -0.0318
30255W        W46729   6.839  14.662  12.543 -0.2719  0.1473 -0.2371
30256W        W46730   8.144  14.872  12.082 -0.4990  0.2746  0.0914
30257W        W46731  11.514   9.919   3.081 -0.2267  0.2022  0.2069
30258W        W46732  16.744   0.098   3.756 -0.3417  0.1218 -0.3129
30259W        W46733   9.905  11.846  14.853 -0.3010  0.5149  0.0681
30260W        W46734  17.684   0.638  13.334 -0.3066 -0.2639 -0.2038
30261W        W46735  12.535   4.630   2.856 -0.0419  0.3196 -0.4413
30262W        W46736  13.616   2.613  14.424  0.0922  0.2349 -0.1003
30263W        W46737   0.168   2.426  14.581  0.0195  0.1032 -0.2510
30264W        W46738  10.110   5.488   3.128 -0.0735 -0.0261 -0.0086
30265W        W46739   9.177  11.596   4.660  0.1178 -0.1928 -0.3111
30266W        W46740  14.917   1.137  14.144 -0.0136  0.0003 -0.0890
30267W        W46741   2.089   9.075   4.132 -0.2408 -0.0493  0.0354
30268W        W46742   7.601   5.394   0.548 -0.2066  0.0078 -0.0566
30269W        W46743   2.067   2.099  13.646  0.2481  0.0223  0.0694
30270W        W46744  16.570  14.079  11.938  0.0738  0.0208  0.0032
30271W        W46745   9.029   0.167   0.143  0.0413 -0.2524 -0.1085
30272W        W46746  13.296  17.560   5.380 -0.0504  0.0793 -0.3269
30273W        W46747   1.369  13.867  12.915 -0.1200  0.0702  0.2702
30274W        W46748  18.738   3.221  10.572  0.1644  0.0049  0.0990
30275W        W46749  17.384   8.464   4.843  0.1069  0.0920 -0.2778
30276W        W46750  17.554  11.071  12.208  0.0709  0.0885 -0.2328
30277W        W46751   3.774   0.277   2.079 -0.4978  0.2190  0.2194
30278W        W46752  14.982  12.496  15.254 -0.1214  0.1788 -0.1535
30279W        W46753  18.795  10.916  13.777  0.1481  0.1759 -0.0980
30280W        W46754  14.060   0.542   2.390 -0.3146 -0.1237 -0.1421
30281W        W46755   6.905  11.573  13.545  0.0773 -0.1247 -0.1797
30282W        W46756  18.712   2.329  12.176 -0.1135 -0.1671  0.2411
30283W        W46757   6.621  15.495   6.277  0.3312 -0.5098 -0.1681
30284W        W46758   0.934   0.544   5.395 -0.1456 -0.2752 -0.3055
30285W        W46759  15.664  11.987  11.777  0.0250 -0.0463 -0.1886
30286W        W46760  18.770   2.436   4.647 -0.3472 -0.2638 -0.1615
30287W        W46761  17.218   9.170   2.568 -0.1929  0.0792 -0.1696
30288W        W46762   8.460  11.855   2.208  0.2133  0.0146 -0.1673
30289W        W46763   6.348  17.673  14.421 -0.1450 -0.1485  0.1665
30290W        W46764   6.480  11.033   1.385  0.0307  0.1896 -0.0918
30291W        W46765   3.392   4.979   0.258  0.0618 -0.2148  0.2296
30292W        W46766  17.432  10.875   2.283 -0.1579 -0.1566 -0.0552
30293W        W46767   7.153   4.810  11.672  0.1964 -0.0660  0.1385
30294W        W46768  15.991  17.774  11.886  0.0651  0.2302  0.0715
30295W        W46769  18.577  15.855  11.100  0.2866 -0.0957  0.1143
30296W        W46770   8.817  14.940  14.111 -0.1293 -0.2407  0.0738
30297W        W46771  12.444  15.949  10.921 -0.0996  0.3291 -0.1487
30298W        W46772   5.775   4.994  11.645  0.1654  0.0421 -0.1735
30299W        W46773   2.712  10.913  15.349  0.0717  0.1243  0.1312
30300W        W46774   2.502   4.667  10.711  0.1310  0.1827 -0.1963
30301W        W46775  18.379  13.469  11.080  0.0114 -0.0872  0.0749
30302W        W46776   0.603   6.284  13.428 -0.0660 -0.2554 -0.3227
30303W        W46777  15.062   1.726  10.270  0.4065  0.2216 -0.0822
30304W        W46778   9.761  10.989   5.493  0.0931  0.2609  0.1724
30305W        W46779  16.232   4.575   2.082  0.0395 -0.1134  0.1038
30306W        W46780   6.716   0.393   0.909  0.0162  0.1669  0.0729
30307W        W46781   5.431   8.068  11.218 -0.1623  0.5152 -0.1516
30308W        W46782  16.085  14.777   1.624  0.1228  0.3263  0.0054
30309W        W46783   9.428  15.035  11.614 -0.0325 -0.1564  0.0104
30310W        W46784   5.215  10.476   0.350 -0.1047  0.0291  0.2545
30311W        W46785   1.636  12.817  15.056  0.0490  0.0922 -0.1430
30312W        W46786   3.262  13.461   3.398  0.2422  0.0659 -0.1461
30313W        W46787  15.031  11.955   2.680 -0.2361 -0.0636  0.0641
30314W        W46788  15.839   0.754  12.753  0.0977  0.2686  0.1303
30315W        W46789  11.207   4.611   1.623 -0.1924  0.1824  0.1408
30316W        W46790  10.466   5.354  15.083 -0.5327  0.0238 -0.0735
30317W        W46791  15.286  15.299   1.611  0.0485  0.1184 -0.0663
30318W        W46792  18.202   5.220   3.975  0.0323 -0.0856  0.1064
30319W        W46793   7.834   5.604  12.988  0.0955  0.2895  0.2042
30320W        W46794  15.142   1.516  12.742 -0.2193  0.0103 -0.0842
30321W        W46795   9.158  18.757  12.384 -0.0036 -0.2277 -0.2450
30322W        W46796   2.736   7.765   0.334  0.0126 -0.1528 -0.1921
30323W        W46797  16.776  14.277  10.948 -0.0056  0.2069  0.0362
30324W        W46798  15.486   7.423  13.799  0.1255 -0.1981  0.1927
30325W        W46799   4.562   7.809   4.485 -0.0575 -0.0690 -0.0518
30326W        W46800   4.735  18.539  12.479 -0.1774 -0.0651 -0.1545
30327W        W46801  14.999   5.658  11.786  0.0022  0.0214  0.0073
30328W        W46802   7.158  16.622   0.833  0.1938 -0.0440  0.2974
30329W        W46803  18.184   8.481  11.578  0.0466 -0.1143  0.1899
30330W        W46804   2.761  10.871   0.882  0.2963  0.0253 -0.1624
30331W        W46805   1.061   4.488   4.895 -0.0002 -0.0131 -0.3210
30332W        W46806   7.438  14.401   2.473  0.2368 -0.1544 -0.2231
30333W        W46807   5.823  14.554  15.165  0.0746 -0.1553 -0.1605
30334W        W46808  12.488  14.692   2.881  0.0808  0.2564  0.1281
30335W        W46809   2.465   0.885   1.577  0.2507  0.2094  0.2907
30336W        W46810   1.747   6.692  12.266 -0.0233 -0.0909  0.5190
30337W        W46811  12.607  14.730  14.421  0.1939 -0.3592 -0.2437
30338W        W46812  16.423   6.479   4.154  0.3744 -0.1421  0.1427
30339W        W46813   7.514   5.541  11.510 -0.1727  0.1358 -0.0605
30340W        W46814   4.911  16.701   3.414 -0.1317  0.0097  0.1275
30341W        W46815  17.931   3.519  13.963  0.0724  0.0174 -0.0399
30342W        W46816   6.607  13.351  14.072  0.1908  0.1772 -0.0202
30343W        W46817  17.614  12.187  14.417 -0.1540  0.0876 -0.1427
30344W        W46818  12.051   3.397   2.808  0.1232  0.0011  0.2225
30345W        W46819  17.703   4.195  11.781  0.1349 -0.0167  0.0808
30346W        W46820  14.666   9.302  12.366  0.0053 -0.0567 -0.0863
30347W        W46821   3.974   3.485   3.796 -0.1863 -0.0259 -0.2694
30348W        W46822   4.526  18.080  12.613  0.2762 -0.1150  0.1850
30349W        W46823  14.051   9.353   0.283  0.1909 -0.0097  0.0448
30350W        W46824  11.605   8.534  12.675  0.3269 -0.3053  0.2909
30351W        W46825   0.586   5.137  11.965  0.0591 -0.0428  0.0700
30352W        W46826  11.670   3.320   4.549  0.0712  0.1819 -0.0088
30353W        W46827  15.913  13.968  15.203 -0.0812 -0.1281  0.2637
30354W        W46828  14.596   1.927   0.005 -0.0748 -0.1062  0.1091
30355W        W46829  14.957   3.690  14.396  0.0336 -0.1875 -0.1330
30356W        W46830  10.989  18.809   4.421  0.1704  0.0892  0.2165
30357W        W46831   1.343   6.266   4.267  0.0955 -0.1645 -0.2555
30358W        W46832  15.925   3.081   0.308 -0.2057 -0.0780 -0.1828
30359W        W46833  11.257   5.208  13.376 -0.0325  0.0992  0.0810
30360W        W46834   1.384  14.566   2.999 -0.0726  0.1916 -0.0085
30361W        W46835   1.204   7.405   2.447 -0.1636 -0.4094  0.2149
30362W        W46836   6.673  15.496   1.328  0.2598  0.1150  0.0893
30363W        W46837  14.832   2.917  13.824 -0.0059 -0.1562 -0.3957
30364W        W46838  11.257  15.273  14.995 -0.1872 -0.0228  0.0264
30365W        W46839  11.061   1.000  13.645  0.0381 -0.2489 -0.3099
30366W        W46840  16.397  13.386   1.542 -0.1352 -0.2474 -0.0504
30367W        W46841  11.733  13.426   4.157 -0.2707 -0.0777  0.1560
30368W        W46842  16.308   8.148  13.369  0.0591 -0.1198 -0.1352
30369W        W46843   7.141   1.858  13.578  0.1396  0.3198 -0.1194
30370W        W46844  11.383  18.045   2.454  0.1411  0.0514 -0.0609
30371W        W46845   5.413   1.931   0.042 -0.0825 -0.0628 -0.1176
30372W        W46846  10.597  11.798   1.851 -0.0848 -0.0019 -0.0126
30373W        W46847   2.985   8.957   0.486  0.0583  0.1781  0.2126
30374W        W46848  17.830  14.083   0.236  0.1835 -0.4228  0.0047
30375W        W46849  11.998  18.129  12.588  0.2191 -0.2027  0.1809
30376W        W46850   3.531   7.910   2.398  0.0686 -0.0032  0.3201
30377W        W46851  11.152  13.866   1.629  0.2595  0.0496  0.4391
30378W        W46852   5.019  11.046  11.344 -0.3896 -0.1736  0.0720
30379W        W46853   9.372  11.596  15.494  0.1753 -0.1913 -0.1427
30380W        W46854  15.201   4.995   0.002 -0.1704 -0.2798  0.0052
30381W        W46855   2.857   0.969   3.245  0.1128  0.0531 -0.0440
30382W        W46856   6.714   7.899   1.072 -0.0661  0.1984  0.0487
30383W        W46857  16.067   8.066  11.449  0.1683  0.0446 -0.0788
30384W        W46858   6.249   0.405  15.209  0.2126  0.1977  0.2246
30385W        W46859  10.241  11.179   5.700  0.0945  0.1262 -0.0039
30386W        W46860   3.876  18.271   0.112 -0.2097  0.1208  0.2541
30387W        W46861   1.431  10.744   2.706  0.1181 -0.1751 -0.0018
30388W        W46862  18.446   2.492   5.016  0.0543 -0.0295 -0.0922
30389W        W46863   4.609  12.341  10.413  0.0341 -0.0105  0.1715
30390W        W46864   8.866   4.452  11.503 -0.0357  0.2321 -0.0025
30391W        W46865  10.956  12.600  15.594 -0.1643  0.0949  0.0428
30392W        W46866   6.854  17.614  11.549 -0.0298  0.1795 -0.1070
30393W        W46867   4.325  11.931   2.365 -0.0257  0.0672 -0.0725
30394W        W46868  11.947  11.193  10.987 -0.6463 -0.0713  0.0996
30395W        W46869  17.255  11.125   2.682 -0.0835  0.0130 -0.1173
30396W        W46870   4.906  18.158  13.619 -0.0620  0.0984  0.2454
30397W        W46871  12.818  15.199   5.660 -0.1438  0.2751  0.2385
30398W        W46872  16.952   6.140  14.061  0.1220  0.1956  0.0076
30399W        W46873  12.612   8.828   3.609 -0.0917  0.0357 -0.0045
30400W        W46874   9.833   7.932  11.826  0.1556  0.1775  0.3512
30401W        W46875   1.377   2.157   4.660 -0.0192 -0.0069 -0.1274
30402W        W46876   0.014   2.168  13.466  0.1913  0.1887 -0.3043
30403W        W46877   0.739  12.096  15.429 -0.0215  0.2806 -0.0099
30404W        W46878   1.108   0.279  14.654 -0.0253  0.0533  0.2907
30405W        W46879   8.312  10.047   3.773 -0.3143  0.0851 -0.4180
30406W        W46880   6.705  16.136  13.460  0.1250  0.2335  0.2246
30407W        W46881  16.993   9.986   0.582 -0.0744 -0.1043 -0.0833
30408W        W46882   5.508  14.988   0.317  0.4178 -0.2081 -0.0124
30409W        W46883   1.181  10.082   0.535  0.4860 -0.0621 -0.2272
30410W        W46884   5.278  17.969  11.040  0.0056  0.3355  0.1839
30411W        W46885  10.847   3.253  14.507  0.2771  0.0548  0.2295
30412W        W46886  16.271  15.744  12.629  0.0794  0.1290  0.0732
30413W        W46887  10.119  17.014   3.573  0.1848  0.1605 -0.3082
30414W        W46888  14.104   0.389   0.864 -0.1953  0.2878  0.1681
30415W        W46889  15.200   7.803   3.583 -0.3528 -0.0695  0.0132
30416W        W46890   7.291   4.810   2.470  0.1817  0.0603  0.2544
30417W        W46891  15.238   9.662   1.765 -0.2739 -0.1264  0.3741
30418W        W46892  10.566  18.021   0.969  0.1984 -0.0807  0.0084
30419W        W46893   9.535   5.730   1.158  0.3181  0.0527  0.0919
30420W        W46894   6.322  18.465   3.594 -0.0014 -0.3153 -0.2262
30421W        W46895  10.041  14.422   0.999  0.1850  0.1167 -0.0951
30422W        W46896  17.313   2.204   3.507 -0.1376 -0.4315 -0.1751
30423W        W46897  12.938  11.937  14.219  0.0976 -0.0223  0.1976
30424W        W46898   7.457   0.433  14.141  0.0533  0.2894 -0.0105
30425W        W46899   1.978   8.117  12.310  0.2625  0.4684  0.4625
30426W        W46900   1.828  18.697   3.367  0.3612  0.3203  0.0514
30427W        W46901   3.590   4.824   1.092 -0.0327 -0.1240 -0.0195
30428W        W46902   8.664   0.295   1.044  0.1711 -0.1560  0.0068
30429W        W46903   3.576  16.556  10.362  0.1322 -0.2373  0.2216
30430W        W46904   1.015  13.120   0.467  0.0990  0.2226 -0.1806
30431W        W46905  17.660  15.326  14.004  0.1456  0.0077  0.2802
30432W        W46906   7.128  11.821  15.219 -0.4285 -0.0953  0.0157
30433W        W46907  10.580   2.357  14.892 -0.2922  0.1267 -0.2212
30434W        W46908   3.867  18.426   4.068  0.1126 -0.0825 -0.1868
30435W        W46909  10.372   2.168  11.088 -0.1335 -0.2919 -0.0392
30436W        W46910   3.670   7.694  11.430 -0.0645 -0.1589 -0.0723
30437W        W46911   8.901   6.794   3.292 -0.2475  0.0505  0.1501
30438W        W46912   8.218   2.460  12.953 -0.0467  0.1057 -0.1631
30439W        W46913  13.178  11.696  12.302 -0.0464  0.0535 -0.1973
30440W        W46914   7.734  10.175  12.689  0.3030  0.0842 -0.0464
30441W        W46915   1.536   8.786   1.144  0.2957  0.0757  0.1319
30442W        W46916  11.404  12.222   0.721 -0.1150 -0.3013 -0.0347
30443W        W46917   2.959   6.939   1.159  0.1373 -0.2967 -0.0817
30444W        W46918   1.951  10.295   3.122 -0.0737 -0.0533 -0.0119
30445W        W46919  16.549   5.951  10.994  0.0078 -0.0191  0.0144
30446W        W46920  14.791   6.017   1.917 -0.3378  0.1417  0.0529
30447W        W46921   4.406  14.260  15.482  0.3186  0.1975  0.2525
30448W        W46922   4.853   5.786   0.946 -0.1938  0.0936 -0.1036
30449W        W46923   7.350   2.610   1.691 -0.1466  0.1895  0.1250
30450W        W46924   4.988  18.209   5.906 -0.2217  0.2142  0.2208
30451W        W46925  11.695  13.586  12.515 -0.2063  0.0024  0.0796
30452W        W46926  12.970  10.158  11.378  0.1902  0.0001 -0.0158
30453W        W46927   5.206   2.197   5.006  0.0069  0.1449  0.0336
30454W        W46928   5.575   1.552  13.416 -0.0808  0.2353 -0.1785
30455W        W46929   2.530  14.709   3.499 -0.2250 -0.2160  0.3637
30456W        W46930  14.386   5.209   5.063 -0.3338  0.0734 -0.0602
30457W        W46931   6.426   7.085  13.189 -0.0730 -0.0338  0.1938
30458W        W46932   8.577   4.453   1.145  0.2735 -0.1667  0.1535
30459W        W46933   6.973   3.807  14.181  0.4390 -0.1617 -0.1323
30460W        W46934   8.600   0.338  11.376 -0.2464 -0.1329 -0.0801
30461W        W46935  10.363   7.747  10.526  0.2062  0.0591  0.0097
30462W        W46936   9.796  13.246   0.834  0.0077 -0.0782  0.0895
30463W        W46937   0.961   2.338  10.932  0.0114  0.0538  0.1349
30464W        W46938  15.748  17.208   2.260  0.0629  0.1246 -0.0219
30465W        W46939  18.680  15.654   1.684  0.2321 -0.0972 -0.0057
30466W        W46940   2.644  13.390  12.944 -0.4066  0.0123 -0.3476
30467W        W46941   1.801  13.116  15.439  0.0932 -0.2847  0.0419
30468W        W46942   6.757  12.573   5.393 -0.1060  0.1606  0.2288
30469W        W46943  15.932   6.649   1.602 -0.2469 -0.3396  0.4204
30470W        W46944   2.250  10.515   1.582  0.2801 -0.1536 -0.2094
30471W        W46945   6.334  11.792  11.039 -0.2294  0.1445  0.1826
30472W        W46946   9.815   5.102   5.300 -0.1635  0.0955  0.0649
30473W        W46947  17.731   3.278  14.438 -0.2459 -0.2513  0.0901
30474W        W46948  17.655   5.419   2.219  0.1859  0.0311  0.1724
30475W        W46949  10.482  15.196  11.757  0.0214 -0.0218 -0.0433
30476W        W46950   9.336  11.468   6.160  0.0225 -0.1197 -0.1434
30477W        W46951  10.470   6.517  13.903 -0.2640 -0.0081  0.1411
30478W        W46952  11.249  13.442  11.031  0.1824  0.0390 -0.0681
30479W        W46953   8.386  12.288   1.578 -0.0265 -0.3374  0.0005
30480W        W46954   6.051  15.598  10.942 -0.3276 -0.0033 -0.3057
30481W        W46955  11.283  18.720   5.760 -0.2014 -0.3646 -0.1571
30482W        W46956  16.484  13.268  14.009  0.1091 -0.1181 -0.1503
30483W        W46957   6.232   6.170   5.291  0.1102 -0.2006  0.1085
30484W        W46958   3.800  11.682   4.647 -0.0502 -0.1140 -0.2829
30485W        W46959   9.448  17.782  12.600  0.0497  0.4288 -0.0222
30486W        W46960   9.654  12.944  11.795 -0.4105 -0.1651  0.2523
30487W        W46961  13.395   7.972  14.302 -0.0631 -0.1555  0.1065
30488W        W46962   5.705  18.681   4.328 -0.1397  0.3619  0.0643
30489W        W46963   5.594   3.293  11.507 -0.2156  0.0639  0.0389
30490W        W46964  15.293  15.786   2.261  0.1023 -0.0221  0.2465
30491W        W46965  17.969   3.945  10.911  0.1183 -0.0890  0.2574
30492W        W46966   2.053   8.404  11.617  0.0892  0.1233  0.0607
30493W        W46967   0.915  15.633   0.346  0.1672  0.1592  0.0951
30494W        W46968   6.740   5.510   0.215 -0.3210 -0.2638  0.1864
30495W        W46969   3.470   2.759   1.386  0.2230  0.1781 -0.2567
30496W        W46970   1.402   4.095  14.415  0.1330 -0.0197 -0.1986
30497W        W46971  11.372  12.852  11.419 -0.2034 -0.1333 -0.1990
30498W        W46972  12.808   3.143   5.337 -0.3241  0.1680  0.0943
30499W        W46973   1.318  14.675   1.292 -0.0392 -0.3844 -0.2365
30500W        W46974   9.500   0.713   4.970 -0.0849 -0.0085 -0.3626
30501W        W46975  17.193   7.877   0.259  0.2319 -0.1964  0.2814
30502W        W46976   0.078   8.827   0.870  0.1438 -0.1566  0.0925
30503W        W46977  14.031  16.985  11.201 -0.0424  0.2855 -0.2406
30504W        W46978   8.537   1.286   1.852  0.0584 -0.0672  0.1523
30505W        W46979   9.716   4.804  14.294  0.2599  0.1496 -0.2456
30506W        W46980  18.444  16.202   4.274 -0.3130 -0.4388  0.1878
30507W        W46981  13.576  14.581   3.606  0.0070 -0.0546  0.0283
30508W        W46982   9.183  15.191   2.758  0.2057 -0.2481 -0.3122
30509W        W46983  14.359   1.162  12.496 -0.2672 -0.0794 -0.0417
30510W        W46984   3.226  10.452   4.112 -0.2210 -0.0002 -0.1876
30511W        W46985  18.528   4.296   5.824 -0.1439 -0.0580  0.4008
30512W        W46986   1.817   7.306   1.381  0.0440  0.1202  0.1041
30513W        W46987  15.590  14.558  13.045  0.2244 -0.1404 -0.3448
30514W        W46988  14.536  16.944   0.820  0.1888 -0.3456 -0.3966
30515W        W46989   4.135  12.308   2.649  0.1541  0.0406  0.0114
30516W        W46990  12.525   7.056  12.713 -0.0216 -0.0926 -0.1053
30517W        W46991   5.273  16.988  13.209  0.2593 -0.6797  0.1509
30518W        W46992  13.613   7.564  13.633  0.0913  0.0187 -0.0159
30519W        W46993  13.385  12.260  14.741  0.0587  0.0182 -0.0299
30520W        W46994   9.989   2.323   4.556  0.1683  0.1019 -0.2930
30521W        W46995   4.386   9.894   2.179 -0.3330 -0.3193 -0.0615
30522W        W46996   7.648   0.887  14.117 -0.1723  0.1100  0.0274
30523W        W46997  18.141  12.743   1.181  0.5068  0.1661 -0.0013
30524W        W46998   9.412  12.378   2.000  0.0550 -0.2066 -0.0363
30525W        W46999  17.855   5.813   0.168 -0.1369 -0.1400 -0.0588
30526W        W47000   4.157   2.864  11.644 -0.1635  0.0631  0.0665
30527W        W47001   6.437  18.591  12.406 -0.1341 -0.2034 -0.1182
30528W        W47002   3.425  12.580  15.665  0.2608  0.0540 -0.0610
30529W        W47003  14.615   2.672   4.973  0.0701 -0.0162  0.0905
30530W        W47004  15.059  11.389  12.850 -0.1476  0.3498  0.0905
30531W        W47005   9.275   7.508   4.517 -0.1255  0.1948  0.2134
30532W        W47006   6.102   2.333  10.912  0.0681  0.4858  0.2831
30533W        W47007  16.331   1.722   3.588  0.0969 -0.1397  0.0882
30534W        W47008   6.363   0.557  14.096 -0.1199 -0.1000 -0.5712
30535W        W47009   1.687   0.370   1.808  0.2367 -0.1628 -0.0382
30536W        W47010   1.006  11.643  15.656  0.1446  0.2534 -0.1570
30537W        W47011   9.365  13.865  14.493  0.0631  0.3276  0.0904
30538W        W47012  10.494   9.261   1.265 -0.0776 -0.1654 -0.1419
30539W        W47013   8.993  10.812  15.419 -0.0384  0.2610 -0.3254
30540W        W47014  15.438   8.475  13.843 -0.1000 -0.0267 -0.1948
30541W        W47015   4.835  18.128  13.029  0.3024 -0.4116  0.4021
30542W        W47016   1.079  15.102   0.316 -0.0282 -0.1607 -0.0722
30543W        W47017  12.538  11.019   4.101 -0.1470  0.0776 -0.1697
30544W        W47018   4.854   2.956  12.115 -0.0016 -0.0440  0.1202
30545W        W47019  15.861   7.363   0.597 -0.3812 -0.0097 -0.0649
30546W        W47020   1.260   0.308   1.567  0.1843  0.0133  0.0166
30547W        W47021  14.339   0.731   5.647  0.0061  0.0431 -0.1839
30548W        W47022   6.408   4.126   0.073 -0.3268 -0.0396  0.0095
30549W        W47023   5.011   9.209  11.842 -0.1824 -0.1155  0.0915
30550W        W47024   3.326   8.614   1.487  0.0606 -0.0447 -0.2631
30551W        W47025   2.888   1.470  12.741 -0.0573  0.1422  0.0494
30552W        W47026   7.131   0.061  13.097  0.1797  0.2018  0.3739
30553W        W47027   7.682  15.643   4.252  0.1114 -0.1164 -0.1036
30554W        W47028  15.123  18.768  11.973  0.0618 -0.2040  0.1074
30555W        W47029   3.942  14.179   0.759  0.2112 -0.0945  0.1864
30556W        W47030  15.055  16.418   0.597 -0.0693  0.0714 -0.0924
30557W        W47031   0.655  11.736  11.178  0.2122 -0.1968 -0.0486
30558W        W47032  16.081  17.397  14.274  0.0863  0.0968 -0.0023
30559W        W47033   8.744  13.925   3.033  0.0751  0.0728  0.0306
30560W        W47034   5.244  12.647  14.582 -0.0428  0.1052  0.1802
30561W        W47035  16.602  12.227  14.248  0.2899  0.1616 -0.0092
30562W        W47036   8.027  10.938  13.482  0.0248  0.1585 -0.1354
30563W        W47037  12.966  16.722   1.763 -0.1232 -0.0982 -0.2109
30564W        W47038  17.014  17.088   0.727  0.0791 -0.1975 -0.1862
30565W        W47039  18.620  12.809   1.340  0.1957  0.1757  0.2866
30566W        W47040   9.872   3.692  14.720  0.0884 -0.0388  0.0059
30567W        W47041  13.628  14.827   0.627  0.1991 -0.1691 -0.0499
30568W        W47042  16.338  13.283   4.841 -0.1070 -0.2205  0.3141
30569W        W47043   8.311   7.118   5.675 -0.1090 -0.2817  0.0962
30570W        W47044  10.424  12.513   1.261 -0.1066  0.0540 -0.0713
30571W        W47045   2.994   6.181   5.673 -0.2396 -0.3064  0.1058
30572W        W47046   7.759  10.785  11.874  0.0438 -0.0590  0.1546
30573W        W47047  13.311  14.911  12.810 -0.0186 -0.1854 -0.0524
30574W        W47048  17.662   4.473  15.560 -0.1162  0.0585 -0.3808
30575W        W47049   5.608   5.113  12.644 -0.1026 -0.0190 -0.0466
30576W        W47050   9.341   2.939   4.037 -0.0543 -0.1402 -0.2205
30577W        W47051  18.266   3.697  11.763  0.1074  0.3152  0.1649
30578W        W47052  17.676  14.519  14.325  0.3217  0.0971 -0.0723
30579W        W47053  17.881  13.785   4.110  0.0318 -0.1484 -0.0757
30580W        W47054   1.255  10.748   4.751  0.0604  0.0094  0.0694
30581W        W47055   9.376  10.000   5.660 -0.2224 -0.0250  0.0215
30582W        W47056   3.321   0.516   0.492  0.1639  0.2592 -0.3453
30583W        W47057   8.550   5.215  12.709 -0.0036  0.0884  0.0787
30584W        W47058   9.812   4.080   4.445 -0.2638 -0.0017 -0.1743
30585W        W47059  11.203   1.876   2.913 -0.0543  0.0293  0.0186
30586W        W47060   4.269  16.744   1.039  0.4287  0.0998 -0.0095
30587W        W47061   9.096  12.581  12.149  0.0567 -0.2817 -0.0607
30588W        W47062   7.916   7.752  14.920 -0.4006  0.0012 -0.0646
30589W        W47063  11.864   1.646   3.094 -0.0350  0.1337  0.2745
30590W        W47064   0.509   5.185  15.075  0.0516 -0.1998 -0.0059
30591W        W47065  13.006  15.533  11.509  0.2304 -0.0259 -0.0347
30592W        W47066   8.653   2.811   2.955 -0.3142 -0.0920  0.0520
30593W        W47067  13.453   8.339   0.828 -0.1275  0.3735 -0.2857
30594W        W47068   3.811   4.684   0.571  0.0087  0.0343 -0.0454
30595W        W47069   9.565  10.210   4.122 -0.3539 -0.1895 -0.1197
30596W        W47070  16.348   3.915  11.135 -0.0885  0.0332 -0.0090
30597W        W47071   2.003  12.399   3.677 -0.1219 -0.2111  0.0428
30598W        W47072  18.329  16.648   2.342 -0.0040  0.2329 -0.1148
30599W        W47073  11.524   7.132   2.501  0.0583  0.1635 -0.2503
30600W        W47074  13.212   4.978   4.027 -0.1683 -0.0998  0.1488
30601W        W47075   7.736  11.596   0.297  0.2251 -0.0688  0.0403
30602W        W47076   9.959   7.144   2.406 -0.2105  0.1227  0.0062
30603W        W47077  18.260  10.312  15.533  0.3663 -0.0097 -0.1375
30604W        W47078  12.880   2.134  15.495  0.1851  0.1381 -0.3401
30605W        W47079  18.168  13.234   1.057  0.2581 -0.1037  0.1204
30606W        W47080  14.053  10.721  13.367 -0.0364 -0.2567  0.2059
30607W        W47081  11.053  14.234  11.632 -0.1603 -0.0666  0.0640
30608W        W47082   9.973  12.861   0.581  0.0031  0.3918  0.2751
30609W        W47083   8.475   1.362  14.186  0.2003  0.1025 -0.1515
30610W        W47084   2.383  12.452  14.408 -0.1759  0.2884  0.0017
30611W        W47085  17.707   4.380   3.563  0.1021  0.1301 -0.0100
30612W        W47086   1.483   1.680   5.664 -0.3070 -0.0864  0.1972
30613W        W47087  11.637  16.831  15.342 -0.2760  0.2612 -0.2411
30614W        W47088  17.075   0.205   4.174  0.1327 -0.1568  0.0537
30615W        W47089  12.435  10.445   6.058  0.0952  0.2872  0.2216
30616W        W47090  17.133   2.912  12.487  0.0219 -0.1869 -0.0263
30617W        W47091   0.980   2.206  12.193 -0.2583 -0.0153  0.1905
30618W        W47092   3.948   7.067   2.670  0.0140  0.2316 -0.0765
30619W        W47093   7.435   4.418  13.085 -0.0297  0.0953  0.0035
30620W        W47094  10.770   9.687  14.001 -0.3546  0.3623  0.0438
30621W        W47095   2.366  11.566   4.749 -0.0560 -0.1394  0.0822
30622W        W47096   3.573   9.517  13.184  0.0032 -0.0693 -0.3591
30623W        W47097  16.469  15.877  15.537  0.1956 -0.2448  0.0891
30624W        W47098   2.875   7.556   2.384  0.0189  0.3703  0.2232
30625W        W47099   6.029   4.292  12.655 -0.0137 -0.1358 -0.0540
30626W        W47100   7.383   7.380   4.289 -0.0756  0.0995  0.1680
30627W        W47101  11.893  12.343  14.308 -0.2956  0.0839 -0.2162
30628W        W47102  17.280  16.951  12.773  0.1399  0.3328 -0.2201
30629W        W47103   2.709   7.480  11.201  0.0928 -0.0748  0.1082
30630W        W47104   5.877  12.523  12.491 -0.2253 -0.1709 -0.0639
30631W        W47105   4.166  10.097   2.956 -0.0348 -0.0796 -0.0978
30632W        W47106   5.024   8.060  11.599 -0.1799 -0.1797  0.3571
30633W        W47107   0.671  16.093   0.265  0.0315  0.0248 -0.3284
30634W        W47108   3.674  15.023  14.002 -0.2137  0.0480  0.0280
30635W        W47109   0.318   6.106  12.127  0.1483 -0.3577  0.1720
30636W        W47110  18.795  12.864  15.342 -0.2990 -0.0462 -0.0676
30637W        W47111  11.842   6.414  14.191 -0.2279 -0.2183  0.3529
30638W        W47112   5.085  13.233   2.360  0.0687 -0.1451  0.3365
30639W        W47113   8.609   9.995  15.285  0.0691  0.0226  0.0964
30640W        W47114   9.020  13.630   4.601 -0.0316 -0.1405 -0.0761
30641W        W47115  14.685   3.267   1.568  0.4595  0.0457 -0.1003
30642W        W47116  10.407   2.746   1.954 -0.0008  0.0083 -0.1274
30643W        W47117  13.681   3.223   2.325  0.2405 -0.6099 -0.1255
30644W        W47118  14.993   3.625  12.649 -0.1448 -0.0335  0.0081
30645W        W47119  15.938   6.308   3.826 -0.1975 -0.3498 -0.2051
30646W        W47120   3.998   3.670  12.845 -0.0640  0.1850 -0.0714
30647W        W47121  16.290   3.741  14.799 -0.4483  0.0748 -0.5591
30648W        W47122  10.488   2.495   4.857 -0.2222 -0.0582  0.2503
30649W        W47123  10.041  12.472  11.073  0.1947  0.1486 -0.0475
30650W        W47124  11.208  10.771   4.415  0.1044 -0.5582  0.0143
30651W        W47125  16.379  11.805  12.556 -0.0118 -0.3850  0.2666
30652W        W47126  11.852   7.111  15.098  0.1952  0.1344 -0.1037
30653W        W47127  12.783  11.306   9.962 -0.2983  0.0889  0.1066
30654W        W47128   2.543   8.585   2.682  0.0195 -0.2070 -0.2746
30655W        W47129  12.894   5.451   0.647 -0.3611  0.0780  0.2300
30656W        W47130  13.335   2.973   0.029  0.0728  0.0332 -0.1466
30657W        W47131  17.067  13.240   1.054  0.0920  0.4396  0.0214
30658W        W47132   9.290  18.389  12.122 -0.2651 -0.0572 -0.1370
30659W        W47133   1.776   4.376  11.349  0.0992  0.4124 -0.2614
30660W        W47134   5.777  17.366   1.860 -0.2186 -0.1799 -0.3430
30661W        W47135  17.819  17.116   2.953 -0.0296 -0.0998  0.2516
30662W        W47136   7.710   2.447   5.695  0.0845  0.3182 -0.1889
30663W        W47137   5.315  17.721  12.316  0.2079  0.2348  0.2190
30664W        W47138   2.105   1.000   4.927  0.5487 -0.5479  0.1152
30665W        W47139   0.593   0.047  12.192  0.1384  0.0482 -0.1181
30666W        W47140  15.072   8.315   1.141  0.1655 -0.0021 -0.0604
30667W        W47141   5.974   8.164   3.202  0.3092  0.1822  0.1149
30668W        W47142   2.436   1.270   2.365  0.1489 -0.2547 -0.1334
30669W        W47143  16.782   1.306   4.852  0.0169  0.0983 -0.4240
30670W        W47144  14.667  10.377  12.230 -0.3436  0.0600 -0.0969
30671W        W47145   0.531   4.460  10.889  0.0109 -0.0763  0.0046
30672W        W47146   4.669   7.555   1.007 -0.1454  0.0052  0.0626
30673W        W47147   6.851   8.076   2.822 -0.1913  0.3816 -0.2985
30674W        W47148   7.007   5.587   6.343  0.0468  0.0686 -0.3130
30675W        W47149  15.650   8.552  12.776 -0.3617  0.1326 -0.3610
30676W        W47150  18.114   2.996   3.384  0.1555  0.1774  0.2090
30677W        W47151   5.398  11.229   1.538 -0.2557  0.1448  0.2079
30678W        W47152  14.195  14.672  12.141  0.0693  0.1842  0.0258
30679W        W47153  16.815   7.089   4.700  0.0791  0.1800 -0.2841
30680W        W47154  16.028   8.675   4.340 -0.0364  0.1439  0.1314
30681W        W47155  16.671   4.385  13.680  0.0224  0.0768  0.0968
30682W        W47156   9.463  15.701   1.116 -0.4458 -0.2816 -0.0051
30683W        W47157   2.530   6.198   1.581  0.2101  0.2137 -0.1076
30684W        W47158  16.020   2.014  13.677 -0.2937  0.0576  0.0210
30685W        W47159  14.268  15.789  13.329  0.0878  0.0047 -0.0120
30686W        W47160   6.368   8.195   2.892  0.0428 -0.4627 -0.1971
30687W        W47161   7.477  10.070   4.960 -0.2093  0.2660  0.2590
30688W        W47162   7.146  14.777  11.219  0.3020 -0.2388  0.1155
30689W        W47163   0.830  15.571   1.160  0.0006  0.3013 -0.0727
30690W        W47164   3.397   2.698   3.132  0.0477 -0.3674  0.4443
30691W        W47165   9.192   4.171  11.785  0.0812  0.4075 -0.0465
30692W        W47166  17.213   4.794  12.584  0.1422  0.0456 -0.0387
30693W        W47167  17.351   2.056   1.579 -0.3769 -0.1303  0.0138
30694W        W47168   7.257  13.637   4.122 -0.2684  0.4624  0.1267
30695W        W47169  18.020  16.524   4.995  0.2626  0.2408 -0.3114
30696W        W47170   2.798   7.555   0.807 -0.2239 -0.0339 -0.0578
30697W        W47171  11.313   2.774   1.312  0.1004  0.4423  0.2811
30698W        W47172   8.575   5.328  15.044 -0.1111  0.0486 -0.1653
30699W        W47173   2.560  12.986   4.280  0.1785  0.0683 -0.1007
30700W        W47174   1.682  16.098   2.843 -0.0734  0.2377  0.0695
30701W        W47175  16.352  14.422  10.701 -0.1028 -0.0376 -0.1777
30702W        W47176  12.451   9.916   2.792 -0.0590 -0.0800  0.1015
30703W        W47177   2.253   6.910  12.477 -0.2445  0.3984  0.0839
30704W        W47178  14.810  11.989   0.522 -0.0021 -0.1368 -0.3008
30705W        W47179  17.608   0.807  11.016  0.3590 -0.2148  0.3649
30706W        W47180  18.687  16.109   2.655  0.0586 -0.0409 -0.1354
30707W        W47181  17.359   1.250  10.929  0.2337  0.1959 -0.1575
30708W        W47182   5.196  13.735  12.953  0.5601  0.1175 -0.2864
30709W        W47183  16.152  14.779  12.837  0.2821  0.1691  0.1616
30710W        W47184  11.887   2.845   4.331 -0.2272  0.0339  0.0872
30711W        W47185  11.551  18.780   5.316 -0.1380  0.2489 -0.1545
30712W        W47186   9.496  17.676   3.161  0.2130 -0.0477  0.3005
30713W        W47187  17.526  15.522  11.931 -0.2675 -0.0311 -0.0871
30714W        W47188   2.712   5.148   3.287  0.2858  0.3166  0.3739
30715W        W47189  11.837  12.503   0.727 -0.3067 -0.1223 -0.1527
30716W        W47190   7.663  15.531   0.833  0.0921  0.1957 -0.2947
30717W        W47191   7.627  17.879  12.878 -0.2233 -0.1500  0.0479
30718W        W47192   3.639  10.065   5.729  0.0251 -0.0513  0.0761
30719W        W47193   3.444   9.364  12.424  0.0803 -0.0816  0.1090
30720W        W47194  12.000  11.932  12.635  0.0425 -0.0239  0.0759
30721W        W47195   8.771   0.199  12.174  0.2320  0.0940  0.0644
30722W        W47196   7.212  18.000   0.107 -0.1606  0.2130  0.3703
30723W        W47197  11.302   8.299   1.754 -0.0450  0.1118  0.1646
30724W        W47198  10.637   0.235   5.156 -0.1767 -0.2147 -0.1738
30725W        W47199  15.994  11.110  14.012  0.2185  0.0107 -0.0493
30726W        W47200  16.516  15.387   2.450 -0.2558 -0.0338 -0.1276
30727W        W47201   3.437   7.819   4.063  0.1435  0.1101  0.1590
30728W        W47202   2.205  13.589  14.799  0.2395  0.0350 -0.0443
30729W        W47203  11.246   6.447   6.382 -0.1848 -0.0975 -0.2739
30730W        W47204  11.453  16.943   0.631 -0.4542  0.0941  0.3043
30731W        W47205   9.812   1.536   3.966 -0.1776 -0.0398  0.0341
30732W        W47206   7.941   3.927  12.150 -0.0651 -0.1875 -0.2575
30733W        W47207   1.126  16.925  13.508  0.0138 -0.1232 -0.0495
30734W        W47208   5.714   1.527  15.584 -0.0058 -0.1635 -0.2927
30735W        W47209   3.530  18.323   0.931 -0.4329 -0.1960  0.0392
30736W        W47210  10.742   4.450   4.671  0.0232  0.3204 -0.2688
30737W        W47211  18.037   5.834   2.050 -0.0431  0.0277  0.2566
30738W        W47212   3.991   6.247   3.233  0.1963 -0.2949  0.0050
30739W        W47213   0.607   3.471  12.302 -0.0378 -0.3409 -0.3108
30740W        W47214  14.546  18.159  13.027 -0.0391  0.1298  0.0524
30741W        W47215   5.692  10.043  15.435  0.2537  0.1473  0.3671
30742W        W47216  17.759   9.052  12.636 -0.0548 -0.5512  0.0816
30743W        W47217   9.271   2.326  11.800  0.0894  0.1809 -0.1280
30744W        W47218   6.065  17.813  13.722  0.0150 -0.0483  0.0788
30745W        W47219  12.840  10.005   0.677  0.3676  0.0521 -0.1636
30746W        W47220   2.061   2.726  13.453  0.0551  0.1591  0.1484
30747W        W47221  14.528  16.536   1.687 -0.2254 -0.0610 -0.2625
30748W        W47222  10.883   1.357   2.970  0.2157 -0.1082  0.0013
30749W        W47223  17.053   6.940  14.130 -0.1351 -0.1031  0.0745
30750W        W47224   7.584   0.796   2.391  0.1761  0.2550 -0.0945
30751W        W47225  11.478   1.526   2.105  0.1533 -0.1573 -0.0504
30752W        W47226   7.833  14.085   1.398 -0.1387  0.0994  0.0617
30753W        W47227   9.832  18.835   2.251  0.0378 -0.1927  0.0615
30754W        W47228  18.647  16.808  14.049  0.3284  0.2653  0.1157
30755W        W47229  10.618  10.733  11.830 -0.0926  0.1485  0.3198
30756W        W47230   0.893  18.310   1.256  0.3117 -0.0283 -0.1799
30757W        W47231  15.993  10.368   2.702  0.1047 -0.0173  0.2803
30758W        W47232   5.940   6.902   0.903  0.3644  0.0497 -0.2633
30759W        W47233   6.603  18.820   3.964 -0.1451  0.1914  0.3017
30760W        W47234  15.662  12.787   2.522  0.5019  0.1452  0.0378
30761W        W47235  12.684  16.265   1.636  0.1410  0.0219 -0.0833
30762W        W47236  15.989  14.148   1.296  0.0823 -0.1921 -0.1085
30763W        W47237   1.658  15.459  14.278  0.1507  0.1186 -0.0328
30764W        W47238   6.781  18.587  12.931  0.1430 -0.0443  0.1378
30765W        W47239   4.478   7.686  12.060 -0.2027 -0.0313  0.5571
30766W        W47240   8.680  14.298   1.605  0.0399  0.0223  0.1292
30767W        W47241  18.793   5.573  15.328 -0.0431 -0.2062 -0.0990
30768W        W47242   6.037   3.182   2.737  0.2586  0.0378 -0.4684
30769W        W47243  12.553   1.611   0.461 -0.0959  0.1640  0.0362
30770W        W47244   4.045  16.595  13.049  0.1173 -0.2137 -0.3198
30771W        W47245  17.741   7.384   1.206  0.1000  0.1260 -0.1556
30772W        W47246   4.565   9.511  13.515  0.1476 -0.1381 -0.3124
30773W        W47247   6.985  10.244   4.067  0.0143  0.3311 -0.1817
30774W        W47248   9.041   8.328   0.249 -0.3679 -0.0974  0.0318
30775W        W47249  15.492   0.434  14.346 -0.1115 -0.1983  0.4213
30776W        W47250  15.539   1.593  13.242  0.4729 -0.2511 -0.0832
30777W        W47251   6.961  16.879  10.841  0.1917  0.0896 -0.1453
30778W        W47252  11.936  18.660   5.739  0.2464 -0.1907  0.2062
30779W        W47253   8.139   1.396  14.526  0.0096  0.0369  0.2878
30780W        W47254   4.102  17.667  14.012  0.3578 -0.1930 -0.0841
30781W        W47255   0.721  14.391  12.499 -0.1747  0.1028  0.3690
30782W        W47256  15.761  10.603   3.634  0.1543 -0.0922  0.0351
30783W        W47257  18.745  15.620   0.736  0.1933 -0.2378  0.0018
30784W        W47258   1.987   3.491   4.518  0.2367 -0.2476 -0.4244
30785W        W47259  17.128   4.544   2.149 -0.0741 -0.3393 -0.3611
30786W        W47260   5.065   7.215   1.178 -0.1950  0.1949 -0.2595
30787W        W47261   2.178  15.386   0.968 -0.0028 -0.0447  0.1830
30788W        W47262  11.171   5.080  11.270 -0.0464  0.1061  0.1126
30789W        W47263  15.098   0.687  14.048  0.1797 -0.0353 -0.3698
30790W        W47264  13.811   1.131   3.872 -0.0264 -0.0434 -0.1070
30791W        W47265   3.050  16.893  15.169 -0.0890  0.0960 -0.2450
30792W        W47266  15.572   9.650  11.790 -0.2680 -0.2323 -0.1573
30793W        W47267  17.801   6.442  11.871 -0.0525 -0.2688  0.2069
30794W        W47268   1.664   0.541   2.499  0.1517  0.1632  0.0394
30795W        W47269   4.521   5.130   4.679 -0.1312 -0.3653 -0.0197
30796W        W47270  14.453   9.265  14.047 -0.0287  0.4078  0.0720
30797W        W47271  16.390   1.119  12.228 -0.1957  0.0414 -0.1985
30798W        W47272   4.033   0.490   1.624 -0.2378  0.0325 -0.0360
30799W        W47273  12.884  11.319  11.092 -0.0652  0.1915  0.1310
30800W        W47274   0.238  13.412  14.483  0.0402  0.3082  0.3661
30801W        W47275   7.197  17.138   5.166 -0.1949 -0.0071  0.0305
30802W        W47276  18.805   3.279   1.422  0.0001  0.0435 -0.1068
30803W        W47277   1.855   2.277   1.988 -0.1195 -0.1536 -0.1798
30804W        W47278  11.094  18.161  11.336  0.2591  0.0790 -0.0646
30805W        W47279  14.097   8.875   3.453 -0.0274 -0.0278 -0.3120
30806W        W47280   3.239   5.472   0.545 -0.3520  0.1574 -0.0674
30807W        W47281   8.088  17.057   3.052 -0.2225 -0.5227 -0.0991
30808W        W47282  11.050  12.392  11.176  0.1721 -0.4394 -0.0072
30809W        W47283   9.469   1.346   0.448 -0.1766 -0.2273 -0.0078
30810W        W47284   5.096   3.494  12.131 -0.0023  0.1166 -0.0045
30811W        W47285   5.121   8.474  11.872 -0.0388 -0.0993 -0.2071
30812W        W47286  11.707  13.904   5.602  0.2398 -0.1697 -0.0571
30813W        W47287  11.941  16.671   1.645  0.0320 -0.1826  0.0420
30814W        W47288   7.165  12.246   0.374 -0.0136 -0.0491  0.1614
30815W        W47289  14.575  18.015   1.779 -0.0445 -0.0677  0.1452
30816W        W47290   5.817  14.943  12.510 -0.0787 -0.0807 -0.2112
30817W        W47291   3.716   3.201   0.979 -0.1052 -0.1072 -0.0397
30818W        W47292  12.687  17.186  12.498 -0.1250 -0.0298  0.0983
30819W        W47293   3.327  11.743   3.460 -0.3232 -0.0858  0.2527
30820W        W47294  13.577   2.078   0.737 -0.1509  0.0976 -0.0374
30821W        W47295   0.167   0.654  11.563  0.3376 -0.1430  0.0904
30822W        W47296  12.722  10.427   0.951  0.1071 -0.0380 -0.1334
30823W        W47297   6.576   0.501  15.649  0.4436 -0.1239  0.0488
30824W        W47298  17.150   7.780  15.031 -0.0444  0.2410  0.0977
30825W        W47299   9.198  14.522   1.675  0.2878  0.2083  0.3830
30826W        W47300  11.047   8.082   5.305 -0.0933 -0.1602 -0.2270
30827W        W47301  12.694  17.381   2.366  0.2811 -0.1707  0.2551
30828W        W47302   8.370  18.417   1.656 -0.3791 -0.2503  0.0918
30829W        W47303  12.798  18.595   1.668  0.1883  0.3355  0.0743
30830W        W47304   5.608   9.575   1.332  0.1784  0.2448 -0.0213
30831W        W47305  11.055   1.647  14.936 -0.2022  0.1445 -0.1706
30832W        W47306   1.318   9.943  13.394  0.0264  0.1404  0.2710
30833W        W47307  17.394  17.094  14.845  0.0350  0.2243  0.1734
30834W        W47308   2.235   5.604   0.836 -0.2025 -0.3043  0.1275
30835W        W47309   6.590   7.132   5.518 -0.2381 -0.1359  0.1347
30836W        W47310  18.354   2.837   3.849 -0.2672 -0.1876  0.1491
30837W        W47311   4.386   4.238  11.230 -0.2032 -0.2467  0.0550
30838W        W47312   7.917  14.321   0.723 -0.2385  0.2045 -0.2480
30839W        W47313  17.345   5.751  12.876 -0.0329 -0.2151 -0.1069
30840W        W47314   3.947   4.577  13.903  0.1536  0.0842  0.3004
30841W        W47315   2.133   8.383  13.769 -0.2187 -0.4151 -0.1762
30842W        W47316   1.301  10.039   2.407  0.0576 -0.0345  0.0693
30843W        W47317  12.984  11.144  13.298 -0.0343  0.0277  0.0509
30844W        W47318   0.775  13.081  15.633  0.2895 -0.0497 -0.0394
30845W        W47319   4.595  18.635   1.702  0.1861  0.0446 -0.0204
30846W        W47320   6.926  17.051   1.194  0.2021  0.3015  0.1698
30847W        W47321   3.665   5.343   1.194  0.1282 -0.0151  0.1449
30848W        W47322   6.245   1.946   1.275  0.0090 -0.1626  0.0401
30849W        W47323  16.335   3.088   0.033  0.2005  0.1518  0.1479
30850W        W47324   5.852   8.643  12.460  0.0615  0.2530 -0.0677
30851W        W47325  10.186   8.602   1.363  0.0665 -0.1253  0.1261
30852W        W47326   2.790   5.583   2.149 -0.0908 -0.0508 -0.2330
30853W        W47327  13.728   3.995  10.830  0.5686  0.1416 -0.0669
30854W        W47328   4.297  10.899  12.326  0.1930 -0.1733 -0.4975
30855W        W47329   7.774  17.311  14.629 -0.0836 -0.3744 -0.0513
30856W        W47330   8.360  13.325  13.623  0.3516 -0.2626 -0.0758
30857W        W47331   7.265  11.852   5.840  0.0371  0.2483 -0.2636
30858W        W47332  13.703  11.672   5.557  0.0718  0.1390  0.1348
30859W        W47333  17.224   0.729  13.191  0.1409 -0.0352 -0.0152
30860W        W47334   9.227  16.701   4.162 -0.0011  0.3512  0.1809
30861W        W47335  17.701  17.241  11.343  0.0649  0.0708  0.1768
30862W        W47336   7.121  13.969   3.088 -0.0661  0.1306 -0.1576
30863W        W47337   2.751   0.559  14.181  0.0720 -0.0192  0.0751
30864W        W47338   9.040   5.333  15.152  0.2642  0.1436  0.0821
30865W        W47339  18.794   4.616  12.457 -0.0396  0.2326 -0.1400
30866W        W47340   4.620  13.641  10.775  0.2157  0.0941 -0.3023
30867W        W47341  18.170   6.368  14.729  0.1900 -0.1503 -0.3352
30868W        W47342  17.951  15.595   3.005 -0.0242  0.2142  0.0229
30869W        W47343   7.989  18.835   0.021  0.1674 -0.0664 -0.0378
30870W        W47344   6.746   4.153   1.224  0.1111  0.0647 -0.1114
30871W        W47345   0.061  14.320   0.953 -0.2519 -0.0164  0.2718
30872W        W47346  14.327   4.846  12.500  0.1912 -0.1198 -0.1729
30873W        W47347   6.312  12.192   1.336  0.1244  0.4313  0.1248
30874W        W47348  14.529  12.608  10.707  0.2566  0.3136 -0.0579
30875W        W47349  13.269   1.022  10.847 -0.0820  0.2489 -0.0085
30876W        W47350  10.621   1.790   3.722 -0.2478 -0.2296 -0.3107
30877W        W47351   0.924   2.474  11.462 -0.2341  0.1237 -0.1530
30878W        W47352   0.756   4.027  15.560  0.0374 -0.1733 -0.0016
30879W        W47353   1.833   3.768   4.930 -0.2076  0.2514  0.3028
30880W        W47354  15.699   2.297  15.640  0.1389  0.3359  0.3438
30881W        W47355   8.316   8.475   4.915  0.1986  0.1014 -0.0997
30882W        W47356   3.092   7.080  13.073  0.1799  0.0163  0.4556
30883W        W47357   0.984  17.592   3.835 -0.2498  0.0156 -0.0881
30884W        W47358  11.593  13.407   4.693  0.2010 -0.3168 -0.4023
30885W        W47359  15.262   6.039  12.970  0.1497 -0.1308 -0.3761
30886W        W47360   2.218  18.182   4.626  0.0853 -0.0057 -0.1975
30887W        W47361  15.771  14.473   4.951  0.2032  0.1891  0.1693
30888W        W47362   8.030   8.348  12.178  0.1988  0.1438 -0.1255
30889W        W47363   8.238   0.076  13.577 -0.1147  0.0078  0.0219
30890W        W47364   7.956  11.024  13.982  0.1718  0.2168  0.0537
30891W        W47365  10.663  11.413  13.279  0.1205 -0.4209 -0.2822
30892W        W47366   3.161  12.103  13.291 -0.3604 -0.2051 -0.2059
30893W        W47367   4.954  16.836  15.226  0.1271  0.2146 -0.2854
30894W        W47368  13.768   1.703   1.689 -0.0949 -0.0655 -0.3286
30895W        W47369   0.219  13.116   3.223 -0.1467 -0.0477 -0.0114
30896W        W47370   2.521  10.592   4.379 -0.2036 -0.2322  0.0734
30897W        W47371   3.386   5.835   4.817 -0.0777 -0.4904 -0.0841
30898W        W47372   9.365  16.693  11.662 -0.1892 -0.4216 -0.3937
30899W        W47373  16.563  17.561  10.589  0.0350 -0.0136 -0.0044
30900W        W47374   0.315   8.347   2.217  0.0860 -0.1125 -0.4077
30901W        W47375  14.108  17.186  13.867 -0.1432  0.2335  0.4452
30902W        W47376  18.821   0.310   4.113  0.0660 -0.4052  0.2229
30903W        W47377   5.538  10.914  14.463  0.0457  0.0777 -0.2183
30904W        W47378  13.910   4.825   4.747  0.0272  0.1141  0.2565
30905W        W47379  14.295   1.321   0.159  0.3407 -0.2143  0.1572
30906W        W47380  15.595  17.657  13.079 -0.0068  0.2728  0.1456
30907W        W47381  15.950   2.106   2.266 -0.1897  0.3647  0.0858
30908W        W47382  17.045   6.386  14.814 -0.0840 -0.3867 -0.0266
30909W        W47383   2.317  11.642  14.414 -0.1083 -0.0149 -0.1244
30910W        W47384   6.662   9.962   1.211  0.4511  0.0468  0.0842
30911W        W47385  14.463  15.788  12.348  0.4741 -0.1102  0.1435
30912W        W47386   0.866   2.169   4.546  0.0219 -0.1440  0.2193
30913W        W47387  13.880   0.561  12.929  0.2648  0.3011  0.1428
30914W        W47388  13.732   9.155   1.320  0.5195  0.0392  0.0293
30915W        W47389  17.040  16.436  11.648  0.3275 -0.0501  0.2976
30916W        W47390   0.592  18.213  11.221  0.2269  0.0498  0.3756
30917W        W47391  15.236   3.956   2.907  0.1100 -0.2880 -0.0585
30918W        W47392  12.354   0.097  14.707  0.1627  0.1876 -0.2299
30919W        W47393   2.698  15.805  12.938 -0.0303 -0.0402 -0.0393
30920W        W47394   6.621  15.909   2.367  0.1952 -0.2809 -0.0044
30921W        W47395  11.145   2.321  15.655  0.1646  0.2257  0.1072
30922W        W47396   4.629  15.462   1.158 -0.2136 -0.2203  0.0141
30923W        W47397  17.934  17.920   3.804 -0.0653 -0.0685 -0.0629
30924W        W47398   4.619  10.847   2.500 -0.0124  0.1781 -0.1939
30925W        W47399  15.338  11.217   5.178 -0.0805 -0.0466  0.0722
30926W        W47400   8.331   3.657  13.544 -0.1811 -0.0904 -0.0169
30927W        W47401   1.057  12.098   0.564 -0.2407 -0.2118 -0.0780
30928W        W47402  17.782   9.830   5.413  0.1541 -0.1251 -0.0264
30929W        W47403  15.793  12.651   1.723 -0.0325  0.0578  0.2396
30930W        W47404  17.906  18.363  10.990  0.0836 -0.0844  0.1582
30931W        W47405  17.572  11.084  15.277 -0.2332  0.0366 -0.1105
30932W        W47406   0.464   6.073   0.704  0.1603  0.1198 -0.0189
30933W        W47407   3.626  18.306   1.455  0.1835  0.2262  0.3121
30934W        W47408  17.826  16.415  13.761 -0.5300  0.0238  0.2548
30935W        W47409  11.029   3.249   4.258  0.2528 -0.2331 -0.2231
30936W        W47410  12.329  15.219   3.149  0.2449 -0.0987 -0.1660
30937W        W47411   1.557   7.444   2.881  0.0534  0.1894  0.2415
30938W        W47412   1.935   8.153  10.779  0.0826 -0.0292 -0.2388
30939W        W47413   9.773   5.260   0.338 -0.1294 -0.0367 -0.0017
30940W        W47414   2.060   1.294   0.476 -0.0834 -0.1603  0.2521
30941W        W47415   2.026  11.053  12.918 -0.2461  0.0456 -0.3760
30942W        W47416  16.630   8.051  15.673 -0.0344  0.0828 -0.0356
30943W        W47417   3.667  11.265  11.030  0.1327 -0.2163  0.1427
30944W        W47418  13.980  18.177  11.672  0.1444 -0.0953  0.2354
30945W        W47419  15.278  11.064  11.504 -0.0327  0.0687  0.1044
30946W        W47420   1.709  16.018  14.433  0.0551 -0.2284 -0.1135
30947W        W47421   3.219  14.737  14.004  0.0091 -0.0457 -0.1572
30948W        W47422  10.226   6.496  12.352  0.0309 -0.1097  0.2756
30949W        W47423  13.386  18.699   2.164  0.0311  0.1611  0.2379
30950W        W47424  18.831  12.720   3.407 -0.2611  0.2001 -0.0832
30951W        W47425   3.603   1.460   2.826 -0.1900  0.0103 -0.0548
30952W        W47426  17.209   7.322   5.430 -0.1741 -0.3014  0.0146
30953W        W47427   9.652  16.878   0.200 -0.0057  0.1293  0.0236
30954W        W47428  13.101  17.103   3.736 -0.3589  0.1598 -0.1226
30955W        W47429   6.058  12.637   0.493 -0.0261 -0.0977 -0.0281
30956W        W47430  17.742   6.281  12.400 -0.0589  0.0681  0.0049
30957W        W47431  10.336  18.157   5.058 -0.0136  0.0632  0.1252
30958W        W47432   5.656   1.526   5.424  0.3285 -0.0489 -0.0451
30959W        W47433   6.453   3.462  14.130  0.3325 -0.0450  0.2797
30960W        W47434   2.571   7.877   5.549  0.1800 -0.0527 -0.4277
30961W        W47435   9.700   3.055   5.731 -0.2285 -0.0957  0.0568
30962W        W47436   2.691   8.355   5.078  0.0345 -0.2822 -0.1342
30963W        W47437  11.250   4.607   2.409 -0.1571  0.2281 -0.1556
30964W        W47438  10.182  10.450  14.912 -0.2840 -0.2256  0.2893
30965W        W47439  13.332  12.316   4.102 -0.1309  0.1014  0.0068
30966W        W47440  17.135   7.021   1.337  0.2186 -0.1165 -0.0947
30967W        W47441  10.602   7.132   1.832 -0.0636  0.2832 -0.2503
30968W        W47442   7.062   0.576  13.059  0.1676  0.4528 -0.3058
30969W        W47443   3.779  17.718  11.876 -0.0786 -0.3164 -0.2786
30970W        W47444  14.223  11.879   1.593 -0.0470 -0.1367  0.1437
30971W        W47445   8.108   7.894   3.337  0.0031 -0.5392 -0.2640
30972W        W47446   4.282  13.792   4.424  0.0207  0.0506  0.2628
30973W        W47447   9.635   5.726   4.425  0.3696 -0.2413  0.4529
30974W        W47448   6.263  15.885   2.721  0.0276  0.1779 -0.3669
30975W        W47449   4.974   1.621  14.365  0.0105  0.1120  0.2402
30976W        W47450  11.838  16.761  12.460 -0.1700 -0.4179 -0.2225
30977W        W47451   7.132  17.887  13.519  0.2625 -0.0031  0.2194
30978W        W47452   5.591  12.860  12.180 -0.1769 -0.0502  0.1800
30979W        W47453   9.430   5.428   3.895  0.3921 -0.1640 -0.1289
30980W        W47454   8.521  17.008   1.167  0.2278 -0.0799  0.0813
30981W        W47455  12.007   8.132   2.460 -0.1784 -0.1190 -0.0919
30982W        W47456   7.801   7.612   0.724 -0.0043  0.0138  0.2532
30983W        W47457  13.194  15.507   1.795  0.0362  0.0003 -0.1578
30984W        W47458   2.275  10.834  12.388 -0.2824 -0.2846 -0.0648
30985W        W47459  11.707  13.599  11.147 -0.0838 -0.0297  0.0985
30986W        W47460  14.466   6.441  13.307  0.1685 -0.0415 -0.1624
30987W        W47461  18.321  10.797  12.512  0.0566  0.2854  0.1345
30988W        W47462   7.219  15.309  13.683 -0.0788  0.1950  0.4148
30989W        W47463  10.219  14.900   1.075 -0.0816  0.0371  0.4536
30990W        W47464  15.398  16.021   0.509  0.1466  0.1363  0.0236
30991W        W47465  17.767   9.177  11.309  0.3119 -0.0021 -0.0572
30992W        W47466   9.558  13.729   3.350  0.0296  0.0341  0.0556
30993W        W47467   8.623  10.521  15.448 -0.1800 -0.0865  0.0113
30994W        W47468   7.328   3.264  13.672  0.2695  0.3244 -0.1518
30995W        W47469  16.948  10.494   0.433 -0.1097 -0.4866  0.3429
30996W        W47470  11.060  18.391   2.928  0.1538 -0.4628 -0.1794
30997W        W47471   2.625   8.627  12.978 -0.1352  0.0051 -0.1747
30998W        W47472  14.258   7.287  13.840 -0.2471  0.3493 -0.1147
30999W        W47473   1.712  16.451  12.862 -0.1139 -0.1660 -0.0316
31000W        W47474   2.246   4.119  14.874 -0.0201 -0.1487  0.1743
31001W        W47475  11.209  17.977  15.183 -0.0781  0.0154 -0.1524
31002W        W47476   4.571  11.519   4.968  0.0717 -0.1320  0.1547
31003W        W47477   9.143   3.711  14.112 -0.2847 -0.0454  0.1028
31004W        W47478  17.786  15.828   2.361  0.0174  0.0116 -0.2268
31005W        W47479  16.696   3.470   1.758 -0.1030  0.0395 -0.2544
31006W        W47480  16.200  10.743  13.672 -0.0440  0.1123  0.0908
31007W        W47481  16.424  18.006   4.655  0.1462 -0.3520  0.0637
31008W        W47482  16.677  14.457   0.692  0.0698  0.2542 -0.0505
31009W        W47483   8.533   8.291   0.269 -0.0281 -0.4947  0.0903
31010W        W47484  13.931  18.406  12.673  0.0293  0.2127  0.1301
31011W        W47485  16.481   9.148   2.123 -0.1618  0.2633 -0.0693
31012W        W47486   7.598   1.696   2.211  0.1722  0.3524  0.0659
31013W        W47487   7.021   1.446  15.106 -0.0338 -0.1797  0.0383
31014W        W47488   1.548   2.657   3.872 -0.1192 -0.1054  0.1558
31015W        W47489  18.352  18.078   1.104  0.1593  0.2352  0.3263
31016W        W47490  10.434   9.046  14.507  0.0755 -0.1745 -0.4055
31017W        W47491   4.771  12.645  15.392  0.0630 -0.0695 -0.3708
31018W        W47492   6.028   5.295  11.984  0.0575 -0.0141  0.0007
31019W        W47493  16.978  17.704  11.877  0.1380 -0.3297  0.2282
31020W        W47494  13.363   7.563   3.570  0.1987  0.1899  0.1204
31021W        W47495  15.760  18.794  15.593 -0.4326  0.2465 -0.2389
31022W        W47496   2.696  13.058  11.948 -0.3319 -0.1164  0.0191
31023W        W47497  18.128   4.611   3.202 -0.0994 -0.2546 -0.2284
31024W        W47498   7.253  11.260  13.127 -0.1100  0.3809 -0.3376
31025W        W47499  11.080  16.947  14.308  0.0951 -0.1260  0.1510
31026W        W47500   2.008  10.623  11.710 -0.5517  0.3393  0.1854
31027W        W47501  17.913   2.844   0.733 -0.0082  0.1898 -0.0363
31028W        W47502   3.209  14.646  11.515  0.2242 -0.2752  0.0684
31029W        W47503  18.035  12.573  12.862  0.0317 -0.2525  0.0078
31030W        W47504   5.931   5.287   4.567 -0.0340 -0.4764  0.2034
31031W        W47505   5.213  13.381   5.149  0.0766  0.2209 -0.1176
31032W        W47506  12.367  10.142  15.389 -0.0202  0.2681 -0.2419
31033W        W47507  17.682   4.406   4.841  0.0767  0.0621  0.2257
31034W        W47508   9.902   7.178  11.551 -0.3154 -0.1178 -0.3428
31035W        W47509   3.230  17.528   5.852  0.2074  0.3241 -0.2396
31036W        W47510   3.991  15.785   2.864 -0.0113  0.2940  0.1981
31037W        W47511  17.147  11.862   4.817 -0.1886 -0.7300 -0.1062
31038W        W47512  12.246   0.737  10.342  0.1254  0.1817  0.1839
31039W        W47513   2.997   2.496   2.813 -0.0798  0.1724 -0.1194
31040W        W47514  12.585  12.316   3.324  0.2584 -0.0040  0.0061
31041W        W47515  11.568   1.970  11.793  0.2427  0.0119 -0.2233
31042W        W47516  14.076  18.014   3.668 -0.2147  0.0413 -0.1592
31043W        W47517  15.577   8.086  11.133 -0.0823  0.0945 -0.2447
31044W        W47518   7.324   9.843  15.191  0.0091  0.3662  0.1243
31045W        W47519  12.637  14.647   1.483  0.2395  0.0984  0.0475
31046W        W47520  17.563  14.182  13.556  0.0881 -0.1953 -0.1238
31047W        W47521   7.646   7.801   5.794 -0.1683  0.0170  0.0131
31048W        W47522   2.300   9.921  15.243 -0.1728  0.3098  0.0112
31049W        W47523   3.310   6.605  11.763  0.1444  0.1396 -0.1632
31050W        W47524  16.625   5.419   3.652 -0.0857  0.0283 -0.2552
31051W        W47525  13.498  12.987   2.337 -0.2487  0.1773  0.1814
31052W        W47526  13.679   0.124   4.287  0.4301 -0.0833  0.1268
31053W        W47527   8.310  11.594  14.672  0.1127  0.1442  0.2557
31054W        W47528  10.904  12.825   3.393 -0.4542 -0.1694  0.2707
31055W        W47529   0.596  13.257  12.006  0.1677  0.1863  0.3856
31056W        W47530   6.581   7.513  13.979  0.2335  0.1644  0.0397
31057W        W47531  18.622  12.173   2.627 -0.1469  0.0063 -0.2811
31058W        W47532  13.621  13.804  14.815 -0.1941  0.3068  0.0772
31059W        W47533  14.970   0.906  10.922 -0.0942 -0.1165  0.0111
31060W        W47534  13.269  14.381  12.014 -0.3180  0.0190  0.0219
31061W        W47535   3.081  17.831   3.528 -0.0584  0.1745 -0.1284
31062W        W47536   3.681   9.329   2.055 -0.0032 -0.2453 -0.0020
31063W        W47537   0.015  14.765   4.518  0.2475 -0.1912 -0.0357
31064W        W47538   8.662   9.216   3.325 -0.1261  0.1336 -0.0744
31065W        W47539  12.548  10.073   3.283 -0.1150 -0.0631  0.1350
31066W        W47540  15.593   0.634  12.302  0.1611  0.1884  0.2333
31067W        W47541   9.943   1.239  14.561  0.2396 -0.2419 -0.1121
31068W        W47542  12.734  12.122   1.175  0.0708 -0.1605 -0.3243
31069W        W47543  12.509   9.359   4.266 -0.2449  0.1427 -0.0058
31070W        W47544   1.642  13.447  13.020 -0.0215  0.4315  0.1109
31071W        W47545  11.523   5.169   3.469  0.1053  0.1115 -0.1072
31072W        W47546  13.977   1.998   2.220  0.2326  0.3448  0.1521
31073W        W47547   5.710   1.350   3.979  0.2475 -0.0867 -0.0217
31074W        W47548   6.062   9.106  11.864 -0.2299  0.1480  0.1989
31075W        W47549  10.418   4.946   2.138 -0.0507 -0.3854 -0.0540
31076W        W47550  11.413   3.452  14.767 -0.3393  0.1322  0.0649
31077W        W47551   2.768  11.641  11.955  0.2695 -0.0855 -0.2767
31078W        W47552   0.294   0.518   0.336 -0.2635 -0.1020 -0.0111
31079W        W47553   3.772   5.147  12.884  0.0961  0.0947  0.2189
31080W        W47554  17.030  14.389  10.013 -0.5120  0.0167  0.1171
31081W        W47555   2.807   9.081  13.800 -0.1350 -0.1207 -0.2958
31082W        W47556  12.217   2.856   4.728 -0.0967 -0.0913  0.2723
31083W        W47557  15.426   6.456   2.391  0.1189 -0.1071 -0.2287
31084W        W47558  14.601   0.724   4.409 -0.1172  0.2273  0.0244
31085W        W47559  12.497   6.238  12.960 -0.0169 -0.2306  0.0218
31086W        W47560  17.139   9.086  13.115 -0.0241 -0.0428 -0.0573
31087W        W47561   2.552   8.873   3.807  0.4171 -0.3135 -0.2467
31088W        W47562  18.154   9.869   2.933  0.1021  0.1353  0.2054
31089W        W47563  14.331   0.020  10.638  0.3261 -0.0076  0.3194
31090W        W47564  13.992  11.977  12.869  0.0356 -0.3557 -0.0404
31091W        W47565  13.301   5.382  13.585  0.0254 -0.0798  0.0827
31092W        W47566   9.869  18.158  14.711 -0.0966 -0.0039  0.0007
31093W        W47567  18.016  13.251  12.085 -0.1175  0.3324 -0.1772
31094W        W47568   4.277   8.875   1.205 -0.1389  0.1428 -0.5622
31095W        W47569   1.659   6.360  12.678 -0.1014 -0.4979 -0.1087
31096W        W47570  10.178   5.490  12.107 -0.0469 -0.2792  0.0904
31097W        W47571   1.546  15.921   1.457  0.0721 -0.4153  0.1186
31098W        W47572   8.356  14.119   2.288  0.1437  0.0943  0.0010
31099W        W47573  16.076   2.718  11.171 -0.0808 -0.3464 -0.0930
31100W        W47574  11.477  12.550  12.151  0.4156  0.0490 -0.1515
31101W        W47575  10.601   7.412   3.398  0.2576  0.1351  0.1488
31102W        W47576   4.835   4.470  11.102  0.1289 -0.1932  0.0723
31103W        W47577  13.805  17.811  11.368 -0.0601  0.0921  0.0176
31104W        W47578   1.095   8.310  10.745 -0.1151  0.3257 -0.0491
31105W        W47579   7.579   0.010   5.202  0.0634  0.0549 -0.0991
31106W        W47580  11.859   2.185  13.449 -0.2137  0.0215  0.0676
31107W        W47581   5.725  10.871   2.216 -0.1355 -0.1588 -0.1570
31108W        W47582  13.061  12.275  12.952 -0.0248 -0.1588 -0.2137
31109W        W47583   2.098   9.818   9.771 -0.0802  0.4981  0.0956
31110W        W47584  16.917   6.263  13.558 -0.1497  0.1595 -0.2561
31111W        W47585  14.896  13.707   0.780 -0.2499  0.0155 -0.0166
31112W        W47586   2.418   8.244   0.242 -0.2094  0.2241 -0.0363
31113W        W47587  13.843   5.276   0.702 -0.1370 -0.0008 -0.0675
31114W        W47588   2.738  16.263  14.826  0.0088  0.1249  0.2289
31115W        W47589   0.794  13.501   4.237  0.1541  0.3381 -0.1025
31116W        W47590  17.534   3.165  13.493  0.0562  0.2886  0.3746
31117W        W47591  12.916  15.059   1.690 -0.4394 -0.1643  0.0882
31118W        W47592   9.499   4.992  15.097 -0.0564  0.0960 -0.0363
31119W        W47593  16.489  12.171  12.153  0.0078  0.1204  0.1850
31120W        W47594  12.595   3.384   3.688  0.1908 -0.0935  0.1768
31121W        W47595   6.105  14.859  15.432 -0.0546  0.1023  0.0241
31122W        W47596   1.128  10.099   4.937  0.0122 -0.1699  0.2029
31123W        W47597   8.292  13.823   0.914  0.0351  0.0354 -0.1228
31124W        W47598  16.729  18.325   0.179  0.0194  0.0550  0.3022
31125W        W47599   6.121   5.796  15.488 -0.5129 -0.2693 -0.2024
31126W        W47600  11.099  11.290   5.168 -0.1124 -0.3027 -0.2835
31127W        W47601  17.900  11.788  10.527 -0.2283  0.2016  0.0993
31128W        W47602   0.488   1.400   3.745  0.0572 -0.3029 -0.0163
31129W        W47603  13.250  13.030   1.901 -0.0441 -0.0864  0.2953
31130W        W47604  16.976  10.515  12.057 -0.1323  0.2834  0.2027
31131W        W47605   0.155   7.005   0.358  0.0405 -0.2298  0.0252
31132W        W47606  14.442  18.472   3.737 -0.0241  0.0332 -0.1669
31133W        W47607  15.652  11.675  13.588 -0.3245 -0.4108  0.0082
31134W        W47608  10.338  12.686   3.684 -0.0602 -0.0803 -0.0955
31135W        W47609  14.852  10.248   3.141 -0.2536 -0.4219  0.0118
31136W        W47610  10.721   6.358   0.802  0.2636  0.2695 -0.0660
31137W        W47611   3.569   4.970   5.025 -0.1056 -0.1187 -0.2101
31138W        W47612   4.150   3.442   0.187 -0.1253  0.2277 -0.2565
31139W        W47613   2.716   2.348  12.288  0.1933  0.1142 -0.1832
31140W        W47614   5.332  13.141   1.065  0.1127 -0.1127  0.0917
31141W        W47615  17.011   2.511   4.691 -0.0099 -0.1469  0.0592
31142W        W47616   1.810   7.771   5.122  0.1262 -0.2610  0.0912
31143W        W47617   4.861  13.040  13.284  0.2250  0.2885  0.0133
31144W        W47618   6.021  15.483   2.694  0.2925  0.0292 -0.0422
31145W        W47619  10.121   0.541  12.721  0.1481  0.0605  0.0137
31146W        W47620   6.021  10.651   0.500 -0.2787 -0.1555  0.0650
31147W        W47621   5.405  18.741  15.692  0.4806 -0.0627 -0.0886
31148W        W47622   7.320   6.816   4.030 -0.0974 -0.2730 -0.2775
31149W        W47623   4.418   1.768  12.314  0.0726 -0.0249  0.1614
31150W        W47624  17.142  18.245   3.000  0.0005  0.0321 -0.0606
31151W        W47625  14.401  13.435   0.095  0.1335  0.1361  0.1193
31152W        W47626   1.954  15.165  13.452  0.2089 -0.2014  0.0456
31153W        W47627  14.672   7.755  14.053 -0.2253 -0.1525  0.2312
31154W        W47628   7.147   2.039  11.633  0.2998  0.2960  0.0236
31155W        W47629   6.291  14.369  14.791  0.3315 -0.0338  0.1716
31156W        W47630   3.184   8.726   0.997 -0.1900 -0.3026  0.3343
31157W        W47631   2.353   4.512  15.114  0.2144 -0.2113 -0.1209
31158W        W47632   8.208  17.483   5.536  0.2057  0.4472 -0.1333
31159W        W47633   4.068   4.654   1.067 -0.1349  0.1575 -0.0817
31160W        W47634   0.070   7.460  11.970 -0.0678  0.2391 -0.3662
31161W        W47635   6.257  15.183  11.535 -0.1442  0.0497 -0.1665
31162W        W47636   2.154  12.900   3.415 -0.0161 -0.0732 -0.5235
31163W        W47637  10.397  15.693   6.017  0.1227 -0.2211 -0.0671
31164W        W47638   2.108  13.171   1.994 -0.0649  0.0217  0.2363
31165W        W47639  17.186  15.037  13.862 -0.0474  0.2546 -0.0684
31166W        W47640  13.820   3.369  14.601 -0.1195  0.0450  0.0114
31167W        W47641   7.112  12.885  12.680 -0.1465 -0.3119 -0.0615
31168W        W47642   1.146  10.262  14.391  0.1939  0.0238 -0.1748
31169W        W47643  11.941   2.855  10.895  0.0051 -0.0377  0.0139
31170W        W47644  18.168   3.079  14.711  0.2859  0.1276  0.0606
31171W        W47645  15.004  14.391   2.399  0.1509 -0.1272 -0.2330
31172W        W47646   0.016  11.890  13.899  0.0489  0.2953  0.0163
31173W        W47647   5.134   3.770   1.725  0.1167  0.0812  0.0688
31174W        W47648   0.568   0.033   3.315  0.2149 -0.0539  0.1256
31175W        W47649  18.015   4.173   4.008  0.0999 -0.0131  0.0110
31176W        W47650  14.246  10.436   0.817  0.0548 -0.0822 -0.0482
31177W        W47651  10.471  10.892  13.397 -0.1130  0.0928  0.0985
31178W        W47652   2.472   3.260  11.003 -0.3318 -0.0314  0.0046
31179W        W47653   0.888   4.465   2.259  0.0387 -0.1711 -0.0220
31180W        W47654   2.697   9.489  12.021 -0.2266 -0.1785 -0.1677
31181W        W47655   7.644  16.582   3.231  0.0211 -0.1717  0.0512
31182W        W47656  18.714  10.042  14.411  0.2883 -0.1027 -0.0192
31183W        W47657   8.251   7.123   2.764 -0.1444 -0.1383  0.0997
31184W        W47658  16.326   9.111   3.548 -0.2706 -0.0468  0.0423
31185W        W47659  18.257   6.646   1.826  0.1030 -0.0946 -0.0026
31186W        W47660   9.064   7.341  15.480  0.1408  0.0814  0.0878
31187W        W47661  10.444   1.134   5.600 -0.0403 -0.0475  0.2025
31188W        W47662   3.171  17.526   4.067  0.2712  0.2958  0.1512
31189W        W47663   2.188   2.026  11.493  0.0827 -0.1818 -0.0117
31190W        W47664   6.858   8.251  12.656  0.0923 -0.1500  0.1040
31191W        W47665  13.681   0.126  12.132 -0.0820 -0.1145 -0.0901
31192W        W47666  14.345   4.026   1.022  0.1819  0.1550  0.0722
31193W        W47667   2.724   5.534   0.963 -0.0726 -0.2215  0.3068
31194W        W47668  13.660  11.361  14.803 -0.1743 -0.3485 -0.1807
31195W        W47669  18.315   2.336  10.755  0.0641 -0.2269  0.1203
31196W        W47670  14.537   8.279   3.928 -0.0477  0.4552  0.3988
31197W        W47671   8.424  15.577   3.679  0.0464 -0.1858  0.1449
31198W        W47672   0.855  10.539  13.468  0.1589 -0.1144 -0.0489
31199W        W47673  13.629  10.675   0.743  0.1462  0.2021 -0.0195
31200W        W47674  10.621   9.706   5.846  0.1281  0.0318 -0.1533
31201W        W47675   8.372   7.618   2.166 -0.1452 -0.2572  0.0567
31202W        W47676  13.592  17.830  11.842 -0.0282  0.6488  0.0141
31203W        W47677  15.118   2.304  13.424 -0.0813  0.0100  0.0319
31204W        W47678  10.177   8.515   3.816  0.0513 -0.0346  0.2146
31205W        W47679   6.916   4.607  14.870 -0.2087 -0.0340 -0.1258
31206W        W47680   9.016  14.943   1.341  0.2421  0.0440 -0.1103
31207W        W47681   2.374   7.782  10.945  0.0756 -0.1452 -0.1927
31208W        W47682  16.457  14.708   0.273 -0.2285 -0.0338  0.1846
31209W        W47683   7.993  16.609   2.738 -0.1043 -0.0391 -0.1988
31210W        W47684   8.718   8.480  13.357 -0.0671 -0.1205 -0.3296
31211W        W47685   2.675   4.006   1.975 -0.0498 -0.0633 -0.1849
31212W        W47686   9.826   3.943  15.145  0.3371 -0.3164  0.0823
31213W        W47687   5.633  11.493  12.492  0.1104 -0.0257  0.1008
31214W        W47688  17.080  12.264   3.584 -0.1007  0.0102 -0.1021
31215W        W47689  13.184   6.577  12.179  0.2613  0.0357 -0.2592
31216W        W47690  14.824  11.404  11.393  0.1587 -0.2162 -0.1822
31217W        W47691   0.575  11.102   4.200  0.1441  0.1049 -0.2816
31218W        W47692   1.154  17.796  10.990  0.0369 -0.1579 -0.1478
31219W        W47693   3.763  12.088   3.147 -0.4007  0.2345 -0.0480
31220W        W47694  15.750  14.925  13.387  0.0039  0.5450  0.1581
31221W        W47695  10.041   2.350  15.108 -0.0377  0.0134  0.1471
31222W        W47696   4.939   3.064  15.146 -0.0403  0.1529 -0.1094
31223W        W47697   4.905  18.658  11.993 -0.0283  0.1446 -0.1507
31224W        W47698  13.201   3.123  14.095  0.3654 -0.1051  0.1297
31225W        W47699  10.245   3.536   1.342 -0.0878 -0.2003  0.2038
31226W        W47700  15.107  16.342   4.553  0.2414 -0.0255  0.1854
31227W        W47701   8.124   0.550  11.695 -0.1693 -0.2740  0.2524
31228W        W47702   8.712   0.675   0.020  0.0742  0.1126 -0.2107
31229W        W47703   2.498  16.176  13.785 -0.1202  0.0377 -0.4062
31230W        W47704  14.924  11.849  11.153  0.0782 -0.3795  0.3086
31231W        W47705   1.743   4.125   0.987 -0.1317 -0.1211 -0.0718
31232W        W47706  17.790  12.128  12.996  0.0559 -0.3584 -0.3836
31233W        W47707   8.624   4.032   2.974  0.2218  0.1626  0.0888
31234W        W47708  16.364  12.446  15.152  0.0179 -0.1831  0.2723
31235W        W47709   9.157  13.841  13.330 -0.0791 -0.0445 -0.1416
31236W        W47710   3.089  13.796   2.590 -0.1778  0.0001  0.1669
31237W        W47711  13.696  16.208  11.349 -0.0786  0.0864  0.2937
31238W        W47712   4.202   8.359  10.802  0.2125 -0.0656 -0.1772
31239W        W47713  14.432   6.487   4.578  0.2067 -0.0662  0.0798
31240W        W47714  15.796   7.450  15.451 -0.0481 -0.2861  0.1638
31241W        W47715  13.602  10.466   1.914 -0.1215 -0.0766  0.1285
31242W        W47716   7.921  16.202   5.278 -0.0786 -0.4110  0.1036
31243W        W47717  16.940  17.889  13.440 -0.3755  0.1309 -0.2118
31244W        W47718   6.930   9.707  13.767  0.2178  0.2305  0.1802
31245W        W47719   8.411  10.640  13.758 -0.3263  0.1355  0.3135
31246W        W47720   3.930   2.741   1.079 -0.0045 -0.1924 -0.1800
31247W        W47721  13.062   9.433   0.473 -0.0859 -0.0446 -0.2744
31248W        W47722  18.223   3.632   1.847  0.1335 -0.2325 -0.3761
31249W        W47723  14.045   6.831   0.361  0.0233 -0.0064 -0.1290
31250W        W47724   0.208   6.244   1.622 -0.2670  0.0342 -0.3456
31251W        W47725  12.050   1.586  15.367  0.2345 -0.0316 -0.1937
31252W        W47726   7.129  17.658   5.066  0.0452 -0.0021  0.2183
31253W        W47727   6.226   1.959   1.734 -0.1906  0.2526  0.3016
31254W        W47728   6.725   6.199   5.342  0.1968  0.1341 -0.0146
31255W        W47729  15.892  14.229   0.766 -0.0325  0.0925 -0.0514
31256W        W47730  12.797  17.112  14.085 -0.0478 -0.1074 -0.0588
31257W        W47731   7.502   7.680   5.020  0.1757  0.4280  0.1414
31258W        W47732   4.829   8.442   2.716  0.0064 -0.3503 -0.1355
31259W        W47733   4.907   0.107   4.475  0.0828 -0.1279 -0.1617
31260W        W47734   4.103  17.645   4.828 -0.2083  0.3035 -0.0042
31261W        W47735  11.038   1.899  12.521 -0.0069 -0.1941 -0.1857
31262W        W47736  13.379   3.562   4.084  0.1613 -0.2232 -0.3146
31263W        W47737  18.530   0.649  14.838 -0.0689  0.1761  0.1462
31264W        W47738  18.344   1.540  13.953 -0.0242  0.3337 -0.3857
31265W        W47739  13.042   3.165   2.854 -0.4548  0.2656  0.4193
31266W        W47740  14.687  16.592  14.121 -0.3846 -0.0279 -0.0887
31267W        W47741   8.231   8.576   2.458  0.0644 -0.4957  0.0508
31268W        W47742  11.148  13.802  14.480  0.0174 -0.3177 -0.0344
31269W        W47743   4.067  16.018   3.744  0.0678  0.4135 -0.0096
31270W        W47744   3.455   8.102   5.140  0.0040  0.1796  0.3005
31271W        W47745  10.007  11.107   3.523 -0.0376 -0.2252  0.1685
31272W        W47746   6.863   9.081   4.822 -0.0183 -0.2052 -0.0365
31273W        W47747  11.600   2.464   4.006  0.3071 -0.0144 -0.2998
31274W        W47748   2.602   5.642   1.611  0.0663  0.0447  0.2742
31275W        W47749  11.989   0.226   1.439 -0.2099  0.0577 -0.2109
31276W        W47750   0.616  18.147  10.637  0.1506 -0.0752  0.0440
31277W        W47751  15.555   7.630   1.492  0.0001  0.1683  0.3732
31278W        W47752  16.239   8.629   3.475  0.0639  0.2493  0.2872
31279W        W47753   6.151  14.747   5.092 -0.0334  0.1688  0.3241
31280W        W47754   9.007   3.738   2.856  0.0132  0.2644  0.4175
31281W        W47755  10.347  18.629  13.531  0.3605 -0.0648 -0.1635
31282W        W47756  16.486   1.155  11.734 -0.1462  0.0005 -0.0692
31283W        W47757   9.866  18.644  14.453  0.1243  0.0534  0.1434
31284W        W47758  14.483   8.878  13.230 -0.0149 -0.2266  0.2122
31285W        W47759  17.938   2.979   4.545 -0.0778  0.1153 -0.1563
31286W        W47760   8.703  15.461   0.038  0.0939 -0.0888  0.1192
31287W        W47761   9.635   8.126  11.382 -0.1671 -0.0449  0.0540
31288W        W47762   9.808   7.985  14.759  0.0811  0.1444  0.2384
31289W        W47763   3.293  16.103   2.756  0.0067 -0.0799  0.0815
31290W        W47764   7.164   5.854   1.744  0.2563 -0.1255  0.0361
31291W        W47765   5.505   9.128   5.671 -0.1042  0.1994  0.0913
31292W        W47766   8.611  12.271   5.767 -0.1536  0.1507 -0.0909
31293W        W47767  10.725   3.247   1.555 -0.1439 -0.0249 -0.3357
31294W        W47768  17.328   3.089   3.657 -0.1466 -0.2363  0.1518
31295W        W47769  14.941   9.134   1.536 -0.0055 -0.0083  0.2560
31296W        W47770   8.534  15.081  11.278 -0.3411 -0.3693  0.0486
31297W        W47771  11.691   7.997  11.688  0.1921  0.1515 -0.4551
31298W        W47772  12.195   7.425   1.664  0.0301 -0.0545 -0.0967
31299W        W47773   7.866  18.447   0.491 -0.0876  0.2492 -0.0429
31300W        W47774   7.755   7.981   1.072  0.0176 -0.0039 -0.2901
31301W        W47775   2.201   9.558  15.630 -0.1680 -0.2104  0.1626
31302W        W47776   1.496   3.984   3.463  0.0239  0.0281 -0.0445
31303W        W47777   7.598   9.051   2.714 -0.0370  0.0723 -0.2148
31304W        W47778   1.914  13.903  15.038  0.0372  0.4310  0.1417
31305W        W47779   0.205  18.381  10.721 -0.0647 -0.3210  0.0512
31306W        W47780  11.755   2.358  12.091 -0.0885  0.0698  0.2524
31307W        W47781   2.910   4.619  12.208  0.3450 -0.0236 -0.0097
31308W        W47782  18.782  16.539   3.753 -0.1784  0.1681  0.0002
31309W        W47783   3.690   5.064   3.381 -0.0583  0.0618 -0.0477
31310W        W47784   1.088  15.535   9.477  0.2341  0.1707  0.0095
31311W        W47785  12.809  12.100   0.231  0.0673  0.0225 -0.0603
31312W        W47786  17.285  13.143   2.528 -0.2702 -0.0398  0.0346
31313W        W47787  18.057  17.089  12.341  0.1746  0.0992 -0.1052
31314W        W47788   9.440   9.056  12.400 -0.0616  0.1373  0.0828
31315W        W47789  10.748   1.968   6.091 -0.0224 -0.2393 -0.1304
31316W        W47790   4.819  15.143  12.687  0.1884  0.1670  0.0793
31317W        W47791  17.767   5.795   5.642 -0.2861 -0.1034 -0.0416
31318W        W47792  15.169  17.353   1.201  0.0971  0.1415 -0.0946
31319W        W47793   4.411   8.701   0.236  0.1716 -0.1515  0.2875
31320W        W47794  18.321   8.747   3.138  0.1654  0.4090 -0.2170
31321W        W47795   0.543   2.835   0.826  0.0038 -0.2064  0.0610
31322W        W47796  17.083  14.167  14.902  0.1517  0.2404 -0.4158
31323W        W47797  11.803   8.009  13.545 -0.2276 -0.2503  0.3414
31324W        W47798   0.163   3.627   0.476  0.0722  0.1349  0.3527
31325W        W47799  16.898  14.819   2.559 -0.1201 -0.2292  0.1715
31326W        W47800   8.360  18.414  14.435  0.0300 -0.1169  0.2031
31327W        W47801   6.847   9.058  14.751 -0.0406 -0.2611 -0.0009
31328W        W47802   1.992   8.270   4.436  0.2275 -0.1001 -0.2312
31329W        W47803  10.419  13.191   3.632  0.0800 -0.0630 -0.3222
31330W        W47804  10.161  15.296  11.359  0.0153  0.1895  0.1791
31331W        W47805   2.575   7.118   0.926  0.0362  0.0118  0.0144
31332W        W47806   4.068  17.758  12.665 -0.2372  0.0094  0.0703
31333W        W47807   2.522  10.029  13.968 -0.1579  0.0928  0.1156
31334W        W47808  14.532   8.315  13.009 -0.0444  0.0376 -0.3923
31335W        W47809   4.450  11.244   0.739 -0.0611 -0.3507  0.0090
31336W        W47810  13.438  12.604   2.731  0.1797  0.3515  0.2349
31337W        W47811  11.156  13.656  13.970  0.2197 -0.0635  0.3023
31338W        W47812  11.467   8.953   1.455 -0.0131 -0.3749 -0.0385
31339W        W47813  18.444  13.389   0.004  0.0398  0.0537  0.0340
31340W        W47814   0.823   6.817  12.308 -0.0928 -0.1082  0.0815
31341W        W47815  11.008   0.596  15.403  0.1048  0.1192 -0.0856
31342W        W47816  17.898  17.361   2.460 -0.2011 -0.1701 -0.0592
31343W        W47817   6.528   3.777  14.504 -0.0528  0.0534 -0.2432
31344W        W47818  12.334  12.460  13.580  0.2016 -0.2968 -0.1948
31345W        W47819  14.177   0.069   0.071 -0.2050 -0.2111 -0.0694
31346W        W47820  14.057   4.153   3.651 -0.3201 -0.0150  0.1561
31347W        W47821   6.584   1.934  10.926  0.0896  0.0312  0.1264
31348W        W47822   2.359  11.783   0.735  0.3541 -0.2163  0.2030
31349W        W47823   3.845   1.993   0.411 -0.0072  0.1381  0.0707
31350W        W47824   2.245  14.678  12.159  0.2176 -0.1745 -0.5897
31351W        W47825   0.082   0.974   0.394 -0.0485  0.2591 -0.2878
31352W        W47826  14.593  10.632  14.448  0.1302 -0.2407  0.1107
31353W        W47827  12.166  17.415  14.730  0.1939 -0.1226  0.1108
31354W        W47828  17.955   9.039   3.361  0.1237  0.1449 -0.3232
31355W        W47829   0.311  10.773  11.574  0.3241 -0.0792  0.0086
31356W        W47830  17.334   9.671  14.408 -0.0679 -0.0439 -0.0994
31357W        W47831   8.329  15.586   2.415 -0.1433 -0.2166 -0.0569
31358W        W47832   2.191  18.210  13.276  0.0380  0.1762  0.2607
31359W        W47833   7.673   9.291   1.839 -0.0878  0.1942 -0.3311
31360W        W47834   2.616   4.165   3.407  0.0231  0.3409 -0.2626
31361W        W47835   1.097   6.531  11.193  0.4188  0.2597  0.2711
31362W        W47836  11.130   0.818  11.225  0.0958  0.0066  0.2945
31363W        W47837  13.174   2.633  12.227 -0.0041  0.0506 -0.0721
31364W        W47838  18.172   3.496   0.048  0.0988  0.4500 -0.1773
31365W        W47839  14.471   3.533  12.527 -0.2865  0.2581 -0.1037
31366W        W47840   8.654   6.103  15.148  0.0366  0.2866 -0.0587
31367W        W47841   4.224   6.825  10.655  0.0327 -0.1105 -0.0043
31368W        W47842   4.776  14.626  14.023 -0.2469  0.3483  0.2065
31369W        W47843  14.979   9.024   3.592 -0.0204  0.1310 -0.0328
31370W        W47844   8.957  14.281   0.714 -0.2207 -0.0161  0.0370
31371W        W47845   1.302  16.261   3.458 -0.0947  0.0549  0.4475
31372W        W47846   3.757   0.759  15.236  0.2386 -0.2211 -0.2348
31373W        W47847  16.330   8.343  11.945  0.1742 -0.0570 -0.2134
31374W        W47848  16.726   6.302  11.296  0.2070  0.0542 -0.0914
31375W        W47849  15.489  15.468   2.663 -0.0353 -0.3270  0.1379
31376W        W47850   3.197  17.187  14.259 -0.0999 -0.0373 -0.2992
31377W        W47851   7.426  14.455  15.135 -0.0817 -0.1016 -0.1839
31378W        W47852   1.402   1.840   5.119  0.0784  0.0019 -0.0955
31379W        W47853  18.470  14.517  15.238  0.2649  0.0909 -0.3865
31380W        W47854  10.142  13.565  12.669 -0.2765  0.0863 -0.0013
31381W        W47855  11.108  14.186   4.538  0.2546 -0.0894  0.1845
31382W        W47856   8.530  10.707   5.455 -0.0564 -0.2670  0.0525
31383W        W47857  18.234  17.752  14.468 -0.3105 -0.1798  0.3960
31384W        W47858   2.217   1.343   0.918 -0.3754  0.0284 -0.0356
31385W        W47859  18.060  11.418   0.640 -0.0806 -0.0528 -0.1352
31386W        W47860   1.977  11.936   3.936  0.0924  0.1144 -0.0984
31387W        W47861  11.576  16.434  12.715 -0.1509  0.0602 -0.0276
31388W        W47862  11.453   6.483   4.132 -0.2842  0.0298  0.1008
31389W        W47863   5.355  14.575  15.014 -0.0533  0.2470 -0.2455
31390W        W47864   7.590   0.992   3.718  0.2113  0.1271  0.0416
31391W        W47865  16.537  16.644   0.645 -0.3615 -0.2577  0.0353
31392W        W47866  15.071  10.013  12.361 -0.0181 -0.0627  0.1135
31393W        W47867  15.099  12.280  12.500 -0.0202  0.3384  0.1300
31394W        W47868  16.734   4.756  14.432  0.1972  0.1869 -0.0605
31395W        W47869  15.084  12.678   0.530 -0.1186  0.1198 -0.0375
31396W        W47870   6.619   4.894   2.150 -0.1787  0.1331 -0.0665
31397W        W47871  13.977   0.553  11.801  0.2354  0.1025 -0.2328
31398W        W47872   1.921   0.311  14.610  0.2601  0.0596 -0.1214
31399W        W47873  12.991  14.663  11.186 -0.1560  0.1213  0.4407
31400W        W47874   2.444   2.985  15.567 -0.4371  0.2078  0.1462
31401W        W47875  11.161  11.896  11.412  0.0314  0.2847  0.0930
31402W        W47876   5.649  14.420   3.206 -0.1153 -0.4028 -0.0235
31403W        W47877  13.157   8.936   3.040  0.1349  0.1106  0.2665
31404W        W47878   2.801  12.080  11.249 -0.2535 -0.0182 -0.2321
31405W        W47879  17.263  10.651   4.893 -0.0347 -0.3998 -0.1569
31406W        W47880   5.344   5.982   4.223  0.0469  0.1046  0.2996
31407W        W47881   5.802   1.907  13.080  0.0462  0.1705 -0.3228
31408W        W47882   4.521  14.102   1.075  0.2947 -0.3089  0.0159
31409W        W47883  11.538   2.016   1.995 -0.1477 -0.2781  0.2582
31410W        W47884   2.169  11.963  11.565 -0.2284 -0.2127  0.0561
31411W        W47885  18.455   8.837   0.622  0.1831  0.0348  0.1265
31412W        W47886   6.272   4.798  13.911  0.3001 -0.2341 -0.1759
31413W        W47887   3.839  11.974   1.308 -0.0300 -0.0921  0.1035
31414W        W47888   9.748   2.065   4.986 -0.2892  0.3154  0.0839
31415W        W47889   3.405  18.224   0.428 -0.2965  0.1539 -0.0798
31416W        W47890  16.045  15.426   2.231 -0.5407  0.1420 -0.2856
31417W        W47891  18.473  12.520  13.191  0.3785  0.0664  0.0925
31418W        W47892   4.617   5.597   5.767  0.0075  0.1687  0.2146
31419W        W47893  16.603  10.991   1.277 -0.3770  0.0056  0.0158
31420W        W47894   6.036   0.841   4.231  0.1881 -0.3341 -0.4741
31421W        W47895   5.169   1.815   0.578  0.3268 -0.3855 -0.2936
31422W        W47896  17.363   4.869  10.679  0.5744  0.0426 -0.1684
31423W        W47897   4.637   0.447   2.948  0.1590 -0.2977  0.0658
31424W        W47898  13.017  14.501   0.941  0.2396  0.0436  0.0513
31425W        W47899  18.665   7.685  14.034 -0.1594  0.1986  0.0410
31426W        W47900  13.851   7.191   0.770 -0.2398  0.0687 -0.1700
31427W        W47901   9.353   4.912   4.643  0.0848  0.1694 -0.0532
31428W        W47902   2.920   5.552  15.431 -0.0117 -0.2277  0.0209
31429W        W47903   9.369   2.233  15.256 -0.2219 -0.2058 -0.0488
31430W        W47904   6.735   8.420   2.474  0.2586  0.1802 -0.2766
31431W        W47905  10.154   8.850   3.399  0.0581  0.1002 -0.4749
31432W        W47906  11.205   5.141   6.308  0.1997  0.2306 -0.0007
31433W        W47907   4.719  14.491   0.813 -0.0804  0.2873 -0.0409
31434W        W47908  17.606   5.749   4.581  0.0778 -0.4209  0.1228
31435W        W47909   5.654   2.120   0.612  0.0270 -0.1565 -0.1475
31436W        W47910  17.816   5.548   1.597 -0.0863  0.2037 -0.0256
31437W        W47911  14.873   6.103  14.913 -0.0791 -0.0904  0.0330
31438W        W47912  18.265   9.681  15.336  0.0249  0.2122 -0.0856
31439W        W47913   2.439   2.660   0.622 -0.0663 -0.1733 -0.0181
31440W        W47914   7.156  13.832  13.187  0.1722  0.1931  0.0166
31441W        W47915   5.957   6.717  15.394 -0.2209  0.1105 -0.1421
31442W        W47916   7.411  12.758   2.583  0.1110  0.3329 -0.0794
31443W        W47917   2.735   4.642   5.291 -0.1975 -0.0962  0.1439
31444W        W47918  14.572  15.467  11.994  0.0047  0.0852  0.1149
31445W        W47919   7.169  18.720  13.521 -0.1435 -0.3605 -0.4115
31446W        W47920   2.981  16.426  10.849 -0.0716 -0.1269 -0.0956
31447W        W47921   8.095   3.706   2.736  0.2978 -0.0165 -0.0992
31448W        W47922   6.471   0.875   5.659  0.4490  0.1513 -0.1027
31449W        W47923  11.705   5.669  13.925  0.1261  0.0723  0.1402
31450W        W47924   8.529   0.662   2.961 -0.0784  0.0885 -0.0209
31451W        W47925  11.755  11.578   2.561 -0.1206 -0.0998  0.1058
31452W        W47926   1.383   3.923  13.709  0.0190 -0.0997  0.3204
31453W        W47927  14.801   5.343   4.339 -0.0087  0.0298 -0.1721
31454W        W47928   5.202   3.641  11.667 -0.0562 -0.0335 -0.1792
31455W        W47929   8.558   6.867   3.757 -0.2680  0.2235 -0.0822
31456W        W47930  17.335  14.651  13.542  0.0217 -0.2074  0.2978
31457W        W47931  11.116  15.585  15.419 -0.0922 -0.1177  0.4229
31458W        W47932   9.466  16.365   3.482  0.0612 -0.2284 -0.1701
31459W        W47933  16.147   6.598   0.962  0.2140  0.1099 -0.1239
31460W        W47934   6.194  18.403   2.368  0.3626 -0.1420  0.0120
31461W        W47935  15.433   2.030  11.453 -0.1228  0.3387 -0.0011
31462W        W47936   7.702  12.585   4.319  0.0853 -0.3090  0.0129
31463W        W47937  17.516   0.807  12.042  0.0343 -0.1262 -0.1424
31464W        W47938   7.893  17.510   1.636 -0.3716 -0.0470  0.0142
31465W        W47939  18.486  18.639  10.674 -0.0387  0.1123  0.0315
31466W        W47940   6.660  12.957   5.076 -0.1691 -0.0467 -0.4307
31467W        W47941   3.898   2.095   4.835  0.0517  0.0031  0.3010
31468W        W47942   9.967  18.321  13.726 -0.3113  0.1568 -0.0199
31469W        W47943   6.309   4.328  15.192  0.1967 -0.2478  0.0470
31470W        W47944   0.942  14.970  12.544 -0.0930 -0.0782 -0.0947
31471W        W47945   0.172   1.631   5.212 -0.0410  0.1659 -0.0598
31472W        W47946   8.956   0.488   2.068  0.0167  0.1502 -0.2184
31473W        W47947   0.887  14.004   4.185  0.1778 -0.2334  0.0818
31474W        W47948  16.017   3.428   3.068 -0.1134  0.1438  0.0646
31475W        W47949   7.840  11.970  13.387  0.1319 -0.1557 -0.0745
31476W        W47950  10.411   4.484  15.416 -0.2148 -0.1801 -0.0275
31477W        W47951   3.236  10.487   5.909 -0.1480 -0.0456 -0.0425
31478W        W47952   6.395  13.404   0.167 -0.0157  0.4558  0.1862
31479W        W47953   3.776   9.877   3.266 -0.0452 -0.2034  0.1792
31480W        W47954   8.923  12.180   2.182  0.2291  0.3620  0.1725
31481W        W47955   6.298  16.690   2.259 -0.1073 -0.3332  0.0833
31482W        W47956   0.492   4.117  14.342 -0.0578 -0.0612 -0.1757
31483W        W47957  18.010  12.278   1.343 -0.1460 -0.2891  0.1258
31484W        W47958  14.403   4.909   4.070 -0.0381  0.0848  0.2574
31485W        W47959  13.542   1.224  11.238  0.1911 -0.1119 -0.2242
31486W        W47960   5.873   5.883  13.223 -0.2469  0.1502  0.1426
31487W        W47961   7.315  10.976  11.846  0.5588 -0.0415 -0.0662
31488W        W47962  10.294   1.416   3.771 -0.0402  0.3884  0.1957
31489W        W47963   7.431   3.405   4.582 -0.3618  0.1908 -0.1298
31490W        W47964  14.195  16.603   3.139  0.3226 -0.0164 -0.2948
31491W        W47965   4.415  14.719  15.264 -0.0354  0.0788  0.1449
31492W        W47966  11.269   5.987   2.289  0.0886  0.2539  0.1568
31493W        W47967   1.214   7.219   3.446 -0.1664 -0.3381 -0.0150
31494W        W47968   4.740   8.475  15.605 -0.4365 -0.0814  0.0482
31495W        W47969  12.305  17.229  14.333  0.0176  0.1909 -0.3007
31496W        W47970  11.103  14.832  10.906  0.1956  0.0285  0.4940
31497W        W47971  13.789   1.794   5.394  0.0889  0.1694  0.0623
31498W        W47972   3.840   9.287  11.361  0.1271  0.3606  0.1134
31499W        W47973   9.871   1.816   4.392 -0.1362 -0.0544  0.1790
31500W        W47974  17.910   5.027  13.642  0.0784  0.0654 -0.2855
31501W        W47975   6.128   7.654  12.324 -0.0475 -0.0588 -0.2662
31502W        W47976  12.361  12.872  14.575  0.0495  0.1260  0.6301
31503W        W47977  10.464  14.082  13.292 -0.0578 -0.0919 -0.1523
31504W        W47978  14.105  13.128  10.888 -0.0264 -0.2260  0.1061
31505W        W47979   6.913  14.346  11.252  0.2019  0.1088 -0.0841
31506W        W47980   3.642   3.553   0.222 -0.1103 -0.2507 -0.0553
31507W        W47981   8.723   0.020  13.696 -0.5050  0.3622  0.3332
31508W        W47982  13.873  11.377   1.893  0.0669  0.2940  0.6218
31509W        W47983   2.010  14.763  13.146  0.2075 -0.2842  0.2289
31510W        W47984  12.508  17.867   1.225 -0.1612 -0.0871 -0.0980
31511W        W47985  10.363  16.827  13.274 -0.0424  0.0626 -0.1226
31512W        W47986  18.581  16.049   3.168 -0.3048 -0.0339 -0.0140
31513W        W47987  17.271  16.072  11.267 -0.1591  0.0740 -0.1819
31514W        W47988  10.058  13.264   4.702  0.3270 -0.0722  0.1259
31515W        W47989   2.119  11.349   2.134 -0.4756 -0.1130  0.0515
31516W        W47990  15.313   2.229   5.470 -0.3132  0.0673 -0.2108
31517W        W47991  16.321   0.692   1.990  0.3449  0.3202 -0.1037
31518W        W47992  15.034  10.769  10.076  0.1812  0.0030 -0.2313
31519W        W47993  17.851  13.258   4.716  0.0851  0.0309  0.1930
31520W        W47994  10.357   5.145   1.466  0.0571  0.0997 -0.1722
31521W        W47995  12.930  18.242  11.538 -0.0039  0.2601 -0.1203
31522W        W47996  17.507  10.703  11.862 -0.1350  0.0836  0.2080
31523W        W47997  11.059  16.538  11.897 -0.0306 -0.0255 -0.0455
31524W        W47998  17.883  10.946  13.844 -0.0033  0.0470 -0.2509
31525W        W47999   4.322  10.992   5.084 -0.0026  0.2922  0.1189
31526W        W48000   9.716   1.718  14.437  0.2931 -0.3489  0.0165
31527W        W48001  17.081  10.942  11.809 -0.0062 -0.2147  0.2741
31528W        W48002  13.978  16.704  15.444 -0.0997  0.5130 -0.1113
31529W        W48003  18.209   5.126   0.323 -0.1093 -0.0363  0.2800
31530W        W48004   9.407   7.191  12.339  0.2630 -0.0266 -0.2491
31531W        W48005  11.685  11.008  11.341  0.2830 -0.3188  0.1709
31532W        W48006  14.509  17.430  15.326  0.3292 -0.0076 -0.5627
31533W        W48007   6.155   4.116  13.649 -0.1003 -0.1074  0.0139
31534W        W48008   7.136   1.161  14.057 -0.0150 -0.1220  0.0041
31535W        W48009  14.514  13.110  12.809  0.0246 -0.2445 -0.0090
31536W        W48010   7.063   5.550  15.156  0.4325 -0.0896 -0.2750
31537W        W48011  18.529  16.275   5.200 -0.0381 -0.0668  0.0504
31538W        W48012   7.619   0.577   4.522  0.0888  0.0527 -0.0834
31539W        W48013  17.262   6.058  14.528 -0.1813  0.1859  0.3372
31540W        W48014   1.988   3.047   0.104 -0.1064  0.2729  0.1151
31541W        W48015  11.339   9.722   2.620 -0.0140  0.0638  0.0068
31542W        W48016  14.092   0.073   4.685 -0.0707  0.1498  0.3284
31543W        W48017   0.356  15.028  14.493 -0.1874 -0.2043 -0.0854
31544W        W48018   1.570  15.504   2.880  0.1495  0.2058 -0.4023
31545W        W48019   5.402  18.042  14.333 -0.0123 -0.1988  0.1493
31546W        W48020  17.849   3.649   2.894  0.1505  0.1697 -0.1504
31547W        W48021  11.108   8.652  10.346  0.0403  0.0093  0.2615
31548W        W48022  16.749  12.360  13.024  0.0490 -0.0514 -0.2498
31549W        W48023   3.009   9.227   4.725 -0.0085 -0.3321  0.0709
31550W        W48024  12.836  13.368   1.927  0.2683 -0.1316 -0.0437
31551W        W48025  16.684   2.362  15.167  0.1096  0.0045 -0.1825
31552W        W48026  14.314   0.645  13.702  0.0531  0.0215  0.1672
31553W        W48027  17.878  11.040  12.887  0.3116 -0.3373  0.0761
31554W        W48028  10.409  16.300  14.469  0.1444 -0.0498 -0.1110
31555W        W48029   8.144  14.732  15.555 -0.1537  0.1868  0.1040
31556W        W48030   7.981   2.319  13.459  0.0936 -0.0442 -0.4312
31557W        W48031  11.242  15.931   3.031 -0.0164  0.0796  0.1476
31558W        W48032  14.871  15.304  15.204 -0.0231 -0.0862  0.0697
31559W        W48033  16.372  11.303  12.170  0.2909 -0.0977  0.0256
31560W        W48034   9.204  11.811   3.004 -0.1164  0.1459 -0.3318
31561W        W48035   3.759  17.582  15.152 -0.0624  0.1644  0.5748
31562W        W48036  18.349   5.712   1.575 -0.1477  0.0712 -0.0175
31563W        W48037  17.027   3.834   0.171 -0.0586  0.3591 -0.1481
31564W        W48038   8.865   4.256   1.459 -0.2867  0.3113 -0.0276
31565W        W48039  11.678   0.343   1.828 -0.0875 -0.1117  0.2786
31566W        W48040   5.775  11.215   0.272 -0.1115  0.0003  0.0311
31567W        W48041   2.100   4.827  15.482  0.0989  0.1974 -0.0359
31568W        W48042   5.047  18.246   3.037 -0.1160 -0.5796 -0.2558
31569W        W48043   2.482   0.610   2.171 -0.3356  0.0375  0.0893
31570W        W48044  11.857   1.363  13.472  0.2052  0.0993 -0.2434
31571W        W48045   2.758  13.886   4.558  0.0350 -0.4193 -0.0204
31572W        W48046   6.880   9.703  13.103  0.2588  0.2401  0.2034
31573W        W48047   8.795  15.440   2.388  0.2849  0.0752 -0.1805
31574W        W48048  16.626  16.853   2.485 -0.2759 -0.0907 -0.2777
31575W        W48049  17.258  16.673  10.872 -0.0968  0.0401 -0.4300
31576W        W48050  10.536   9.286   3.545  0.2120 -0.0302 -0.0276
31577W        W48051  18.707  15.733  10.646  0.0517  0.4530  0.0296
31578W        W48052   9.759  15.623   1.525  0.1507  0.1795  0.1443
31579W        W48053   8.067   2.796   5.991  0.0386 -0.1706  0.2887
31580W        W48054   8.485  18.066  13.269 -0.0530  0.0212 -0.2332
31581W        W48055   5.353  16.317  11.448  0.0279 -0.0148  0.0853
31582W        W48056  16.296  18.273  14.155  0.1591 -0.2197 -0.0158
31583W        W48057   0.568   3.595  14.197 -0.2933  0.0889 -0.3778
31584W        W48058   9.281   8.765   0.125  0.3197 -0.0228 -0.2292
31585W        W48059   0.909   5.492  12.082 -0.2705  0.0340  0.1714
31586W        W48060   4.763  14.499   4.538 -0.6815  0.3434 -0.1995
31587W        W48061   5.222  15.416  12.913 -0.0761 -0.0654  0.4087
31588W        W48062  17.400   1.679   2.001  0.0353  0.0684  0.2676
31589W        W48063  17.110   2.625  14.310  0.0317 -0.0636 -0.3536
31590W        W48064   4.247   5.960   5.854 -0.2425 -0.0133 -0.2170
31591W        W48065  12.573  11.945   3.025  0.0710  0.0976 -0.0448
31592W        W48066   7.078  13.485  11.694 -0.2819  0.3255 -0.0780
31593W        W48067   0.311   6.975   0.812 -0.3419 -0.1231 -0.0470
31594W        W48068   9.581  16.621   0.699  0.0476 -0.1902  0.1506
31595W        W48069  12.451  13.803   2.015  0.3546  0.0065  0.0235
31596W        W48070   7.482   8.312   1.383  0.0494  0.1875  0.3431
31597W        W48071  13.889   6.564   2.953 -0.1103  0.1633 -0.0252
31598W        W48072  11.074   3.516   2.516 -0.0704  0.1954  0.0979
31599W        W48073   9.149  16.778  15.663  0.2966  0.3036  0.1606
31600W        W48074   7.221   2.734   4.193  0.0414  0.0998  0.0490
31601W        W48075   9.679   6.669  14.373 -0.0545  0.1194 -0.2475
31602W        W48076   1.663   9.438  12.000  0.1101 -0.0979 -0.3197
31603W        W48077  11.975   4.621   4.423 -0.1322 -0.0387  0.0503
31604W        W48078  18.124  15.388  13.589 -0.2745  0.2183  0.1249
31605W        W48079   3.107   3.822   2.274 -0.2553 -0.2392 -0.1315
31606W        W48080   7.879   4.927  14.253 -0.3887 -0.0990  0.0884
31607W        W48081   7.760   3.456  14.584  0.0799 -0.1472 -0.3921
31608W        W48082  13.862   6.818   1.255  0.1619 -0.0803 -0.1594
31609W        W48083  16.643   6.665  13.385  0.4259 -0.1730  0.3040
31610W        W48084  14.878   3.124  12.678 -0.2591  0.4462  0.1251
31611W        W48085   3.781   9.875  12.336 -0.2126  0.2720  0.0526
31612W        W48086  12.951   2.649   4.171  0.1797 -0.2779  0.1891
31613W        W48087   5.123  15.177  13.686 -0.0863  0.0434  0.1292
31614W        W48088  16.283  11.614  15.428  0.1477 -0.0186  0.0977
31615W        W48089   2.722   8.956  10.774  0.1295 -0.2459  0.2224
31616W        W48090   2.235  12.129  14.788  0.3834 -0.1655  0.4566
31617W        W48091   2.741   9.853  14.965 -0.0366  0.0934  0.0747
31618W        W48092  15.142   3.359  11.755  0.2893 -0.0043  0.0193
31619W        W48093  14.103   4.646  13.234 -0.1962  0.1070  0.0787
31620W        W48094  16.401   3.175  11.292 -0.2728 -0.0993  0.1275
31621W        W48095   3.473   5.093  12.008  0.1556 -0.1082  0.1942
31622W        W48096  11.131   4.967   5.327  0.2833  0.2158  0.0024
31623W        W48097  16.652  16.810   3.541 -0.3654  0.3440 -0.1777
31624W        W48098   7.333  11.831   2.606 -0.0393 -0.0622  0.0231
31625W        W48099   5.818   3.862  13.435  0.1698  0.2711 -0.0854
31626W        W48100  14.303   7.531   0.047 -0.1654 -0.1964  0.0496
31627W        W48101   4.272   4.468  13.523 -0.1174  0.1819 -0.0679
31628W        W48102   6.069  16.746   3.129  0.1846  0.0957  0.0344
31629W        W48103   1.498   8.046  13.289 -0.2580  0.1464 -0.4071
31630W        W48104   2.418  18.045   0.165 -0.0015  0.1270 -0.2312
31631W        W48105  10.726   4.142   4.265  0.1379 -0.1686 -0.1168
31632W        W48106  18.391   8.067  11.715  0.1882  0.1890 -0.0637
31633W        W48107   8.967   0.257  14.055 -0.1771  0.0775 -0.2061
31634W        W48108   7.091  16.894   1.628 -0.0586 -0.3152 -0.0465
31635W        W48109  12.028   0.441  13.205  0.0337 -0.1102 -0.0010
31636W        W48110  18.087  12.611  10.481  0.2327 -0.5059  0.0541
31637W        W48111  17.134  15.042   1.384 -0.0786  0.1053  0.1595
31638W        W48112  10.100   2.999   5.378 -0.1293  0.1894  0.0455
31639W        W48113   7.373  17.175  11.547 -0.2538 -0.4689 -0.2512
31640W        W48114  13.075   0.443  11.530  0.0315  0.0894  0.3156
31641W        W48115   1.311  16.970   1.449  0.1470  0.1055  0.2275
31642W        W48116  13.152   7.173   1.083 -0.2111  0.0435 -0.1304
31643W        W48117  16.916  14.567  13.070 -0.0102  0.0174  0.0820
31644W        W48118  16.897  15.363   1.743 -0.1881 -0.1517  0.0755
31645W        W48119   6.485   2.484   3.555  0.0338  0.0743 -0.0912
31646W        W48120  11.924   8.227   3.250  0.1980 -0.2610 -0.0726
31647W        W48121  13.440  13.826  11.362  0.0774 -0.0142 -0.1718
31648W        W48122  16.323  10.107   3.363 -0.2515 -0.0969 -0.3048
31649W        W48123  18.374   4.480  14.109 -0.0496  0.2315 -0.1068
31650W        W48124   1.273  11.107  11.430 -0.1406  0.0580  0.4008
31651W        W48125  18.784   8.925   3.182 -0.0820 -0.0157 -0.0861
31652W        W48126   7.329  11.357   5.473 -0.2378  0.1164  0.1521
31653W        W48127  13.322  17.718   2.536  0.1033 -0.0336  0.2987
31654W        W48128  12.196  10.930   0.650  0.4231  0.0799 -0.4177
31655W        W48129   9.323   5.242   1.175  0.0447 -0.4005 -0.2980
31656W        W48130   5.168  18.412  14.635 -0.2504 -0.0435 -0.0323
31657W        W48131   5.850   5.990  11.722  0.0662 -0.0713 -0.1478
31658W        W48132  18.620   4.667  13.434  0.2670  0.3689 -0.0526
31659W        W48133  16.032   3.199  12.679  0.0495  0.1935 -0.0430
31660W        W48134   0.417  16.585   4.005 -0.3319  0.1118 -0.0533
31661W        W48135   6.017  15.982   5.043 -0.0184 -0.3184 -0.0354
31662W        W48136   2.093   8.887  13.860  0.0754 -0.1306 -0.1212
31663W        W48137  10.662  12.087   3.454 -0.0352 -0.0816 -0.1987
31664W        W48138  13.969   2.554   3.928 -0.0181  0.1794 -0.0211
31665W        W48139  13.239   9.317  13.919  0.1297 -0.0917 -0.0131
31666W        W48140   4.249  13.243   3.043  0.2205  0.1878  0.1682
31667W        W48141  14.681   3.945  15.472  0.1255 -0.1549 -0.1144
31668W        W48142   2.720   7.335   4.281  0.3066 -0.0807  0.2357
31669W        W48143  13.907  13.197   0.613  0.0464 -0.0991 -0.1901
31670W        W48144   3.971  14.288  13.688 -0.0768 -0.0024  0.0739
31671W        W48145  11.929  13.930   2.273  0.1700 -0.0958 -0.0953
31672W        W48146  14.165   8.982   2.932 -0.2071 -0.1559  0.2332
31673W        W48147   3.320   3.464   1.215 -0.1574 -0.3285 -0.1937
31674W        W48148  12.909  17.401   5.031  0.1893 -0.0755 -0.2217
31675W        W48149   6.662  18.291   0.789 -0.1222  0.0613  0.1577
31676W        W48150  12.504  11.837   0.811 -0.2059  0.1694  0.0865
31677W        W48151   5.006   4.868  13.467  0.2692  0.0915 -0.0591
31678W        W48152   9.971  11.708   3.530 -0.2191 -0.1973  0.1634
31679W        W48153  10.337   9.476   0.244  0.4172  0.0587  0.0659
31680W        W48154  18.252   6.786   1.326  0.0506  0.1013 -0.0965
31681W        W48155   5.322  17.194   2.024 -0.1347  0.1086  0.2652
31682W        W48156  16.469   3.612   1.185 -0.0036 -0.1738  0.2446
31683W        W48157  15.765   6.141   4.848 -0.0653 -0.3753 -0.4151
31684W        W48158  17.882   3.734   1.444 -0.3721 -0.2650  0.0502
31685W        W48159  12.883  14.200   1.361 -0.0908  0.0348  0.6310
31686W        W48160   3.305   7.721   0.175  0.2472 -0.0083  0.1493
31687W        W48161   5.960   0.631  14.544  0.0929 -0.1187 -0.0687
31688W        W48162  13.122  11.388  14.801  0.1998 -0.1533 -0.1606
31689W        W48163  12.543   8.162  13.047 -0.0782  0.0540  0.1616
31690W        W48164   6.248   2.779  10.772 -0.0414  0.0288 -0.0852
31691W        W48165  12.439  11.448   1.853 -0.2825 -0.2648 -0.1958
31692W        W48166  16.770  10.718  11.497 -0.1070  0.1397 -0.1254
31693W        W48167   1.074  12.828  14.153  0.0725  0.1639 -0.2717
31694W        W48168   5.771  13.309  11.078 -0.2138  0.1961 -0.0856
31695W        W48169  14.031  12.464   5.280  0.0238  0.0115 -0.1903
31696W        W48170  10.884   9.234  14.228 -0.2749 -0.2176 -0.0866
31697W        W48171   4.005   0.103   4.019 -0.1596 -0.0683 -0.2428
31698W        W48172   2.634   3.117   5.084  0.0228  0.1344  0.1756
31699W        W48173   8.968   7.580  14.969 -0.1462  0.2976  0.1590
31700W        W48174   2.984  17.543  14.998  0.0998 -0.0030 -0.1808
31701W        W48175   3.884  13.140  14.502  0.1540  0.2815 -0.0698
31702W        W48176  17.404  13.705  14.173 -0.1459 -0.0012  0.3152
31703W        W48177  10.986   6.650  12.926 -0.2027  0.1607  0.1052
31704W        W48178   7.720   4.828   3.164 -0.2116  0.3577 -0.1352
31705W        W48179  10.731  16.316   4.034 -0.0003 -0.3953  0.0905
31706W        W48180   8.617   7.693   3.994  0.0554 -0.0796 -0.1739
31707W        W48181   5.189   9.730   2.605 -0.0975  0.1509  0.1558
31708W        W48182  14.200   6.084  15.450  0.2288  0.1952 -0.2336
31709W        W48183   5.725  13.152  14.630 -0.1866  0.3070  0.0697
31710W        W48184   0.522   2.513   2.045  0.2107  0.2116 -0.1856
31711W        W48185  10.732  18.415   2.556 -0.0756  0.0993  0.1258
31712W        W48186   6.483   9.317  12.963  0.0656  0.0993  0.1489
31713W        W48187   1.946   5.577   4.167 -0.0119  0.2897  0.1387
31714W        W48188  10.613  18.592  11.852  0.0607  0.3215 -0.0925
31715W        W48189  18.231   3.230   0.550 -0.0414  0.1302 -0.0856
31716W        W48190  10.478  12.832   5.360  0.3546  0.2671 -0.0512
31717W        W48191   6.893   7.798  12.249 -0.2780  0.0134  0.0700
31718W        W48192  14.110  17.398   3.002  0.0269  0.4605 -0.0503
31719W        W48193  12.812   9.496   1.799  0.0445 -0.2604  0.2934
31720W        W48194   7.316   8.487  15.035 -0.1472 -0.3101  0.4531
31721W        W48195   1.101   3.811   0.234 -0.1155  0.0417  0.1868
31722W        W48196   0.957   5.850  12.435  0.0816  0.1104  0.3740
31723W        W48197   8.726   2.253  13.934  0.1884 -0.0234 -0.3324
31724W        W48198  18.241  13.482  14.175  0.0599 -0.2386  0.3480
31725W        W48199  17.539  14.035   4.686  0.2914  0.1210  0.1372
31726W        W48200  15.484   0.987  10.993 -0.1125  0.1739  0.0508
31727W        W48201  11.837  16.376  15.452 -0.0830  0.2056  0.3449
31728W        W48202  13.074   4.062   3.634  0.2756  0.0383  0.0222
31729W        W48203  13.900  10.939   3.495 -0.2578 -0.0289  0.2154
31730W        W48204  13.576   5.737   4.943  0.1412 -0.2018  0.3645
31731W        W48205   6.469  18.615  13.347  0.3614  0.0886 -0.1558
31732W        W48206   2.245  14.190   2.661 -0.0088 -0.0560 -0.1897
31733W        W48207   1.814   5.136   1.636 -0.0817  0.2377 -0.0713
31734W        W48208   2.154   4.078  13.205 -0.0544 -0.2840  0.1206
31735W        W48209   3.449  16.191  11.990  0.1612  0.0680  0.2174
31736W        W48210  17.507   4.153  10.878  0.0432 -0.2428  0.2735
31737W        W48211   7.017  12.061   2.993 -0.1585 -0.0268  0.0682
31738W        W48212   3.873   0.657  14.208 -0.1739 -0.1370 -0.1750
31739W        W48213   0.831   5.591   4.149  0.0813 -0.0379  0.0004
31740W        W48214   8.475  15.653   0.967  0.1114  0.0077 -0.0184
31741W        W48215   3.761   2.093   2.318  0.0170  0.0352 -0.0923
31742W        W48216  17.979   6.590  11.093  0.3441  0.2255  0.1669
31743W        W48217  13.059   5.565  13.998  0.3147 -0.0391 -0.3891
31744W        W48218  16.844  18.691   3.264 -0.0310 -0.0002 -0.1292
31745W        W48219   1.274  16.989  10.943  0.2339  0.1588  0.0668
31746W        W48220  12.699  11.619  14.537  0.0361  0.1614  0.0193
31747W        W48221   7.240   4.721   1.983 -0.0206 -0.1216  0.0775
31748W        W48222   5.508   0.610   4.971  0.0516  0.0598 -0.1369
31749W        W48223   3.698  17.452   5.142 -0.1001 -0.0705  0.2158
31750W        W48224  15.494   2.404  14.810  0.0429 -0.4076  0.1306
31751W        W48225   7.018  17.130   0.656  0.2341 -0.0414 -0.0908
31752W        W48226   7.131   4.215   1.546  0.3034 -0.1030 -0.0435
31753W        W48227   7.838   1.661  10.823 -0.1235  0.0040 -0.0911
31754W        W48228  13.176  10.315  13.318 -0.1136 -0.0122  0.1507
31755W        W48229  15.205   9.845  13.754 -0.2686 -0.2096  0.1868
31756W        W48230   4.908   9.769   4.998 -0.0378 -0.1667 -0.1325
31757W        W48231  15.531   6.909  15.275  0.0794  0.2070 -0.1702
31758W        W48232  10.703   4.184  15.622 -0.1703 -0.0207 -0.1500
31759W        W48233   1.100   2.985   3.372  0.0305  0.1112  0.3048
31760W        W48234   8.081  14.021  13.022 -0.2851  0.0281  0.3365
31761W        W48235   6.112   9.268  13.612  0.3695 -0.0975 -0.0725
31762W        W48236  13.956  12.457  14.095  0.1041 -0.2034  0.0697
31763W        W48237  11.930  10.933  12.396  0.0631 -0.2869  0.1353
31764W        W48238  10.746   7.876   3.077 -0.2484  0.2123  0.1901
31765W        W48239  13.787   8.262   2.241 -0.0811 -0.4515 -0.2095
31766W        W48240  14.805  15.827   4.901 -0.1230  0.3025 -0.0624
31767W        W48241   4.107  14.328   5.812 -0.0454 -0.2027  0.0513
31768W        W48242   4.532  12.523   0.593 -0.0684  0.2742 -0.1097
31769W        W48243  13.559   9.476   0.334 -0.5519  0.2074 -0.3002
31770W        W48244   1.164  16.112  10.866  0.3627 -0.0935  0.3329
31771W        W48245  13.505  12.579   3.722  0.2772  0.1156  0.4020
31772W        W48246  18.784   2.967   4.192  0.2132 -0.0362 -0.0181
31773W        W48247   1.359  11.201  12.477  0.0950  0.1229 -0.4399
31774W        W48248   8.044   9.700  11.916  0.2989  0.2491  0.1179
31775W        W48249  11.176   0.768  14.423 -0.0564 -0.0015  0.3499
31776W        W48250   7.925  16.805  14.082  0.2588 -0.2103  0.0945
31777W        W48251   9.417  18.657  11.224 -0.1735  0.2266 -0.2142
31778W        W48252  17.074  14.995  10.741 -0.0060 -0.0164 -0.0561
31779W        W48253   3.051   9.845   0.229 -0.0418 -0.1300 -0.3157
31780W        W48254  17.022   0.221  14.087 -0.1327  0.3599  0.2540
31781W        W48255  17.113   2.563   1.741 -0.0888 -0.2442 -0.1983
31782W        W48256  14.282   8.671   4.144 -0.1325  0.3001  0.2431
31783W        W48257  14.388  11.170  15.504  0.1099  0.0650  0.2777
31784W        W48258  17.655  16.974   0.552 -0.2401  0.0185  0.2101
31785W        W48259   1.521   2.635   2.302  0.0479  0.1180  0.0560
31786W        W48260   8.063  18.642  13.183  0.0528  0.3085  0.1627
31787W        W48261   3.287   9.254  12.877  0.0916 -0.1772 -0.1222
31788W        W48262   0.074  15.627  12.794 -0.0103 -0.0991  0.0855
31789W        W48263   0.779   7.256   9.649  0.0885 -0.0990  0.0232
31790W        W48264   2.052  13.747   2.516 -0.1855  0.1528  0.3087
31791W        W48265   0.876   2.159   2.898  0.2391 -0.0722  0.1069
31792W        W48266   0.901  10.661  15.518  0.3146 -0.2701 -0.0606
31793W        W48267  18.349  14.148  14.861 -0.2453 -0.1891 -0.0056
31794W        W48268  16.573   5.287   1.132  0.0693 -0.1602  0.0473
31795W        W48269  12.587  11.233  14.072 -0.2072 -0.0330 -0.2483
31796W        W48270   4.459  10.020  11.498 -0.0128  0.1471 -0.0672
31797W        W48271  10.112   0.378  15.526 -0.2433  0.1569  0.2118
31798W        W48272  14.175  18.215   4.182  0.1137  0.0921  0.0900
31799W        W48273   1.638   3.480  11.395  0.0136 -0.1957 -0.3167
31800W        W48274  16.850  14.746   1.068 -0.0676  0.1341 -0.0381
31801W        W48275  14.477   0.211   4.373 -0.0974 -0.0847  0.0708
31802W        W48276  13.093  15.890   5.094  0.2250  0.1405 -0.1220
31803W        W48277   1.407   0.719  10.497  0.1991  0.1818  0.0877
31804W        W48278  10.063  17.707   2.803  0.0218  0.1196  0.3051
31805W        W48279   1.400  14.203  14.753 -0.0156  0.1173 -0.1872
31806W        W48280   7.889   7.039  14.003 -0.2473 -0.0189 -0.1109
31807W        W48281  11.538   9.370   2.998  0.1353  0.2009 -0.3457
31808W        W48282   3.659   3.947   4.834 -0.6344 -0.3146 -0.2060
31809W        W48283  14.322   1.788   3.185  0.2556 -0.0120  0.3949
31810W        W48284   9.019   3.584   3.447  0.0233 -0.0310  0.0410
31811W        W48285   2.266  11.246  15.179 -0.0406  0.1527  0.1410
31812W        W48286  11.613   3.751   3.218 -0.1200  0.0657 -0.0166
31813W        W48287   9.907  15.125  11.790  0.1585  0.0760 -0.1768
31814W        W48288  18.022  17.499  14.069 -0.1178  0.0170  0.0080
31815W        W48289   1.076  15.386   2.281  0.1913 -0.1881  0.1029
31816W        W48290   2.005   9.597  12.757 -0.1033 -0.0517 -0.0135
31817W        W48291   5.462   1.952  14.259  0.2723 -0.3150  0.0544
31818W        W48292   5.202   5.711   1.257 -0.0576  0.4524 -0.2113
31819W        W48293  17.249   8.580  11.800 -0.1251 -0.0220 -0.0078
31820W        W48294  15.741  15.043   0.778  0.0674 -0.2958 -0.1162
31821W        W48295   8.867   8.823   4.409 -0.0439 -0.2806 -0.1003
31822W        W48296  16.614  14.992  12.921 -0.0165 -0.0210  0.3719
31823W        W48297   6.448  15.699  13.540 -0.0485 -0.0976 -0.0257
31824W        W48298  12.136  16.258  14.639 -0.1270  0.0370 -0.1440
31825W        W48299   7.079  11.275   2.495 -0.0460  0.2423  0.1111
31826W        W48300   6.081  18.589  14.664 -0.0858 -0.0533 -0.0445
31827W        W48301  17.991   2.198  11.807 -0.0085  0.1352  0.1377
31828W        W48302   1.512  12.503   3.532 -0.2300  0.1407  0.1955
31829W        W48303   2.026   3.497  12.934 -0.1236  0.0519 -0.2067
31830W        W48304   1.347   8.189   2.072 -0.1410 -0.1056  0.0241
31831W        W48305  10.525   2.555   5.358  0.4262 -0.2701 -0.0252
31832W        W48306   4.832  16.840   5.020 -0.0953 -0.1336 -0.1248
31833W        W48307  11.048   6.462   0.392  0.1520 -0.0080  0.1047
31834W        W48308   4.114   4.865   5.802  0.0498  0.2147 -0.2707
31835W        W48309   3.340   6.549   4.298  0.1485 -0.0036  0.0486
31836W        W48310   7.965   0.141   4.175  0.2401 -0.0115 -0.0315
31837W        W48311  14.581  17.181  11.229  0.2878  0.0669 -0.0979
31838W        W48312  10.019   1.964   1.039 -0.0491 -0.1188  0.1453
31839W        W48313  16.134  17.816  10.890  0.1312 -0.2210  0.0379
31840W        W48314   0.768  12.696   0.581 -0.0064  0.1220 -0.1334
31841W        W48315   8.633  18.028  14.357 -0.1258 -0.1446  0.3081
31842W        W48316  10.725   7.523   4.374  0.0245 -0.0935 -0.1124
31843W        W48317   6.397   5.278  13.778 -0.1793 -0.0060  0.1533
31844W        W48318  17.753  16.986   1.266 -0.0252 -0.0624 -0.0249
31845W        W48319   8.891  14.841  14.865  0.0977  0.1864 -0.1638
31846W        W48320  16.650  14.761  10.963  0.2746 -0.0646 -0.1204
31847W        W48321   8.435  15.414   5.055  0.1536  0.0180 -0.2414
31848W        W48322   1.224   6.461  12.478 -0.1523 -0.0734 -0.1654
31849W        W48323   4.012  13.975   2.353  0.0375 -0.0411  0.2841
31850W        W48324   2.958   1.575  12.295 -0.0523 -0.3992 -0.1946
31851W        W48325   4.316   9.889   4.527  0.3923 -0.2328 -0.1952
31852W        W48326   0.927  17.483   9.635  0.0299 -0.1990  0.0721
31853W        W48327   5.127   9.229   2.089  0.3568 -0.1084  0.2594
31854W        W48328   4.949   0.444  11.185  0.1873  0.0172  0.0200
31855W        W48329  13.906   9.738  14.756  0.1919  0.0706  0.1896
31856W        W48330   8.804   4.231   3.562  0.2966 -0.0493  0.2452
31857W        W48331  12.319   6.929  12.275  0.1933  0.0456  0.0891
31858W        W48332  13.324  13.586   1.991  0.1517  0.1492  0.0933
31859W        W48333  14.575   1.711   2.365 -0.2328 -0.2797 -0.2957
31860W        W48334  11.492  17.759  11.408 -0.1047  0.2209  0.3371
31861W        W48335  17.446  12.742  10.926  0.2344 -0.3570 -0.2079
31862W        W48336   3.078   7.929   3.172 -0.2264  0.0299 -0.1890
31863W        W48337  16.486   2.731  15.409 -0.0244 -0.2066 -0.3358
31864W        W48338   3.270  10.810   4.562 -0.0868  0.1270 -0.4894
31865W        W48339  18.190   4.709   4.896  0.2286 -0.1787  0.0780
31866W        W48340   2.762  14.845   2.634  0.2322  0.3323  0.1018
31867W        W48341  18.039   9.854  10.122  0.0131  0.4464  0.0796
31868W        W48342   3.875  16.680   4.515 -0.0448  0.1703  0.1183
31869W        W48343   3.486   0.379   2.616  0.1931  0.2671  0.0584
31870W        W48344  12.096   6.766  11.399  0.0504  0.2819 -0.2600
31871W        W48345   4.568   2.022  11.346  0.1932  0.1617 -0.1589
31872W        W48346  11.566   8.202  12.238  0.1512 -0.1244  0.1595
31873W        W48347  15.870   6.278   5.333 -0.0259  0.2215 -0.1803
31874W        W48348   4.543   7.028   1.859  0.0347  0.1285 -0.0731
31875W        W48349   3.587   0.667   1.793  0.0348 -0.1341  0.1479
31876W        W48350   3.898  17.652  14.677  0.0320  0.0420  0.0663
31877W        W48351  18.063   7.838   3.397 -0.2453  0.0545  0.1954
31878W        W48352   5.898   6.024   1.891 -0.0857 -0.1909 -0.1878
31879W        W48353   9.700  11.629   3.068 -0.0024  0.0242 -0.1722
31880W        W48354   9.344   8.485  13.870 -0.2137  0.0871 -0.0483
31881W        W48355   9.887   1.430  14.069  0.1127  0.2113  0.0005
31882W        W48356  14.786   3.099   2.684  0.1114 -0.1218 -0.1214
31883W        W48357  11.734   9.292   0.150 -0.1194  0.1739  0.1365
31884W        W48358  10.098  11.226   0.433 -0.0250  0.0030 -0.0587
31885W        W48359   9.537  14.846  12.140 -0.2459 -0.1357  0.3306
31886W        W48360  10.581  14.533   4.759  0.3129  0.2065 -0.1773
31887W        W48361  18.368   5.898  11.069 -0.2021  0.0893 -0.2508
31888W        W48362   7.660  17.583   5.486 -0.1291  0.1672  0.0308
31889W        W48363  13.315   4.538   4.274 -0.1442 -0.0921  0.6198
31890W        W48364   8.650   8.657  14.857 -0.4154  0.2241  0.0817
31891W        W48365   8.012  11.522   2.278 -0.0906  0.3459  0.1310
31892W        W48366   1.841  12.323  11.804 -0.0450 -0.2651 -0.2237
31893W        W48367  14.781   7.214  14.018 -0.0923 -0.3890 -0.2201
31894W        W48368  10.761   9.367   4.544  0.1654 -0.1496  0.1191
31895W        W48369  11.640   9.929  12.632  0.1886 -0.0876  0.4863
31896W        W48370  12.855  16.460   0.869 -0.2569  0.3176  0.2542
31897W        W48371  14.612  18.674   2.792 -0.0218  0.2785 -0.2552
31898W        W48372   5.678   0.462  13.274  0.1158 -0.0392  0.1948
31899W        W48373  17.264   3.447  12.709  0.0697  0.1716 -0.2169
31900W        W48374  18.605   8.730  13.150  0.2301 -0.0168  0.5525
31901W        W48375  13.474   2.698  13.934 -0.1927 -0.0137  0.0066
31902W        W48376   8.189   5.176  11.699 -0.1446  0.0016 -0.0832
31903W        W48377  10.978  15.917   5.086 -0.1236  0.0461  0.0929
31904W        W48378  11.503  12.471  15.683 -0.3867  0.0171  0.2545
31905W        W48379  18.206   5.786   4.331 -0.0378 -0.1338 -0.2530
31906W        W48380   5.989  14.395  13.733  0.0086  0.1885 -0.0916
31907W        W48381   1.023  11.192  15.468  0.4668 -0.0115  0.1631
31908W        W48382   8.136  10.239   5.051 -0.2253 -0.1210 -0.0360
31909W        W48383  18.484   6.168   1.883  0.0491 -0.2899  0.1149
31910W        W48384  17.169   1.754   3.540  0.0138 -0.0863 -0.0814
31911W        W48385  10.414  17.081  11.220 -0.1573  0.0752 -0.2769
31912W        W48386  11.730  10.680   2.595 -0.2021  0.3849 -0.1179
31913W        W48387  15.248  11.913   1.360 -0.1129  0.0702 -0.0089
31914W        W48388  14.017  13.976  11.469 -0.2955 -0.0266  0.4160
31915W        W48389  12.334   5.086   5.552 -0.2742 -0.1054 -0.2154
31916W        W48390   4.476   2.844   4.829 -0.0235 -0.0442  0.0754
31917W        W48391   8.910   9.094  15.605  0.1972  0.3157 -0.1073
31918W        W48392  13.052   8.809  11.545  0.2305  0.0611 -0.1624
31919W        W48393  17.215  12.648  14.851 -0.4303 -0.1506  0.0293
31920W        W48394   6.404   1.779   0.505 -0.2261  0.4081  0.0915
31921W        W48395  18.500   2.255  15.211 -0.1041 -0.0499  0.3852
31922W        W48396   0.205   2.139  13.002  0.0675  0.2215 -0.1886
31923W        W48397   8.117  15.674   0.068 -0.2176 -0.0921  0.0442
31924W        W48398   7.892   1.332   4.520 -0.0561 -0.1224  0.1879
31925W        W48399  18.563  15.230   3.480  0.4349 -0.1047 -0.2705
31926W        W48400  12.048  16.048  13.719 -0.0106  0.0636 -0.0515
31927W        W48401   2.617   5.840   3.711  0.0254  0.2556 -0.3420
31928W        W48402   6.211  15.637   5.400  0.0903 -0.0368  0.0328
31929W        W48403   2.659  14.852   0.540 -0.3015 -0.1730  0.1121
31930W        W48404  15.334  11.386   9.565  0.1742 -0.1441 -0.2831
31931W        W48405   9.588  12.972  15.515 -0.0106  0.3047  0.2456
31932W        W48406  11.834  17.251  13.140  0.0616  0.3888 -0.0345
31933W        W48407   6.010   3.964  11.010 -0.1984  0.3583  0.1069
31934W        W48408  18.780   7.338  13.031 -0.1463 -0.2405 -0.2003
31935W        W48409   0.615  13.223   0.864  0.1255  0.1215  0.0852
31936W        W48410   9.497  12.691   0.857 -0.3585  0.0910 -0.2205
31937W        W48411  11.378  17.911   2.975 -0.2253 -0.1359 -0.0675
31938W        W48412   6.689   4.275  12.885  0.1059  0.1782  0.0556
31939W        W48413   5.447   2.926  15.554 -0.3157  0.3506 -0.1076
31940W        W48414   5.934   4.588   1.643 -0.0172 -0.0772  0.1593
31941W        W48415   1.623   2.972   1.408  0.0738  0.0686 -0.0096
31942W        W48416   0.535   7.694   4.863  0.0882 -0.1173  0.0536
31943W        W48417   6.985   1.337  13.566  0.0023 -0.0163 -0.0192
31944W        W48418  11.701   5.411  15.009 -0.1893 -0.1297 -0.2997
31945W        W48419  10.312  13.376  14.509 -0.1493  0.1682 -0.2570
31946W        W48420   9.705  15.689  14.415  0.0243 -0.1081  0.2049
31947W        W48421  15.905  10.670   4.861  0.0715  0.2159 -0.2721
31948W        W48422   1.303  10.826   1.822 -0.2854  0.1598 -0.1781
31949W        W48423   8.656   6.719   1.446 -0.0575 -0.3228  0.0975
31950W        W48424  12.366   7.312  11.366 -0.0335 -0.2074  0.1312
31951W        W48425   1.593  14.729  13.450 -0.2038 -0.0759 -0.1285
31952W        W48426  10.790  15.156  11.316 -0.0558  0.1003  0.2904
31953W        W48427   3.027   7.330   5.826 -0.0962  0.0913 -0.0293
31954W        W48428  12.422  12.204  11.427  0.0304  0.1274  0.1757
31955W        W48429  18.431   8.623   9.820 -0.0398  0.0023  0.1148
31956W        W48430  13.719   6.989  12.824 -0.0222 -0.0122 -0.1848
31957W        W48431   8.229  10.890   3.555 -0.2228 -0.1292 -0.0623
31958W        W48432  14.435   3.567   0.693 -0.2342  0.1412  0.3001
31959W        W48433  10.859   2.091  14.222 -0.2318  0.2500 -0.0753
31960W        W48434   2.111   2.592   1.062 -0.3042  0.0238  0.3897
31961W        W48435   6.348   9.521   3.757 -0.1182 -0.0288 -0.1736
31962W        W48436   1.793   0.463  12.812 -0.1585  0.0958 -0.2774
31963W        W48437   5.411   1.972  13.770 -0.0979 -0.1893 -0.0086
31964W        W48438   8.881  15.048   5.006 -0.1117 -0.2077 -0.0989
31965W        W48439   2.663   2.637  13.801  0.2363 -0.1129 -0.1969
31966W        W48440   0.495   5.467   0.673 -0.0098  0.0221 -0.2163
31967W        W48441  16.151  15.743   4.091  0.2279 -0.2886  0.0592
31968W        W48442  16.842   9.254   1.668  0.1602 -0.0511  0.0278
31969W        W48443  11.474   8.816  15.665  0.0054  0.0593  0.2588
31970W        W48444   3.466  17.226  15.032  0.0596 -0.3007  0.2852
31971W        W48445   8.828  15.714   5.616 -0.2987  0.3787  0.0997
31972W        W48446  12.133   2.084   2.165  0.1547 -0.1740 -0.0139
31973W        W48447  15.713  14.008  12.508  0.3569 -0.3940 -0.1082
31974W        W48448   9.896   0.049   4.626 -0.1746  0.1492  0.1040
31975W        W48449  18.453   9.719   5.489 -0.0015  0.2137 -0.3573
31976W        W48450  16.757   1.995   3.543 -0.1977  0.4373 -0.1166
31977W        W48451  17.429  15.514   0.372 -0.0344  0.1038  0.2935
31978W        W48452   9.014  12.260  14.415 -0.0973 -0.3207 -0.0864
31979W        W48453  10.730  13.994   4.857 -0.0967 -0.3006 -0.0456
31980W        W48454  11.131   9.268  11.645 -0.1395  0.0099 -0.1142
31981W        W48455   6.486   1.311   4.950  0.3358  0.0084  0.3778
31982W        W48456   7.324  17.997   2.490  0.2295  0.0302  0.0068
31983W        W48457   3.556  14.427   0.427  0.0654  0.1952 -0.0872
31984W        W48458   0.027  12.718  11.909  0.0993 -0.0614 -0.0373
31985W        W48459  11.243   6.480   2.114  0.1150 -0.1241 -0.3967
31986W        W48460   8.719   4.401   0.602 -0.2669 -0.1027  0.1129
31987W        W48461   9.835  15.148   1.259  0.0506  0.2174 -0.0081
31988W        W48462  14.657  18.435  13.768 -0.0723  0.2024 -0.0651
31989W        W48463  15.682   0.909   1.966  0.0300 -0.3017 -0.0333
31990W        W48464  17.858  10.663  15.467 -0.0108  0.2352 -0.2204
31991W        W48465  14.968   9.525   3.706 -0.4867 -0.0065  0.0906
31992W        W48466  14.858   5.176  11.679 -0.0447  0.0019  0.1306
31993W        W48467   5.873   0.129   3.197 -0.0268 -0.0165 -0.2552
31994W        W48468   1.470  18.196   2.000  0.0589  0.0383  0.0127
31995W        W48469  17.483  13.046   1.508  0.0422  0.0637 -0.0790
31996W        W48470  17.308  15.391  13.479 -0.1779 -0.0029  0.1921
31997W        W48471  15.622  10.444  15.408 -0.1946 -0.2120  0.0019
31998W        W48472   2.287  15.368   6.076 -0.0676  0.3585  0.2546
31999W        W48473  15.076   0.024   4.868  0.0290 -0.1341  0.3374
32000W        W48474  12.466   4.619  14.651 -0.0388 -0.2473 -0.2802
32001W        W48475  10.500  17.125   2.515 -0.2848 -0.1782 -0.1560
32002W        W48476   7.272  12.117   3.410 -0.1122  0.1733 -0.0963
32003W        W48477  10.040  16.272   5.188  0.2128 -0.2117 -0.3359
32004W        W48478  18.523   0.436   3.760 -0.1701  0.0282 -0.0383
32005W        W48479   3.235   9.801  13.799  0.3578 -0.0895 -0.1549
32006W        W48480   1.408  13.183  14.321  0.0791  0.1617  0.1151
32007W        W48481   1.108  17.210  11.782 -0.1944 -0.0509  0.3128
32008W        W48482   1.687   4.109  14.895  0.4123 -0.0897 -0.0269
32009W        W48483  13.380   2.398   5.329 -0.1038  0.0929 -0.2692
32010W        W48484  15.530   7.056  11.156 -0.0843  0.0645  0.2482
32011W        W48485  13.215  15.858  14.342 -0.3882  0.2210 -0.0321
32012W        W48486   7.230   6.677   2.293 -0.2106  0.1513  0.0353
32013W        W48487   1.038  18.453   4.818  0.0244 -0.0169  0.1743
32014W        W48488   5.910   0.319  12.334 -0.2517 -0.1190  0.0385
32015W        W48489  12.315  11.276  10.699  0.1392  0.2307 -0.0392
32016W        W48490   8.227  17.496   3.330  0.2747 -0.0167 -0.0433
32017W        W48491  10.466   8.932   1.618  0.3033  0.2900  0.1202
32018W        W48492  13.424   6.421   2.674 -0.2257 -0.1719  0.3256
32019W        W48493   8.231  16.089   0.378  0.2784 -0.1518 -0.0822
32020W        W48494  10.558  13.645  12.477 -0.1916 -0.1086 -0.1095
32021W        W48495   4.683  17.281   4.076  0.1405  0.0833 -0.0695
32022W        W48496  18.559  12.452  14.642 -0.3591 -0.3108 -0.1169
32023W        W48497   1.497  13.542  13.945 -0.0137 -0.1877  0.0169
32024W        W48498  12.123  14.516   1.399 -0.1354  0.4310  0.1020
32025W        W48499   5.782   9.144  12.293 -0.0411  0.3844 -0.1346
32026W        W48500  11.638  13.307  15.400  0.0054 -0.1027 -0.1193
32027W        W48501   4.310  13.730  14.277  0.0343  0.0916 -0.1612
32028W        W48502   8.101   8.010  13.084 -0.2810 -0.2681 -0.1678
32029W        W48503  11.987   9.023  14.017 -0.0435 -0.2370  0.1447
32030W        W48504   3.039  11.318  11.197 -0.1715 -0.0365 -0.0776
32031W        W48505   0.926  17.500  10.130  0.0866  0.0242 -0.1034
32032W        W48506   7.283   9.106   0.062 -0.1550  0.0803  0.1259
32033W        W48507  18.610  15.169   4.267 -0.0002  0.1945  0.1106
32034W        W48508  18.758  18.555  12.947  0.1483  0.4633 -0.2993
32035W        W48509  10.830   7.033   4.166 -0.1700  0.3449 -0.0097
32036W        W48510   0.662  12.570  10.475  0.4241 -0.0049 -0.0380
32037W        W48511   7.731   3.586   3.549  0.0590  0.3268 -0.0990
32038W        W48512  11.638  16.150  14.920 -0.2811  0.1060  0.2262
32039W        W48513   2.361   8.350  12.625 -0.1130  0.1931 -0.1721
32040W        W48514   0.257   4.474  12.069  0.2404 -0.4588 -0.1658
32041W        W48515  16.839  17.698   2.232  0.0928 -0.1496  0.1631
32042W        W48516  17.583  15.444   2.653  0.0448  0.2431  0.0375
32043W        W48517  12.184  10.451  12.845 -0.4267  0.4347 -0.0584
32044W        W48518  18.142   2.442  14.064  0.1578 -0.2624 -0.0922
32045W        W48519   6.123  12.031  14.862 -0.1578  0.1847  0.1972
32046W        W48520  10.757  17.940   1.411  0.0166 -0.0876 -0.1345
32047W        W48521  10.852  17.719   3.659  0.3335 -0.1388  0.0848
32048W        W48522   0.607   6.867   4.265  0.1316  0.0080 -0.0403
32049W        W48523   3.469   7.869  15.041 -0.0364 -0.0311  0.0688
32050W        W48524   9.984  18.116   5.405 -0.0729  0.0095 -0.0040
32051W        W48525  10.855   0.862   5.284 -0.1144 -0.5262 -0.3677
32052W        W48526  10.866  11.024   1.402  0.1190 -0.1399  0.3185
32053W        W48527   6.352  18.445   5.188 -0.3061  0.4244 -0.2628
32054W        W48528  10.540  18.576   5.346 -0.1064  0.1073 -0.1698
32055W        W48529   7.951   4.127   4.147 -0.0950 -0.1214  0.2417
32056W        W48530  10.889   0.057   2.606 -0.0996  0.4101  0.1344
32057W        W48531   1.914   0.422  10.966  0.1019  0.1865 -0.2031
32058W        W48532   9.116  15.140   4.351 -0.0543 -0.1036 -0.2819
32059W        W48533  11.838   0.950   4.424  0.0919 -0.0063  0.1386
32060W        W48534   6.372   6.842   5.881 -0.2037  0.1012  0.0330
32061W        W48535  16.179  14.351  13.672 -0.1761  0.0750  0.2080
32062W        W48536   4.967   2.413  13.414  0.2478  0.1085 -0.3840
32063W        W48537   9.796   3.624  15.561 -0.1831  0.3211 -0.0497
32064W        W48538   8.934   5.112   6.516  0.2159  0.6823  0.0791
32065W        W48539  10.012  18.823   3.595  0.1889 -0.2875  0.0336
32066W        W48540   4.067  14.470   1.992 -0.2098 -0.1857  0.3056
32067W        W48541  15.233   5.349   4.671  0.0482  0.3320  0.1705
32068W        W48542  11.944  15.841  15.512 -0.1012  0.0097 -0.1768
32069W        W48543  10.186  10.951   4.200  0.1360  0.3332  0.0105
32070W        W48544   1.399   2.569   5.381 -0.1616 -0.3886 -0.0534
32071W        W48545   5.660   8.397   1.986 -0.0783 -0.1107 -0.3174
32072W        W48546   1.924  17.703   1.427 -0.2113 -0.0814  0.2173
32073W        W48547  14.590  16.503   0.553 -0.0241  0.1944  0.2943
32074W        W48548  18.027  11.791   5.172 -0.0201  0.1819  0.0330
32075W        W48549  18.150  17.097   4.681  0.1102 -0.0500 -0.0131
32076W        W48550  17.076  14.586   1.608 -0.0586 -0.1090  0.4372
32077W        W48551   5.192   9.257   5.033  0.1993  0.2109 -0.0206
32078W        W48552   2.395  17.003  11.824  0.2053  0.0024 -0.3424
32079W        W48553   5.255  18.246  13.285 -0.2624  0.1948 -0.0019
32080W        W48554   6.818  13.210   5.447 -0.0562 -0.2559 -0.1627
32081W        W48555   3.416  13.605  11.403 -0.0592  0.0054  0.0103
32082W        W48556  10.767   5.858   0.257 -0.0482 -0.0579  0.1226
32083W        W48557  16.802  10.300   1.625  0.1437  0.2570  0.0361
32084W        W48558   3.825  15.427  14.680 -0.0380 -0.1839  0.0707
32085W        W48559  14.702  17.676  13.182 -0.0780 -0.2037 -0.2466
32086W        W48560  15.218  13.973  14.159  0.1436  0.2778  0.1418
32087W        W48561  17.726   5.140   0.323 -0.2336 -0.0523  0.0837
32088W        W48562   3.043  13.285  11.648  0.1252 -0.0371  0.1784
32089W        W48563   2.182  10.991   4.670 -0.0517 -0.0002  0.1510
32090W        W48564  16.372   7.518   2.487 -0.0569 -0.1518 -0.0504
32091W        W48565  16.115   8.254  10.679  0.2103  0.2033  0.0039
32092W        W48566  16.357  12.666  13.095 -0.1687  0.1818 -0.1115
32093W        W48567  18.840  18.572  10.293  0.0989 -0.1777  0.0695
32094W        W48568  12.206  18.789  13.935  0.1043  0.0146  0.3619
32095W        W48569  11.261   3.095   4.777 -0.4025  0.0571 -0.2524
32096W        W48570  18.025  10.573   3.091  0.0953  0.2137  0.0458
32097W        W48571   1.633  14.954   2.846  0.0729  0.1003  0.1721
32098W        W48572  13.810  17.317  13.346 -0.0544 -0.0511  0.0334
32099W        W48573  10.782   5.420  13.612  0.0811  0.1139 -0.1062
32100W        W48574  15.583  17.565   3.715  0.3024 -0.1045  0.0086
32101W        W48575  17.002  18.438  14.757  0.0829 -0.0162 -0.1819
32102W        W48576  16.160  18.829   3.921  0.1240 -0.1274  0.3763
32103W        W48577  12.885  10.950  15.038 -0.2371  0.1445 -0.1077
32104W        W48578   8.672  15.143  15.206  0.4241  0.0094  0.0113
32105W        W48579  16.377   1.572   0.215 -0.2285  0.1202 -0.1963
32106W        W48580  15.612  15.679   1.688  0.1118  0.1524 -0.0078
32107W        W48581  14.932   1.789   0.347 -0.1217 -0.0048 -0.1157
32108W        W48582  15.324   8.942  10.819  0.0630 -0.1954  0.2239
32109W        W48583   3.496  15.097  11.410  0.0633  0.4558  0.2862
32110W        W48584  16.111  16.573  13.756 -0.1912  0.1121 -0.0887
32111W        W48585  12.162   0.836   1.096  0.3989 -0.0425 -0.0498
32112W        W48586  13.072   7.991  12.930  0.1080 -0.1296  0.0030
32113W        W48587  12.416   9.898   5.050  0.2436  0.0468 -0.0343
32114W        W48588  12.120   7.965  15.253 -0.3258  0.1139 -0.1805
32115W        W48589  17.424   1.052  14.166 -0.2235  0.2899  0.2330
32116W        W48590  12.956  15.736  15.252 -0.0454 -0.2857 -0.2270
32117W        W48591  10.549  16.784  12.510 -0.1312 -0.1244  0.2428
32118W        W48592   5.215   2.043   1.697  0.0803 -0.1023 -0.1286
32119W        W48593   4.113   6.729   1.183  0.2602 -0.0398 -0.0447
32120W        W48594   2.811  17.241  11.856  0.0134 -0.1159  0.0351
32121W        W48595  10.265  12.352  12.880  0.0261 -0.0815 -0.2564
32122W        W48596  10.735  10.626   4.635  0.2051  0.0897 -0.2652
32123W        W48597   4.096   4.004   3.510 -0.2212 -0.0242 -0.2644
32124W        W48598   8.316  16.269  14.424  0.2651  0.0536 -0.0387
32125W        W48599   4.626   1.365  13.774 -0.0144 -0.2328  0.0885
32126W        W48600   7.529  12.091  14.991  0.0381 -0.0479 -0.1421
32127W        W48601   3.444   6.212   3.234 -0.1208  0.1245 -0.3364
32128W        W48602   0.536  14.065   1.001  0.0901  0.2049  0.0652
32129W        W48603   4.776   8.575  10.683  0.2879 -0.1158 -0.0125
32130W        W48604  18.139   3.764   4.203  0.0621 -0.0598 -0.2569
32131W        W48605  14.649   2.163  14.319 -0.0249  0.4049  0.3087
32132W        W48606  10.893  17.404   2.462 -0.1127 -0.2419 -0.1284
32133W        W48607  17.625  17.989   2.987 -0.1542  0.2413 -0.2851
32134W        W48608  17.792   6.861   2.087  0.0709  0.1212  0.2134
32135W        W48609  14.724   1.075  12.092 -0.1121 -0.2534  0.0226
32136W        W48610   2.823   8.628   4.222 -0.0586  0.1848  0.4692
32137W        W48611   3.945  14.922  14.357  0.0697  0.0736 -0.0208
32138W        W48612   6.411  10.298   2.392  0.0403 -0.0780  0.2213
32139W        W48613  15.613  14.430   4.138  0.1069 -0.1620 -0.6688
32140W        W48614   4.775  17.665  13.282 -0.1044  0.3084  0.0509
32141W        W48615  14.226   5.764   3.542 -0.0092  0.1386  0.0899
32142W        W48616   0.978   7.935   4.056  0.4512 -0.1566  0.0582
32143W        W48617  12.728  10.799   2.376  0.2873  0.0287  0.0229
32144W        W48618  13.650   3.982  13.477  0.2272 -0.3411  0.2714
32145W        W48619  18.175  17.342   3.303 -0.0899  0.0234  0.4564
32146W        W48620   3.356  15.350  10.898  0.1094  0.1162  0.2504
32147W        W48621   8.020  14.077  13.584  0.1862 -0.0606  0.0422
32148W        W48622  17.870   3.718  15.257 -0.0215  0.0567 -0.0496
32149W        W48623  13.202  10.608  11.539  0.2310 -0.0320 -0.0679
32150W        W48624   5.170  15.558  11.612 -0.0212 -0.2433  0.0379
32151W        W48625   7.461   9.675   1.643  0.0756 -0.3443 -0.1923
32152W        W48626  11.480   9.075  10.484  0.1944 -0.4150 -0.0610
32153W        W48627  16.369  18.721  13.082  0.0776  0.2227  0.1634
32154W        W48628   8.618  11.485  12.006 -0.0891  0.3908  0.2805
32155W        W48629  10.270   9.704   6.282  0.2408 -0.1678  0.2266
32156W        W48630  18.690   2.657  10.333  0.2373 -0.1062 -0.1844
32157W        W48631   2.189  13.001  12.019  0.2255  0.2402  0.1396
32158W        W48632   7.760  10.814   3.817 -0.2516  0.0218 -0.0222
32159W        W48633  12.980  17.446   4.178  0.1101  0.0974 -0.0953
32160W        W48634  18.287  15.634  14.621 -0.2427  0.0543 -0.0096
32161W        W48635  13.801   2.630   0.025 -0.0485 -0.1153 -0.0637
32162W        W48636  17.326  13.623   1.449  0.0588 -0.0174 -0.1297
32163W        W48637  16.889  10.869   0.053  0.0566  0.0397 -0.0030
32164W        W48638  12.250   6.422   0.149 -0.0202  0.0464 -0.0993
32165W        W48639   6.372  14.793  12.418 -0.1781 -0.1827  0.0148
32166W        W48640  11.530  13.470   0.668 -0.4288 -0.2441 -0.0325
32167W        W48641   5.743   2.332  14.390  0.1327  0.1049 -0.0126
32168W        W48642   9.734   0.563   2.129 -0.2405  0.1755  0.1174
32169W        W48643  17.249  11.677   1.875  0.1893  0.0258  0.0894
32170W        W48644   8.147   5.167   3.505 -0.3151 -0.0268  0.2499
32171W        W48645  15.633  17.172  14.246  0.1639  0.1067 -0.0932
32172W        W48646  10.810  15.239   1.121  0.1137  0.0343 -0.0288
32173W        W48647   3.563  10.066  11.054  0.1842 -0.2949 -0.1118
32174W        W48648  13.237  15.807  13.182 -0.2774 -0.1201 -0.0398
32175W        W48649   3.482  15.806   5.421 -0.4168  0.0043 -0.0380
32176W        W48650  10.803   1.264   0.782  0.0746  0.2748  0.0480
32177W        W48651   1.574   1.668   2.483 -0.0135 -0.4096 -0.2808
32178W        W48652  13.614   1.469  11.798 -0.1929 -0.3170  0.0047
32179W        W48653  18.007   6.427  13.708  0.0495  0.3162 -0.1061
32180W        W48654  14.535  12.834   1.156 -0.1879 -0.3834  0.3468
32181W        W48655  18.588   5.041   5.004  0.0134  0.4333  0.1597
32182W        W48656   1.149   0.699   1.810  0.0911 -0.1883  0.0418
32183W        W48657   4.626   5.313   0.934 -0.1168  0.1855  0.0750
32184W        W48658   1.187  16.650   1.853  0.1392  0.1729 -0.2428
32185W        W48659   1.167   8.899   5.032  0.0831 -0.1119  0.0942
32186W        W48660  13.575  17.155  13.769  0.0963  0.1225 -0.0826
32187W        W48661   7.045  15.805   1.350  0.0165 -0.0685 -0.0978
32188W        W48662  16.382   0.628  13.666 -0.1978 -0.1618  0.3407
32189W        W48663   9.370  18.802   4.143  0.3670  0.1291 -0.1047
32190W        W48664   8.406  16.217  13.201 -0.2425 -0.0158  0.0015
32191W        W48665   3.736  12.167   4.844  0.0201  0.0712  0.3757
32192W        W48666  12.716  13.450   5.902  0.0211 -0.0192  0.0937
32193W        W48667   6.695   8.096   3.279  0.0827 -0.1350  0.1546
32194W        W48668  14.756   1.747   1.483 -0.1813  0.0856  0.1811
32195W        W48669   5.192  13.248   5.651 -0.0609  0.2423  0.0615
32196W        W48670  13.149  17.690   0.796 -0.2400 -0.0302  0.2037
32197W        W48671   6.669  15.058  12.812  0.3270  0.2429  0.1823
32198W        W48672  11.545  13.974  14.878  0.0527 -0.1239 -0.0211
32199W        W48673  13.766  15.847  13.399  0.5235  0.3556  0.1507
32200W        W48674   6.790  17.958  14.575 -0.0035 -0.0653 -0.2722
32201W        W48675   1.096  11.424   2.666  0.4153  0.0757 -0.1274
32202W        W48676   1.097  11.972  10.919  0.2310 -0.0808  0.1222
32203W        W48677   6.024   5.339   0.969 -0.1746 -0.2050 -0.0351
32204W        W48678   5.346  12.802  14.125  0.1195  0.1672 -0.1754
32205W        W48679  15.532   1.433   3.914  0.1481  0.2044 -0.1685
32206W        W48680   2.123  11.000  10.975 -0.0051  0.0696 -0.1738
32207W        W48681   4.685   5.917   4.622  0.2190 -0.3984  0.0702
32208W        W48682   0.521   0.553  13.035  0.2877  0.1755 -0.0130
32209W        W48683   1.966  18.806   1.955  0.1914  0.0683  0.0696
32210W        W48684  18.352   3.008  11.973 -0.0494  0.1669  0.0029
32211W        W48685  10.573   0.087  13.862 -0.1246 -0.0359  0.0744
32212W        W48686  16.427   0.477   4.811  0.1496  0.0048  0.1234
32213W        W48687  10.144   9.656   1.352  0.1850  0.2221  0.3652
32214W        W48688   0.210   8.902   1.602 -0.2057  0.0727  0.1845
32215W        W48689   9.909  13.313   1.660  0.2528 -0.0152 -0.0405
32216W        W48690   5.201   5.024   1.328  0.1161  0.0044 -0.4078
32217W        W48691   9.515  13.569   4.673  0.0937 -0.1660 -0.1629
32218W        W48692  18.431  16.119  14.486  0.2175  0.3280 -0.0436
32219W        W48693  15.232  16.857  11.908  0.0779  0.1731  0.0421
32220W        W48694   4.331   8.408  13.816 -0.2300  0.0739  0.1337
32221W        W48695  14.474  17.816   4.093  0.0846 -0.2919 -0.2159
32222W        W48696   3.177   6.508   5.378 -0.2528  0.1776  0.2556
32223W        W48697  17.879   8.882   1.407 -0.2069 -0.0530 -0.1014
32224W        W48698  15.995   8.896   3.164  0.2360  0.1501  0.3076
32225W        W48699  15.441  15.794  12.449 -0.0653  0.1881 -0.0014
32226W        W48700  16.101   2.940   3.054 -0.1694 -0.0898 -0.2707
32227W        W48701   5.348  17.114  11.591 -0.0283 -0.1842 -0.0122
32228W        W48702  13.877   3.423   0.685  0.0365 -0.0510 -0.1505
32229W        W48703  11.196   7.989   0.594  0.1403  0.1200  0.1776
32230W        W48704   1.399  13.111   5.000  0.1447  0.4209 -0.2349
32231W        W48705   2.966  13.919  11.019 -0.2109  0.2891 -0.3271
32232W        W48706  11.110   1.677   0.760  0.0365  0.3094  0.0265
32233W        W48707   1.948   6.781   4.771  0.1636  0.3194 -0.3376
32234W        W48708  14.282   6.196  14.922 -0.0133 -0.1752  0.0449
32235W        W48709   4.277   5.806   2.539  0.0458  0.0507 -0.0954
32236W        W48710   7.406   6.862  14.618  0.1925  0.3856 -0.0653
32237W        W48711   9.545  12.857  13.388 -0.0294  0.3513 -0.2281
32238W        W48712  10.156   1.860   2.608  0.1212 -0.4664  0.2415
32239W        W48713  16.490   3.950  11.784 -0.0439  0.1339  0.2601
32240W        W48714  12.288   8.461   2.964  0.0070  0.0022  0.1142
32241W        W48715  13.928   3.704  11.201 -0.1058  0.0464  0.1793
32242W        W48716   0.684  10.103   3.074  0.2207 -0.0006 -0.1675
32243W        W48717  13.345   8.452   3.110  0.1013  0.1679  0.1563
32244W        W48718  15.753   8.525   5.559 -0.2053 -0.2855  0.0082
32245W        W48719  11.454   3.895  13.090  0.0443  0.0069 -0.1212
32246W        W48720   9.764  11.599   3.922 -0.0397 -0.2217  0.1370
32247W        W48721  15.405   3.786  14.131 -0.3170  0.1775  0.2636
32248W        W48722   8.349   1.035  11.579  0.2322  0.3561  0.3932
32249W        W48723  18.277   6.227  15.309 -0.3073 -0.0590 -0.2154
32250W        W48724   9.479  13.957  12.542  0.3263 -0.0232 -0.2161
32251W        W48725  12.644   4.575   5.191 -0.0137  0.0927 -0.0310
32252W        W48726  10.571  15.416   2.697  0.0036  0.3147  0.0437
32253W        W48727  10.930  12.075   0.731 -0.2632 -0.2866  0.2266
32254W        W48728   8.578  10.051  12.772  0.2428 -0.1595 -0.2358
32255W        W48729  12.680   8.411   3.921  0.0052  0.2223 -0.0822
32256W        W48730  10.368  10.892  14.904 -0.2299 -0.2569 -0.1346
32257W        W48731   0.029  17.534   5.279 -0.0204  0.0165  0.0641
32258W        W48732  13.057   7.004  14.563  0.0599  0.2369  0.0044
32259W        W48733  10.096  10.815  11.765  0.1896  0.4976 -0.2007
32260W        W48734  11.247   7.193  13.903 -0.5302  0.1299 -0.0101
32261W        W48735   6.872  17.018  12.249  0.0799 -0.2527 -0.0200
32262W        W48736  10.169  12.845   4.927 -0.0391 -0.0979  0.0750
32263W        W48737  13.061   4.132  11.898 -0.0462  0.4367  0.2604
32264W        W48738  17.956   0.661   3.949  0.1031  0.0075 -0.0685
32265W        W48739  16.560  11.462   3.951  0.1965  0.0642 -0.1462
32266W        W48740  10.526   0.814  12.981  0.0643 -0.2001  0.0735
32267W        W48741   3.712   9.347   3.022  0.1749  0.3616 -0.1885
32268W        W48742   0.695  18.403   2.664  0.1839  0.3168  0.1655
32269W        W48743   5.375   3.344   1.706  0.1648 -0.1699  0.0289
32270W        W48744   8.957   3.532   1.362 -0.0112 -0.0773 -0.1522
32271W        W48745  10.782  16.046  13.044  0.0800 -0.1870  0.1715
32272W        W48746  12.531   3.921  13.697 -0.1898  0.1849 -0.0016
32273W        W48747  11.014  18.084  14.097 -0.2493 -0.1200  0.3230
32274W        W48748   6.516   9.640  15.481  0.2232  0.0914 -0.0313
32275W        W48749  11.435  18.435   4.522  0.1358 -0.0020  0.1967
32276W        W48750   3.361   2.872  12.779  0.0179 -0.1888  0.0816
32277W        W48751  17.016   8.050  10.650  0.1642  0.2573 -0.3084
32278W        W48752   6.620   2.935  14.238  0.0645  0.0059  0.0452
32279W        W48753   7.708   2.969  13.611  0.0776  0.0488  0.0724
32280W        W48754  12.084  12.381  13.039 -0.0834  0.0488  0.2677
32281W        W48755  11.672  11.749  13.860 -0.1471 -0.3868  0.2919
32282W        W48756   6.821  12.902   1.784 -0.2596 -0.1359  0.2413
32283W        W48757   1.879  18.331   1.727  0.0078 -0.3932 -0.0005
32284W        W48758  12.515   4.009   2.203 -0.0095  0.3206  0.1924
32285W        W48759  17.367   2.333   4.128 -0.0433 -0.0465 -0.1646
32286W        W48760   8.199  11.848  15.680 -0.1882 -0.0596  0.1230
32287W        W48761   5.682   7.130  12.734  0.6393  0.0773 -0.3548
32288W        W48762   3.904   6.897   0.074 -0.3426 -0.2225 -0.1024
32289W        W48763  16.831   3.818  13.705  0.1192  0.1741  0.2205
32290W        W48764   6.233   6.494  12.471 -0.1392 -0.3731 -0.0233
32291W        W48765   6.295  15.215   3.040  0.0258 -0.0492  0.0100
32292W        W48766   4.271   6.098   4.936  0.1585 -0.0184 -0.0961
32293W        W48767  14.889   1.057   4.676 -0.2324  0.2711 -0.2747
32294W        W48768   5.626   0.699   2.481 -0.2527 -0.0254  0.1309
32295W        W48769   4.050   2.383  12.875 -0.0423 -0.0862  0.3223
32296W        W48770   9.287  14.857  14.261 -0.0719  0.3555  0.0979
32297W        W48771   5.163   5.668  13.926 -0.1030 -0.1820  0.0101
32298W        W48772   1.834  11.384  13.290 -0.0730  0.0237 -0.2579
32299W        W48773   6.017  16.544  10.629 -0.2887  0.1703  0.2225
32300W        W48774   4.978   2.990   6.024 -0.0892  0.1253  0.1306
32301W        W48775  17.486  11.446  11.402 -0.0342  0.4232 -0.0806
32302W        W48776  18.840   9.398  13.817  0.4696  0.0634 -0.2486
32303W        W48777   0.220   7.553  14.278 -0.2916  0.0747 -0.1483
32304W        W48778   6.411  16.947   1.369 -0.0836 -0.0306 -0.1966
32305W        W48779   9.845   5.238  14.055 -0.0267 -0.1700 -0.1841
32306W        W48780  15.068  17.930   1.724 -0.1809  0.1386 -0.0200
32307W        W48781  17.935  16.759  14.494  0.0241  0.3392 -0.0783
32308W        W48782   9.611  14.723  13.576  0.2904 -0.0561  0.5020
32309W        W48783  17.069   5.577   3.105 -0.0786 -0.0579 -0.0515
32310W        W48784   5.867  16.513   2.039 -0.2857  0.0760 -0.1145
32311W        W48785  13.098   0.056  11.908 -0.2619 -0.4011 -0.3505
32312W        W48786  13.106  15.428  15.604 -0.0911  0.1419  0.1705
32313W        W48787   8.689  10.793   0.164  0.2606  0.3470  0.0343
32314W        W48788  13.522   0.299  13.198 -0.1455 -0.2264  0.1660
32315W        W48789  12.973  12.590  11.635  0.0483  0.1103  0.1994
32316W        W48790  16.131   2.581  10.683 -0.0296  0.0573 -0.3092
32317W        W48791   7.855   9.962   4.607 -0.0345  0.0577  0.0167
32318W        W48792   9.827  14.360   2.380 -0.3104 -0.0540 -0.0348
32319W        W48793   4.570  16.772  10.097 -0.2671  0.0021  0.0483
32320W        W48794   5.711  17.675   1.479 -0.0651  0.2683  0.0654
32321W        W48795  12.334  12.079   4.394 -0.1882 -0.0954  0.2389
32322W        W48796  12.654  10.330   2.242  0.0376  0.1025  0.1173
32323W        W48797   9.282   5.658  12.348 -0.0438  0.2507 -0.0154
32324W        W48798  10.778   9.664  13.539  0.2182  0.2096 -0.0103
32325W        W48799   7.377   3.750  13.934 -0.0543  0.1104 -0.3201
32326ION     NA48800   3.695  16.155   9.996  0.0168 -0.3199  0.0163
32327ION     NA48801   7.341  13.975  11.699 -0.2919  0.0177 -0.1520
32328ION     NA48802  16.727   2.587  10.497 -0.3905  0.4471  0.0561
32329ION     NA48803  16.395  12.674  14.414 -0.0149  0.3497  0.2096
32330ION     NA48804   5.396  17.304  10.050  0.0388  0.1756  0.1696
32331ION     NA48805   0.611   5.670   9.903  0.0287  0.2153 -0.0799
32332ION     NA48806   7.782   3.763  10.502 -0.0859 -0.2134 -0.4053
32333ION     NA48807  15.171   0.062   9.438 -0.0523 -0.1966 -0.3120
32334ION     NA48808   6.449  15.155   5.856 -0.3255  0.2658  0.2619
32335ION     NA48809  10.312  18.673  10.283 -0.2414 -0.0354 -0.0027
32336ION     NA48810  12.489  11.048  10.287 -0.3167 -0.2760  0.0316
32337ION     NA48811   2.702  16.004  11.759  0.1682  0.0692 -0.1401
32338ION     NA48812  15.979   3.699  10.616 -0.2722  0.1353 -0.1281
32339ION     NA48813  13.177  18.673  11.471 -0.1963 -0.1472 -0.2811
32340ION     NA48814  10.181   5.782  10.493 -0.3146 -0.0412 -0.2666
32341ION     NA48815   2.185   3.211   5.380  0.1085 -0.0002  0.0165
32342ION     NA48816   7.087  12.092  10.624 -0.0369  0.1100  0.3862
32343ION     NA48817  10.686  14.637  10.431  0.1969 -0.0460 -0.0076
32344ION     NA48818  12.604   4.005   2.728 -0.0479  0.0300 -0.5290
32345ION     NA48819   0.370   7.021  12.044  0.3086  0.2652  0.1335
32346ION     NA48820  11.979  13.963  10.237 -0.1948  0.2915  0.1744
32347ION     NA48821   1.018  14.451  10.669 -0.1543  0.2719 -0.0071
32348ION     NA48822  14.266  14.898   2.417  0.1614  0.1574 -0.2781
32349ION     NA48823   1.020   7.275  14.557  0.0467 -0.1357  0.2096
32350ION     NA48824  14.656  15.074   3.298 -0.0337  0.0314  0.0776
32351ION     NA48825   7.983  11.196  10.205  0.2120 -0.2390  0.3446
32352ION     NA48826  17.616  10.177   9.552  0.2933 -0.1232  0.2849
32353ION     NA48827   9.007   4.123  10.512 -0.2330 -0.4719  0.1330
32354ION     NA48828   2.016  15.322   2.036 -0.2928  0.1682 -0.0468
32355ION     NA48829  13.100   5.610  10.158  0.0710  0.2138  0.1497
32356ION     NA48830   2.068  10.995   9.738 -0.1149 -0.4286 -0.0692
32357ION     NA48831   9.081   7.851  11.568 -0.0590 -0.0127  0.0578
32358ION     NA48832  18.433  12.740   3.054  0.0650  0.0674 -0.1560
32359ION     NA48833  14.941   8.921  11.460  0.0007 -0.1332  0.0234
32360ION     NA48834   8.649   6.703  13.301  0.0318 -0.4457 -0.1417
32361ION     NA48835  10.872  11.750   0.395 -0.0502 -0.0888 -0.1558
32362ION     NA48836  14.697   9.178   9.682  0.0434  0.1346  0.2257
32363ION     NA48837   9.413   1.365  10.601 -0.1642  0.0043 -0.0147
32364ION     NA48838   8.821   5.992   1.232  0.3371 -0.0636  0.3481
32365ION     NA48839  11.851  17.816  10.217  0.0350 -0.0045 -0.3715
32366ION     NA48840   0.560  18.850  13.293  0.4052 -0.0560  0.1605
32367ION     NA48841   7.120   8.462  10.306  0.0739  0.1343  0.2124
32368ION     NA48842   2.659  16.452  10.046  0.0320 -0.1543  0.2815
32369ION     NA48843   5.815   5.927   2.379  0.1590  0.3136 -0.0737
32370ION     NA48844   7.665  12.888  14.237  0.1447 -0.1905  0.3607
32371ION     NA48845   1.957  14.093   9.948 -0.1746 -0.3625 -0.1790
32372ION     NA48846   5.832   0.191  10.437  0.2134  0.4018 -0.4114
32373ION     NA48847   5.555   0.033   5.652 -0.3574 -0.0348 -0.2591
32374ION     NA48848  13.427   9.958   1.958 -0.1427  0.3348 -0.1573
32375ION     NA48849  17.627  14.998   9.556 -0.0032  0.0399 -0.2515
32376ION     NA48850  16.117  10.836   9.526 -0.0050 -0.1538  0.1479
32377ION     NA48851   4.826   3.341  10.907  0.0595  0.0833 -0.0136
32378ION     NA48852   9.439  18.386  10.335  0.0159 -0.1776  0.1408
32379ION     NA48853   3.377  17.014  10.078 -0.0621 -0.0139 -0.2761
32380ION     NA48854   7.701   5.875   2.495 -0.0759 -0.3513 -0.2268
32381ION     NA48855   5.666   2.405  10.072  0.1025 -0.1429 -0.0356
32382ION     NA48856   4.744   4.104   1.491  0.0278  0.3128 -0.0900
32383ION     NA48857  17.776   5.569   9.709  0.2610  0.0664  0.4661
32384ION     NA48858   8.754  17.443   5.624  0.4933 -0.0208 -0.2572
32385ION     NA48859  16.344  17.357   0.055 -0.2187 -0.0821 -0.0118
32386ION     NA48860   8.052  15.676   5.338 -0.2526 -0.0929  0.2881
32387ION     NA48861  12.569   2.470  10.286 -0.1540  0.0258 -0.0044
32388ION     NA48862  15.224  13.978  10.275 -0.1323  0.0659  0.1028
32389ION     NA48863  16.332   7.223  15.033 -0.0482 -0.1181  0.0873
32390ION     NA48864  14.177   1.198  10.319  0.0462  0.1409 -0.5022
32391ION     NA48865   7.556  18.795   5.681  0.0930  0.1233 -0.0428
32392ION     NA48866   7.691  13.636   0.353  0.1654 -0.1643 -0.0509
32393ION     NA48867  15.744   0.785   4.672  0.1369  0.0427  0.1773
32394ION     NA48868   1.856   5.881   9.885 -0.0593  0.1667 -0.3265
32395ION     NA48869   3.127  11.296   3.532 -0.1639 -0.0463  0.0492
32396ION     NA48870   5.530   4.356   4.545  0.4279  0.0185  0.0027
32397ION     NA48871  15.849   2.383   9.719  0.0810  0.2353 -0.0734
32398ION     NA48872   5.237  10.390  10.187  0.0022 -0.0082  0.0444
32399ION     NA48873  16.789  14.743   9.710 -0.2191  0.3077 -0.3651
32400ION     NA48874   8.457   7.818  10.645 -0.1965 -0.1219 -0.1072
32401ION     NA48875   3.505   6.258  15.205  0.0470  0.3231  0.0506
32402ION     NA48876   1.620  10.519   9.716 -0.1542  0.2875 -0.0379
32403ION     NA48877   1.990   9.637   5.261  0.0879  0.0335  0.0519
32404ION     NA48878  16.783   1.769   5.079  0.1448 -0.0868  0.4117
32405ION     NA48879   5.705   9.389   5.305 -0.1887 -0.2820  0.2292
32406ION     NA48880   1.627   9.961   0.963 -0.0001 -0.0874  0.0655
32407ION     NA48881  13.862  13.555  10.090  0.3843 -0.2414 -0.1299
32408ION     NA48882  10.929   3.850  10.386  0.1406 -0.0715  0.2550
32409ION     NA48883  10.463  10.669  10.560 -0.1673 -0.0130 -0.0655
32410ION     NA48884  14.931  17.582  10.487 -0.0488 -0.0704 -0.1472
32411ION     NA48885  12.074  17.596   5.387  0.2278  0.0181  0.1232
32412ION     NA48886   7.092   5.104   6.274 -0.0241 -0.0174  0.1645
32413ION     NA48887  14.654   2.901  14.839 -0.1434 -0.1611 -0.2614
32414ION     NA48888   1.699  14.975   9.861  0.0765  0.4680  0.0142
32415ION     NA48889  14.987   2.999  10.015  0.0231  0.0231 -0.1116
32416ION     NA48890  16.319  14.215   5.213 -0.1102 -0.0558 -0.2907
32417ION     NA48891  15.566  14.618   9.636  0.0778 -0.1537  0.2003
32418ION     NA48892  15.665  13.214   9.676 -0.0910  0.0100  0.0066
32419ION     NA48893  16.560  14.110  11.410  0.6798 -0.0494  0.1650
32420ION     NA48894  10.864  12.714  10.284  0.0809  0.2403  0.1242
32421ION     NA48895   9.330   6.363  10.562 -0.1676  0.1038  0.0389
32422ION     NA48896  15.475   1.237   3.239 -0.2000 -0.1796 -0.1389
32423ION     NA48897  12.716   8.586  15.157  0.2351 -0.0166  0.0425
32424ION     NA48898  11.328  11.133  10.350 -0.1076  0.2288 -0.0067
32425ION     NA48899  12.638  17.290   4.595 -0.2928 -0.1385  0.0896
32426ION     NA48900   3.989  14.989  15.282  0.1939 -0.3323  0.3307
32427ION     NA48901  11.249   7.196  10.563  0.0881 -0.0505 -0.1146
32428ION     NA48902   8.986   8.778  10.819 -0.0826 -0.0407  0.0346
32429ION     NA48903   8.443  10.483  10.741  0.2298 -0.1766 -0.4385
32430ION     NA48904  16.249   5.753   4.667 -0.0558  0.0256 -0.0252
32431ION     NA48905   5.045   0.040   3.942  0.1797 -0.1585  0.0566
32432ION     NA48906  18.105  17.330   9.585  0.2828 -0.1640  0.0275
32433ION     NA48907  14.582   3.426   2.055  0.1959 -0.0853  0.2045
32434ION     NA48908   8.281  18.213   5.655 -0.3219  0.2305  0.2470
32435ION     NA48909  10.673  15.487  10.624 -0.0146  0.1440 -0.1096
32436ION     NA48910   9.581  17.198   2.951 -0.0164 -0.1946  0.2254
32437ION     NA48911   4.210   8.578  15.454  0.0306 -0.2433  0.1479
32438ION     NA48912   4.204   2.643   3.876 -0.1107 -0.2042  0.0173
32439ION     NA48913  18.105   3.413   9.460  0.3546 -0.0547  0.0999
32440ION     NA48914   1.748   9.141   9.770 -0.2154  0.2974 -0.2063
32441ION     NA48915   5.256   1.074  10.535  0.1375  0.3203  0.0592
32442ION     NA48916   6.067  13.828  10.251  0.2330 -0.2479 -0.4514
32443ION     NA48917  18.710   6.981   1.103  0.0163 -0.1739  0.4826
32444ION     NA48918   4.009  17.957   3.993 -0.1340 -0.0271  0.1950
32445ION     NA48919  13.931  16.611   3.585  0.0148  0.3453  0.0166
32446ION     NA48920  12.163   4.199   0.126  0.1941 -0.0734  0.1480
32447ION     NA48921  12.915   9.995   2.948 -0.3809  0.3347  0.0007
32448ION     NA48922   1.410   7.685  10.010  0.2360 -0.2617 -0.1891
32449ION     NA48923  15.736  12.261  13.607  0.1884  0.0714  0.0265
32450ION     NA48924  14.647  11.660  10.072  0.2755 -0.3010 -0.1006
32451ION     NA48925   0.517   3.175   9.922 -0.1870  0.4727 -0.1636
32452ION     NA48926  18.492   2.276  13.057 -0.1507 -0.0677  0.0559
32453ION     NA48927   0.003   1.045  14.645 -0.0743  0.4183  0.2576
32454ION     NA48928  13.535   7.251  14.623  0.0242 -0.0341 -0.2028
32455ION     NA48929   1.340   2.721  10.065 -0.1366  0.0486  0.0577
32456ION     NA48930  13.928  15.684   9.980 -0.1281  0.3497 -0.1238
32457ION     NA48931  17.111   3.683   2.590 -0.0921 -0.3152  0.2471
32458ION     NA48932   9.507   0.387  10.421 -0.0895  0.0945 -0.1359
32459ION     NA48933   2.686   0.246   3.899 -0.2737 -0.2727 -0.0148
32460ION     NA48934  14.678   7.380  10.089  0.0987 -0.2159 -0.0192
32461ION     NA48935   0.709  10.538  14.070 -0.0230  0.0978 -0.1570
32462ION     NA48936   4.646  11.935  10.094  0.1618  0.1397  0.1437
32463ION     NA48937   8.448  17.953  10.812 -0.1669  0.2814 -0.0556
32464ION     NA48938  12.918   5.344   3.894 -0.0799 -0.3454 -0.1323
32465ION     NA48939  12.419   9.405  10.548 -0.1036 -0.1265  0.0003
32466ION     NA48940  10.260   8.389  10.775  0.0182  0.3367 -0.0041
32467ION     NA48941   9.441  16.774  10.226 -0.1581  0.0555  0.0383
32468ION     NA48942   3.090  17.445  10.200  0.0412  0.2209  0.0042
32469ION     NA48943   7.415  17.445  10.231  0.1129  0.1400  0.2399
32470ION     NA48944  18.532  10.488   9.680  0.0378 -0.1375  0.2121
32471ION     NA48945  15.080  13.917   9.758 -0.0044  0.0949 -0.2325
32472ION     NA48946   5.776  16.020  10.685 -0.2475  0.2131 -0.2875
32473ION     NA48947  15.106   0.046   3.906 -0.0487 -0.1408 -0.1216
32474ION     NA48948   6.406  14.934  10.214  0.0903  0.3035 -0.2322
32475ION     NA48949   4.527   2.717   5.650  0.0243  0.0400  0.2651
32476ION     NA48950   3.593   5.651  15.304 -0.0310 -0.1040  0.1198
32477ION     NA48951   8.326  14.041  12.199 -0.3548  0.0914  0.1923
32478ION     NA48952   3.126  18.471  10.308  0.0010 -0.0673 -0.0654
32479ION     NA48953   5.847   6.793  10.304  0.1859 -0.1663  0.1578
32480ION     NA48954   1.789  17.885  10.125  0.0836 -0.0594 -0.2284
32481ION     NA48955   0.184  10.455   2.383 -0.1200 -0.0913 -0.1064
32482ION     NA48956   0.081  12.211   9.823 -0.2358 -0.1361 -0.0273
32483ION     NA48957   9.148   3.627   4.697 -0.3753  0.2199 -0.0804
32484ION     NA48958  18.041  14.734   5.200 -0.0636  0.1726  0.0689
32485ION     NA48959  13.635  17.199   9.787  0.0111 -0.0272 -0.2298
32486ION     NA48960   6.587   6.638   5.502 -0.0348  0.0388 -0.0440
32487ION     NA48961   7.627  17.790  13.417 -0.0784 -0.0531 -0.1405
32488ION     NA48962   3.150   8.330  13.169 -0.2177  0.0696 -0.3555
32489ION     NA48963   5.359  14.146   5.767 -0.1972 -0.5198 -0.1122
32490ION     NA48964   6.087   5.059  10.830 -0.1859  0.0883 -0.0589
32491ION     NA48965   3.129   0.681   5.643  0.0489  0.1560  0.2733
32492ION     NA48966  11.871  17.241  10.208  0.1993  0.2969 -0.0407
32493ION     NA48967  15.875   7.202   9.556 -0.1985 -0.1194 -0.2614
32494ION     NA48968  14.331  12.637   9.964  0.0764 -0.2424 -0.0112
32495ION     NA48969   3.569   5.397  14.005 -0.0902  0.0927 -0.2204
32496ION     NA48970   2.189   5.813   2.770 -0.1434 -0.0274  0.0225
32497ION     NA48971   2.354  17.250   9.890  0.2188  0.0885  0.1647
32498ION     NA48972   0.021  18.679   9.473 -0.0712 -0.0982  0.0746
32499ION     NA48973   2.077   6.909   9.879  0.1913  0.1957  0.3588
32500ION     NA48974  14.358  16.039   5.107  0.1527  0.1270  0.1123
32501ION     NA48975   6.401   3.793  11.526  0.3341  0.1725 -0.0723
32502ION     NA48976  18.732   9.009   9.857 -0.0999  0.1654  0.1996
32503ION     NA48977   0.728  10.598   9.874 -0.0392  0.0174 -0.0485
32504ION     NA48978  14.474   3.855   9.900  0.0907  0.0150 -0.1932
32505ION     NA48979   8.673  17.191  10.558  0.4351 -0.1053 -0.2163
32506ION     NA48980  18.616  12.772  12.388 -0.1288  0.1584  0.1693
32507ION     NA48981   0.638  11.830   0.212 -0.1233 -0.0542  0.0024
32508ION     NA48982   5.901   0.177  14.877  0.1643  0.3981 -0.2128
32509ION     NA48983   1.833   0.400   5.472 -0.1404  0.3108  0.2367
32510ION     NA48984   5.740   5.767  10.275  0.0373 -0.4514  0.1050
32511ION     NA48985  16.029   3.688   4.002  0.5181 -0.0869  0.1379
32512ION     NA48986   6.313  11.700  10.236  0.0099 -0.1411  0.1382
32513ION     NA48987   8.641   5.704  13.390 -0.1382 -0.0744 -0.1378
32514ION     NA48988  13.593   7.397  15.559 -0.3085 -0.3548  0.1659
32515ION     NA48989  10.870  15.468  10.101  0.0125 -0.1255 -0.2989
32516ION     NA48990   4.329  13.307   1.212  0.0242  0.1729  0.1178
32517ION     NA48991  12.887  15.744  10.072  0.0782  0.2051  0.4151
32518ION     NA48992  12.459  16.488  10.271 -0.1942 -0.3069 -0.1883
32519ION     NA48993   6.481  12.785   2.207 -0.3174 -0.5003  0.1930
32520ION     NA48994  16.601  11.494   5.482 -0.1982  0.3693 -0.0081
32521ION     NA48995  11.182   8.878   0.378 -0.1800 -0.0264 -0.0603
32522ION     NA48996   4.333   5.543  10.098  0.3618  0.1700  0.1988
32523ION     NA48997  14.844  17.836   2.187  0.1174 -0.0806 -0.0350
32524ION     NA48998  12.261   3.239   5.463 -0.1005  0.0798  0.3243
32525ION     NA48999  16.385  13.391   5.425 -0.3053  0.1248 -0.0325
32526ION     NA49000   3.220   2.666   5.873 -0.2750  0.0512 -0.1245
32527ION     NA49001  17.902  16.451   2.057 -0.0589 -0.0465  0.1572
32528ION     NA49002   6.422   7.670  10.191  0.2187  0.2410 -0.1645
32529ION     NA49003  14.982  10.821  11.879  0.0246  0.4270 -0.0416
32530ION     NA49004   7.953   0.405  10.343  0.0980  0.0012 -0.1297
32531ION     NA49005   6.970   1.672   3.632 -0.3070  0.0523  0.0480
32532ION     NA49006  14.916   6.604   4.570 -0.0053 -0.0050 -0.1363
32533ION     NA49007   3.017  15.655  10.095 -0.0524 -0.0991  0.1712
32534ION     NA49008  18.620   2.213   5.473  0.2144 -0.4519 -0.0941
32535ION     NA49009   3.743  13.394   5.700  0.1718 -0.0603  0.0270
32536ION     NA49010  17.218  17.886   9.589 -0.0209 -0.1158 -0.2519
32537ION     NA49011   7.640  14.034  13.264 -0.0238 -0.0576  0.0337
32538ION     NA49012   0.756  16.388   1.696 -0.2293 -0.2429 -0.0883
32539ION     NA49013   6.208  14.397  10.231 -0.0831  0.2149 -0.3038
32540ION     NA49014   2.855   9.303   9.816 -0.2332  0.2273  0.3348
32541ION     NA49015  18.207  13.742   9.527 -0.1443 -0.0060 -0.0767
32542ION     NA49016  11.187  10.279  10.586  0.0404  0.1669  0.0920
32543ION     NA49017  12.370   3.224  10.282  0.3311  0.1333 -0.1431
32544ION     NA49018   5.079  14.089  11.551  0.0427  0.0853 -0.4207
32545ION     NA49019  17.636  11.095   9.543 -0.0143  0.2987  0.3457
32546ION     NA49020  11.922  13.675   1.842 -0.2161  0.3473 -0.2412
32547ION     NA49021  18.587  12.669   9.530  0.2184  0.1189 -0.1379
32548ION     NA49022   6.375   1.134  10.407  0.0868 -0.0499 -0.0995
32549ION     NA49023   8.851  16.662  15.000  0.2480 -0.1720  0.1030
32550ION     NA49024   3.926   4.113  10.205 -0.2508 -0.2694  0.1046
32551ION     NA49025   8.053  11.987  10.517  0.0289  0.0387 -0.0193
32552ION     NA49026   0.194   1.553   9.697  0.0344  0.2332 -0.2638
32553ION     NA49027   2.915   1.074  11.499 -0.3152  0.1436  0.0075
32554ION     NA49028   3.822  13.771  10.398 -0.1672 -0.3477 -0.2042
32555ION     NA49029   0.215   8.551   3.473 -0.0093  0.0397 -0.1459
32556ION     NA49030  13.549   2.724  10.244  0.1705  0.2107 -0.1413
32557ION     NA49031  13.345   7.832  10.545  0.2836  0.2836 -0.0288
32558ION     NA49032   8.506  12.914   4.022  0.0539  0.3386  0.0710
32559ION     NA49033   6.467   9.185  10.154  0.0430 -0.4643 -0.3855
32560ION     NA49034  10.326  10.663  11.373  0.2390  0.4672 -0.1005
32561ION     NA49035  11.577   1.221  10.416  0.1161  0.0857  0.0905
32562ION     NA49036   1.384  17.379   9.869  0.2393 -0.4407 -0.1445
32563ION     NA49037  18.181   0.617  12.062  0.2098  0.2282  0.1171
32564ION     NA49038   6.835   4.668  10.829 -0.2086 -0.2435  0.0254
32565ION     NA49039  17.401   4.892   9.377  0.3296 -0.3196 -0.2631
32566ION     NA49040   5.013  16.252  15.644  0.1337  0.3773 -0.1292
32567ION     NA49041   6.232  18.707  12.848  0.1197 -0.3615  0.2378
32568ION     NA49042   4.723   3.658  10.119  0.0430  0.1213 -0.0698
32569ION     NA49043   6.515   0.278   5.735 -0.3745 -0.2933 -0.1651
32570ION     NA49044  10.770  16.106   4.670 -0.1113 -0.1500  0.1595
32571ION     NA49045   1.778   1.015  10.022 -0.2023 -0.3648  0.1212
32572ION     NA49046  14.994   3.350   9.683 -0.1528  0.0264 -0.2248
32573ION     NA49047  11.078   4.022   5.855 -0.0647 -0.1364  0.0594
32574ION     NA49048   5.442  12.066   5.671  0.0284 -0.1717 -0.1548
32575ION     NA49049  15.538   9.675   9.847  0.1052  0.3242  0.2427
32576ION     NA49050  10.422  16.146   0.381  0.1276 -0.1703  0.1492
32577ION     NA49051   3.158  12.731   5.421 -0.0579  0.2123  0.4510
32578ION     NA49052  10.655  14.773   1.437 -0.3856 -0.0733 -0.1737
32579ION     NA49053  12.545   0.399   4.885  0.1932 -0.0495  0.1301
32580ION     NA49054   9.964  13.986   3.606 -0.0315 -0.0483 -0.0460
32581ION     NA49055   3.419   1.114   9.939 -0.0494 -0.0464  0.2284
32582ION     NA49056   8.547  14.393   4.634 -0.3704  0.1548 -0.0657
32583ION     NA49057  10.849  17.137  10.569 -0.0523  0.0994  0.0379
32584ION     NA49058   5.104  15.678   4.325 -0.2003  0.0802 -0.0977
32585ION     NA49059  12.934   5.199   6.039  0.1847 -0.2271  0.2105
32586ION     NA49060  17.679  17.012  11.830  0.1456 -0.0412 -0.2305
32587ION     NA49061  18.673   6.090   9.829 -0.1922  0.2119 -0.2472
32588ION     NA49062  17.338  10.191  12.036 -0.1755  0.0539  0.0949
32589ION     NA49063   8.706   5.775   2.830  0.2440 -0.4063  0.0847
32590ION     NA49064  11.187  12.502  13.803  0.0994 -0.1293  0.5548
32591ION     NA49065  10.330  13.340  10.287 -0.0255 -0.0198 -0.2788
32592ION     NA49066  18.310   2.288   9.460 -0.2624  0.2183 -0.0206
32593ION     NA49067  14.841   7.853   2.658 -0.1921 -0.0833 -0.2500
32594ION     NA49068  13.631   1.507   4.864 -0.0787  0.2777  0.0632
32595ION     NA49069   2.234   8.897  14.462 -0.2288 -0.2111  0.0986
32596ION     NA49070  14.785  14.795   9.702 -0.0162  0.0338 -0.2745
32597ION     NA49071  17.460  11.756   5.318 -0.0608  0.4024 -0.1390
32598ION     NA49072   1.806   6.858  12.724 -0.2662 -0.1477 -0.0519
32599ION     NA49073  16.583   8.924   4.895 -0.0379  0.0933 -0.2062
32600ION     NA49074   6.005   8.446  13.013  0.1186  0.3085  0.0009
32601ION     NA49075   4.982   6.254   0.837 -0.3867  0.0610  0.4230
32602ION     NA49076   6.743  16.629  10.265  0.2399  0.0942 -0.0385
32603ION     NA49077  17.665   3.778   0.048  0.2046  0.0224  0.2260
32604ION     NA49078   8.072   4.518  10.354  0.0180  0.0549  0.2939
32605ION     NA49079  14.142   8.138  10.540 -0.2405 -0.0674  0.0774
32606ION     NA49080  12.504   2.577   0.924  0.0705 -0.2547  0.2181
32607ION     NA49081   9.340  12.008  10.401  0.0257 -0.0645 -0.2269
32608ION     NA49082  17.095  15.710   9.455 -0.0316 -0.2092  0.0728
32609ION     NA49083  13.610  11.342  10.368 -0.3324  0.2641 -0.3172
32610ION     NA49084   5.330   7.036   4.430 -0.0484  0.4313 -0.1274
32611ION     NA49085  15.245  18.007   9.578 -0.1847  0.0507 -0.1400
32612ION     NA49086   5.636   7.999   4.987  0.2031 -0.1048 -0.0206
32613ION     NA49087   2.641   6.346  10.263 -0.0041  0.1638  0.0326
32614ION     NA49088   0.183   4.507   9.872 -0.2349  0.0116 -0.1114
32615ION     NA49089   1.828  18.509   1.270 -0.2027 -0.0263 -0.1819
32616ION     NA49090   3.806   8.907   4.990 -0.1068 -0.0894  0.2390
32617ION     NA49091  10.096  16.516  10.342  0.1242  0.0511 -0.2425
32618ION     NA49092  15.840   4.580  13.267 -0.0570  0.0639  0.2096
32619ION     NA49093   7.004  15.667  13.409  0.1354  0.1381  0.0196
32620ION     NA49094  14.458  15.028  12.499 -0.2277  0.1055  0.0831
32621ION     NA49095   0.123  14.138   9.346  0.2633  0.2160  0.1148
32622ION     NA49096  15.154   2.503   0.166 -0.1173  0.2073  0.4006
32623ION     NA49097   4.330  13.624  10.288 -0.0003  0.1368  0.0747
32624ION     NA49098   5.700   1.574  10.046  0.0129  0.0648 -0.0270
32625ION     NA49099  16.006  10.174   5.362  0.2059  0.2450  0.5820
32626ION     NA49100   3.238  17.797   0.783 -0.0161  0.1577  0.3046
32627ION     NA49101  18.370   4.791   9.483  0.0304 -0.0865 -0.0365
32628ION     NA49102  12.167  14.577  10.061  0.2680  0.2674 -0.1334
32629ION     NA49103   3.885  16.383   4.055 -0.2632 -0.2150  0.0416
32630ION     NA49104   0.650  15.167   9.653  0.0946  0.2329  0.1741
32631ION     NA49105   1.083   8.270   9.628  0.1113  0.1561 -0.0089
32632ION     NA49106   8.064  15.632  10.297 -0.0009  0.0531 -0.0716
32633ION     NA49107   3.687  10.435   3.240  0.0087  0.0850 -0.1580
32634ION     NA49108  12.230   6.392  10.343  0.0393  0.1914  0.3049
32635ION     NA49109   9.490  13.524   5.534 -0.0105 -0.0713  0.0527
32636ION     NA49110   9.197  10.264   2.172 -0.1160  0.0768 -0.4366
32637ION     NA49111  10.552  14.008  14.995 -0.2532 -0.0871 -0.0928
32638ION     NA49112   2.593   7.930   4.013  0.1111 -0.1828 -0.0009
32639ION     NA49113  15.391   3.636   9.698  0.0945 -0.2835 -0.0809
32640ION     NA49114   0.555  17.169  11.404  0.3937 -0.0868  0.1744
32641ION     NA49115  16.755   7.303   9.925  0.0877 -0.1679  0.2412
32642ION     NA49116   7.857   8.897  10.158  0.0722  0.0392 -0.1355
32643ION     NA49117   7.449  11.481  10.277 -0.1286  0.3332  0.1444
32644ION     NA49118   3.622  10.072   9.548  0.1286  0.2330  0.1481
32645ION     NA49119   7.578   5.219  10.640  0.1312  0.0275 -0.1935
32646ION     NA49120  10.220   7.588   5.989  0.1612  0.0171  0.1303
32647ION     NA49121  17.116   7.004  13.498 -0.1998  0.0605  0.2171
32648ION     NA49122  17.356  14.158   9.717  0.0329 -0.0017  0.1132
32649ION     NA49123   6.257   8.240  15.586  0.1328  0.2166 -0.0514
32650ION     NA49124  12.628   1.921   4.848  0.2650 -0.1848  0.1632
32651ION     NA49125  12.429  10.366  12.333 -0.0374  0.2000  0.0507
32652ION     NA49126   9.232   4.705  11.168 -0.0478  0.2866 -0.1129
32653ION     NA49127   6.375  18.447  10.835 -0.3267  0.3889  0.0158
32654ION     NA49128  16.968   8.763   9.661  0.1909 -0.2607 -0.1056
32655ION     NA49129   2.495  10.189   9.706 -0.1745 -0.0539 -0.2789
32656ION     NA49130   2.624  14.382  10.072 -0.3195 -0.0077  0.3634
32657ION     NA49131  14.763  18.798   5.343  0.0697 -0.1634  0.0693
32658ION     NA49132   4.545  16.463  14.088 -0.0185 -0.0567  0.1103
32659ION     NA49133   8.628   1.794  12.210 -0.1403  0.2350 -0.3976
32660ION     NA49134  15.827  14.984   5.146  0.1574 -0.1854 -0.0664
32661ION     NA49135   6.811   7.701   1.708  0.3282  0.2363 -0.2245
32662ION     NA49136  16.191   6.812   9.721 -0.1325  0.3355 -0.2600
32663ION     NA49137   1.025   4.236  10.342 -0.0047  0.3489  0.0467
32664ION     NA49138   8.716  14.303  13.956 -0.0219 -0.0653  0.1569
32665ION     NA49139  11.172  16.256  10.367  0.5953 -0.1165 -0.0768
32666ION     NA49140   6.151   4.162  10.553  0.3581 -0.0918 -0.1795
32667ION     NA49141  15.102   9.867   9.752 -0.0950  0.1778  0.0755
32668ION     NA49142   6.371   9.983   3.987  0.0368 -0.3397 -0.1084
32669ION     NA49143   7.247  11.949  10.166  0.4019  0.1976 -0.1819
32670ION     NA49144  17.229  17.560  14.492 -0.1712 -0.1317  0.1027
32671ION     NA49145  16.882  16.426   9.552 -0.0631  0.1813 -0.1947
32672ION     NA49146   8.111  14.738  10.532  0.0953  0.4821 -0.3578
32673ION     NA49147  17.766   0.442   9.404 -0.1292  0.2609  0.0516
32674ION     NA49148   2.732  10.200  13.006 -0.0203 -0.1695  0.3534
32675ION     NA49149  17.485   8.769   5.337  0.1733 -0.0751 -0.2083
32676ION     NA49150   3.613   5.118   2.350  0.0106  0.0212 -0.2528
32677ION     NA49151   9.418   1.319  14.326  0.1515  0.2891  0.4212
32678ION     NA49152   3.500  17.989  13.672  0.3036  0.1714  0.2325
32679ION     NA49153   6.781   8.228  13.334  0.0691  0.1703  0.0706
32680ION     NA49154   0.594   4.125   5.430  0.1901 -0.1479  0.1282
32681ION     NA49155  17.876   9.307   9.595  0.1883 -0.4141 -0.0487
32682ION     NA49156   5.208   4.974  10.497 -0.1547 -0.0845 -0.0561
32683ION     NA49157   6.940   9.980  10.342 -0.3102  0.0508 -0.0784
32684ION     NA49158   6.128  10.614   3.172  0.2291 -0.2966 -0.1203
32685ION     NA49159   2.903   4.611  14.237 -0.1196 -0.1338  0.0492
32686ION     NA49160  16.210  11.900   9.626 -0.2055 -0.0247  0.2654
32687ION     NA49161  13.995  14.617  10.041 -0.1451 -0.1501 -0.1758
32688ION     NA49162  15.422   1.947  10.999  0.0670 -0.1501  0.0140
32689ION     NA49163   1.368  10.618  12.477  0.1968  0.3674  0.1300
32690ION     NA49164   0.258   9.749  15.152  0.4998 -0.2416 -0.5042
32691ION     NA49165  11.276   7.298   6.272  0.1956  0.0081  0.1008
32692ION     NA49166   6.004   8.523  10.149 -0.0300  0.0487 -0.1438
32693ION     NA49167  11.561   3.874  13.918  0.1731 -0.1188  0.0595
32694ION     NA49168  12.363  10.109   1.919  0.0432 -0.3178  0.0624
32695ION     NA49169   2.545   0.291   4.901  0.0351  0.0073 -0.0762
32696ION     NA49170   2.374  13.956   4.266 -0.0135 -0.0998 -0.1361
32697ION     NA49171   1.217   0.648  15.071 -0.3441 -0.3177  0.1364
32698ION     NA49172   9.002   2.012  12.750 -0.0487 -0.1814 -0.1400
32699ION     NA49173   0.879   0.441   4.073  0.1492 -0.1103  0.0724
32700ION     NA49174   0.724   9.958  14.308 -0.1831 -0.1483 -0.0533
32701ION     NA49175  18.776  13.068   5.216  0.1778 -0.0913  0.2381
32702ION     NA49176  17.463  15.887   4.813 -0.0081 -0.0339  0.0298
32703ION     NA49177   7.806  16.463  10.482  0.0206 -0.0737 -0.0208
32704ION     NA49178   9.711  14.662  13.077  0.0616 -0.0745  0.0683
32705ION     NA49179  15.810   5.471   9.560 -0.1316  0.0968 -0.0880
32706ION     NA49180   2.629  15.010   5.842  0.2756 -0.0330  0.4186
32707ION     NA49181  15.807  15.467  12.129 -0.0346  0.3136 -0.0038
32708ION     NA49182   3.523  17.885  11.420 -0.1199  0.0353  0.0605
32709ION     NA49183  11.586  16.707   2.097  0.3391 -0.0952 -0.2197
32710ION     NA49184  12.874   6.576   4.518  0.1070 -0.2015  0.2026
32711ION     NA49185   8.639   0.754  10.476 -0.4493  0.1856 -0.1635
32712ION     NA49186   0.837   5.526  12.776  0.0320  0.2252  0.0415
32713ION     NA49187   6.223  12.296  11.141 -0.1718  0.0817  0.0094
32714ION     NA49188  16.334   3.318   9.468  0.0497 -0.1031  0.2145
32715ION     NA49189   1.908   7.500  11.921  0.1419 -0.1584  0.1271
32716ION     NA49190   9.022  11.097  10.324 -0.0344  0.5552  0.0231
32717ION     NA49191  10.447   3.046  10.741 -0.0861  0.1956 -0.0629
32718ION     NA49192  11.344   8.094  10.979  0.1973 -0.3194  0.1304
32719ION     NA49193   6.305  15.778  10.273  0.0982 -0.2335  0.0777
32720ION     NA49194  11.973  16.214  10.058 -0.0629 -0.3587 -0.1034
32721ION     NA49195   9.766   7.553  11.050 -0.0074 -0.3569  0.1877
32722ION     NA49196   5.536   2.389   5.594  0.0091  0.2473  0.1375
32723ION     NA49197   9.294  13.831  12.103 -0.0064  0.1523  0.5325
32724ION     NA49198   0.106  18.125   9.441 -0.0573  0.1811 -0.2725
32725ION     NA49199  13.769   5.372  14.646  0.0129  0.0241  0.1711
32726ION     NA49200  12.049   7.482  10.567 -0.0369 -0.0330 -0.0607
32727ION     NA49201  14.643  12.087   2.279 -0.1381 -0.1491 -0.0312
32728ION     NA49202  11.468   8.421  13.381 -0.0323 -0.1830 -0.3660
32729ION     NA49203  15.273   4.771   2.258  0.0233 -0.3950 -0.0962
32730ION     NA49204   3.538   7.600  10.158  0.2357  0.5241 -0.2521
32731ION     NA49205  10.786   5.124  10.628  0.0358 -0.3362  0.0074
32732ION     NA49206   8.237   2.376  10.511 -0.0737 -0.1913  0.1744
32733ION     NA49207   4.967  12.709  10.298  0.2793 -0.0991 -0.0527
32734ION     NA49208   4.424   1.832  15.605 -0.0063  0.0468  0.5004
32735ION     NA49209  12.841   6.921  10.592 -0.1800 -0.0612  0.0340
32736ION     NA49210   4.671  17.607  10.150 -0.3615  0.2230  0.0985
32737ION     NA49211   9.846  11.406  10.439 -0.0801  0.2022 -0.1595
32738ION     NA49212   7.931   8.171  10.416 -0.0861 -0.0926 -0.0084
32739ION     NA49213   0.035  10.795   0.156 -0.1025 -0.1584 -0.1506
32740ION     NA49214  10.943   1.974  10.544  0.3067  0.0025  0.3252
32741ION     NA49215   8.256   3.380   6.175 -0.1039 -0.0961 -0.0481
32742ION     NA49216  13.793   0.297   9.843 -0.1116 -0.0236 -0.1215
32743ION     NA49217   2.480  11.875   9.569  0.1031  0.1212  0.2081
32744ION     NA49218  13.450  12.312  10.074  0.0225 -0.3093  0.1999
32745ION     NA49219  10.376  12.171   5.582  0.2328  0.0077 -0.1540
32746ION     NA49220  15.001   2.309   9.731  0.1094  0.1529  0.0841
32747ION     NA49221   0.547   0.141   5.359 -0.2577  0.1072  0.0370
32748ION     NA49222   9.605  15.307  15.674 -0.3868  0.2153 -0.3043
32749ION     NA49223  14.530  17.317   9.589  0.1753 -0.5916  0.0369
32750ION     NA49224   4.031  17.735  10.064  0.1725 -0.0688  0.0132
32751ION     NA49225   8.644  13.529   1.219 -0.0534 -0.3870 -0.0069
32752ION     NA49226   4.294  11.263  12.724  0.0265 -0.1449  0.0908
32753ION     NA49227   7.190  18.396  15.545 -0.1408 -0.2001  0.1330
32754ION     NA49228   2.115  18.535   5.664 -0.1302  0.2194 -0.2832
32755ION     NA49229  14.818   3.083   4.803 -0.2647  0.0662 -0.1344
32756ION     NA49230   2.167   1.927   5.230  0.1576 -0.0665 -0.0741
32757ION     NA49231  15.134  16.611   9.730 -0.2059  0.1824  0.0729
32758ION     NA49232   2.625  10.097  14.541 -0.0685  0.1702  0.3114
32759ION     NA49233   7.233  13.052   5.728 -0.2907 -0.0472 -0.0095
32760ION     NA49234  10.306   6.655  10.500 -0.0393 -0.3606 -0.0405
32761ION     NA49235   3.318  11.762   5.547  0.0320 -0.0790  0.2080
32762ION     NA49236  14.270   2.964  10.038  0.1573 -0.0364  0.2407
32763ION     NA49237  17.815   8.667  14.485  0.1463 -0.1865  0.0614
32764ION     NA49238   2.464   5.502   5.529  0.2497 -0.1279  0.1404
32765ION     NA49239  10.216   9.981  10.492 -0.1231  0.1355  0.0277
32766ION     NA49240  11.493  15.307  10.193  0.1148 -0.2604  0.0482
32767ION     NA49241  10.303   9.646  13.263 -0.1740  0.1112  0.1871
32768ION     NA49242   0.653   5.089  10.013 -0.1244 -0.1525 -0.0232
32769ION     NA49243   1.221  11.329   9.726 -0.1760 -0.2277  0.1740
32770ION     NA49244   7.248  17.923  10.333  0.1092  0.0927 -0.0242
32771ION     NA49245   1.180   9.783   9.819  0.0366  0.0929  0.1624
32772ION     NA49246  10.502  17.331   4.450 -0.0556  0.1989 -0.0378
32773ION     NA49247   6.240  16.164   2.256 -0.1165  0.2825 -0.0811
32774ION     NA49248  16.658  10.041   9.633 -0.0348 -0.2049 -0.0043
32775ION     NA49249  16.086   9.972  12.525 -0.4270  0.0671  0.1350
32776ION     NA49250   2.733  11.498  13.229 -0.1865 -0.3883 -0.0099
32777ION     NA49251  13.366  16.418   9.896  0.1146  0.1293 -0.0100
32778ION     NA49252  11.774  10.332   0.480 -0.1063 -0.2049 -0.0694
32779ION     NA49253  11.804  17.518   4.072  0.2168  0.3050  0.2911
32780ION     NA49254  14.115  14.620   4.020 -0.2701  0.4480  0.2212
32781ION     NA49255  15.625   0.655   9.608  0.1730 -0.0880 -0.0950
32782ION     NA49256   7.857  17.360  10.496  0.2328  0.2861  0.3567
32783ION     NA49257  15.912  17.090   9.747 -0.2757  0.0230  0.0712
32784ION     NA49258  16.697   1.753   9.396  0.0403 -0.2380  0.1962
32785ION     NA49259   4.069   6.769  10.153  0.1405 -0.0555 -0.0085
32786ION     NA49260  18.378   6.563   5.318 -0.1668  0.1490  0.2232
32787ION     NA49261  12.162  15.223  12.231  0.3809  0.3332  0.1850
32788ION     NA49262  16.445   6.655   4.668 -0.0452 -0.0928 -0.1572
32789ION     NA49263  17.597   1.368   9.544  0.0653  0.1063  0.0025
32790ION     NA49264   7.722  12.981  10.144 -0.1347  0.1792 -0.0033
32791ION     NA49265  13.516  14.041  10.142 -0.3211  0.2860 -0.0664
32792ION     NA49266   6.165   3.226  10.342 -0.0195  0.2288  0.1334
32793ION     NA49267   4.071  18.645  10.268  0.0959  0.0383 -0.0266
32794ION     NA49268  15.829  15.259  10.645 -0.2994  0.0997  0.1837
32795ION     NA49269   9.696  13.833  10.124  0.2856  0.1878 -0.0907
32796ION     NA49270   2.612  17.572   0.986  0.3334 -0.0873 -0.0229
32797ION     NA49271   8.943  16.243  10.471  0.0717  0.1414 -0.0052
32798ION     NA49272  13.954  18.215   0.722  0.0231 -0.3840  0.3063
32799ION     NA49273   8.398  15.851  12.109 -0.3128 -0.1963  0.2235
32800ION     NA49274  11.967  10.423  10.554 -0.1319  0.0334 -0.1021
32801ION     NA49275   7.614  18.047   3.121 -0.0296  0.0480  0.0685
32802ION     NA49276  11.227  16.027  11.229 -0.1219 -0.0694  0.1984
32803ION     NA49277   5.535   9.891   3.461  0.2797  0.0192  0.1473
32804ION     NA49278  12.172  12.804  10.385 -0.1504  0.0152 -0.3317
32805ION     NA49279  13.196   1.622  12.933  0.1326  0.0742  0.0483
32806ION     NA49280   0.786  11.570   9.848  0.2677 -0.3375 -0.1383
32807ION     NA49281   0.079  15.890   9.630  0.1152 -0.0793 -0.0864
32808ION     NA49282   7.257   1.610  10.128  0.0666  0.1109 -0.0386
32809ION     NA49283   9.330  15.113  13.741 -0.0803  0.0039 -0.1648
32810ION     NA49284   2.218   2.320  10.385  0.2214  0.1422 -0.1576
32811ION     NA49285  13.281  10.514  10.217  0.0164  0.2958  0.0332
32812ION     NA49286   1.287  17.576   1.818 -0.3498 -0.0638  0.0465
32813ION     NA49287   9.474  12.847  10.371  0.0167  0.1358 -0.1521
32814ION     NA49288  13.609   0.559   2.211 -0.0822  0.4436  0.2068
32815ION     NA49289  17.058  16.201   2.233 -0.0301  0.0700  0.0525
32816ION     NA49290   7.816  10.471  10.530  0.2221  0.3626  0.1838
32817ION     NA49291  13.885  10.794  14.385  0.1586 -0.1008  0.1195
32818ION     NA49292  10.122  12.433  10.623 -0.0705  0.3366 -0.1528
32819ION     NA49293  11.773   2.147  10.466  0.1022  0.1532  0.2038
32820ION     NA49294   6.598  18.658  10.163 -0.1819 -0.1790 -0.2136
32821ION     NA49295   9.665  15.757  10.239 -0.0560 -0.0989  0.0774
32822ION     NA49296   2.991   7.770   9.782 -0.0748 -0.1094 -0.0352
32823ION     NA49297   7.420   7.900   4.091 -0.2002  0.1585  0.2139
32824ION     NA49298   0.787  13.283  10.255  0.1007  0.0552  0.1508
32825ION     NA49299   9.191   2.184  10.481  0.2354  0.0808  0.0528
32826ION     NA49300   9.989   4.358  10.625  0.1736  0.1648 -0.0298
32827ION     NA49301  11.642   2.700  10.350 -0.0582  0.2225  0.0274
32828ION     NA49302   8.599   5.462   5.603 -0.0415 -0.1622 -0.3677
32829ION     NA49303  10.837   0.903  10.456 -0.1719  0.3752  0.0553
32830ION     NA49304   7.724   6.113  10.699  0.3260  0.1480  0.2655
32831ION     NA49305  17.333   4.876  14.333 -0.1767  0.4245 -0.1442
32832ION     NA49306  16.355   2.014  14.973 -0.2850 -0.0394  0.1516
32833ION     NA49307  11.940   0.253  10.224  0.2416 -0.0668 -0.1827
32834ION     NA49308   8.482   6.501  10.679 -0.0362  0.0795  0.0545
32835ION     NA49309   0.166   6.738  10.137 -0.2118  0.1153  0.2808
32836ION     NA49310  13.846  11.107   0.686  0.1756  0.0249 -0.2272
32837ION     NA49311  13.522  15.256   5.393  0.2222 -0.1469  0.0379
32838ION     NA49312  14.382  13.773  13.685 -0.4611 -0.4527 -0.2190
32839ION     NA49313   3.955   6.263  10.134  0.0034  0.1690 -0.0196
32840ION     NA49314   0.729  14.074   5.534  0.2173 -0.1395  0.1242
32841ION     NA49315  16.142   4.177   2.495 -0.1608  0.0477  0.0976
32842ION     NA49316   5.369  16.798  10.183 -0.2514 -0.1025  0.0011
32843ION     NA49317   1.984   3.545  12.368  0.1337  0.2158 -0.0545
32844ION     NA49318  18.564   3.089   2.327  0.0774  0.3695  0.0200
32845ION     NA49319  13.818   1.981  10.314  0.0321  0.1607 -0.3523
32846ION     NA49320  10.517  14.606  14.000  0.2983  0.1343  0.0314
32847ION     NA49321   7.285  16.677   5.738  0.1299  0.0389 -0.0296
32848ION     NA49322  15.675   8.525   3.395 -0.2470  0.2629  0.0035
32849ION     NA49323   9.208  14.561  10.167 -0.0750 -0.0779  0.0680
32850ION     NA49324   1.544   9.211   3.866  0.0725  0.0036 -0.0844
32851ION     NA49325  10.442   2.160  14.480 -0.1611  0.0256 -0.1661
32852ION     NA49326  12.816  17.181   9.807  0.0737 -0.3367 -0.0716
32853ION     NA49327   7.337   1.391   4.963  0.1974  0.1127 -0.2177
32854ION     NA49328   4.509   6.919  13.529 -0.1902 -0.2365 -0.1671
32855ION     NA49329  14.144   1.189   9.820  0.0067  0.1977 -0.2800
32856ION     NA49330   4.224  10.616   9.962  0.2537 -0.1227 -0.0646
32857ION     NA49331   1.008   0.062   9.679  0.0462 -0.1395  0.1898
32858ION     NA49332   4.828   4.644   0.395 -0.0488 -0.1138 -0.1775
32859ION     NA49333  14.866   3.884   5.365  0.1527 -0.0251 -0.1228
32860ION     NA49334   3.586  11.162  10.156 -0.2078 -0.2388 -0.0834
32861ION     NA49335  16.214   7.785   9.544 -0.1560 -0.0189  0.0016
32862ION     NA49336  15.051  16.820  15.466 -0.2406  0.0297 -0.1257
32863ION     NA49337  15.045  10.891   5.411 -0.1165  0.1614 -0.0322
32864ION     NA49338  13.615  17.750   9.561  0.1086  0.1497 -0.1562
32865ION     NA49339   3.928   0.627  10.544 -0.3365  0.1478 -0.1490
32866ION     NA49340  10.397   4.195   6.047 -0.1417  0.1045  0.1381
32867ION     NA49341  13.115  13.170  10.247  0.2564  0.0907 -0.0108
32868ION     NA49342   5.967  13.307  13.278  0.2799 -0.3573 -0.3830
32869ION     NA49343   5.259   5.904  10.222 -0.0899 -0.2857  0.0072
32870ION     NA49344   7.198  16.705   4.678  0.0606 -0.1511  0.0506
32871ION     NA49345   0.070  12.491  15.047 -0.0174  0.1880  0.0776
32872ION     NA49346   0.333   0.523   9.748 -0.0629 -0.0004 -0.0217
32873ION     NA49347  18.053   1.516   9.413 -0.0688  0.2156  0.0691
32874ION     NA49348  14.044   9.034  10.161 -0.2502 -0.3423 -0.1960
32875ION     NA49349  11.193   6.267  10.479 -0.3291 -0.0127 -0.0880
32876ION     NA49350  17.460   8.534   1.733 -0.3511  0.0842 -0.1921
32877ION     NA49351   7.604   6.618  15.637  0.2700 -0.1892  0.0306
32878ION     NA49352   8.536   4.809  10.474 -0.2842 -0.2259  0.1469
32879ION     NA49353   1.327   4.186   9.880  0.1000  0.1714  0.2199
32880ION     NA49354  17.351  13.454   5.443 -0.0513 -0.4131 -0.1434
32881ION     NA49355   4.864   2.879  10.158  0.3198  0.0103  0.1950
32882ION     NA49356  10.083   1.748  10.518  0.1478  0.0390  0.0774
32883ION     NA49357  13.400   9.629  10.380 -0.2052 -0.2287  0.1360
32884ION     NA49358   9.711   9.311  10.800 -0.0896 -0.6104 -0.0211
32885ION     NA49359  18.404  13.229   9.514  0.2269  0.2202 -0.3261
32886ION     NA49360   9.698   7.756  14.210 -0.1865 -0.4472  0.2752
32887ION     NA49361   6.749  13.169  11.016  0.2686  0.1334  0.0166
32888ION     NA49362   5.196  16.509   2.600 -0.1617 -0.0656  0.4697
32889ION     NA49363   2.992   2.879  10.332  0.0928 -0.3124  0.3496
32890ION     NA49364   9.077  13.841   5.598  0.1344  0.0681  0.2934
32891ION     NA49365   8.430  15.620  10.658  0.3093  0.0782  0.0393
32892ION     NA49366   9.340  13.063  11.382 -0.2416 -0.0114  0.2977
32893ION     NA49367   7.751  16.113   0.086  0.0070 -0.0275  0.1807
32894ION     NA49368   8.176   3.686  15.245 -0.0980 -0.0400 -0.0901
32895ION     NA49369   0.159   6.786   4.092  0.2943  0.0610  0.2912
32896ION     NA49370   5.526   7.543   9.964  0.2409 -0.0621 -0.0999
32897ION     NA49371  15.319  12.281   9.834  0.0633  0.1179 -0.1390
32898ION     NA49372   7.180  10.654  10.028  0.1714 -0.0722 -0.0131
32899ION     NA49373  17.150  11.622   9.636 -0.2958 -0.2754 -0.3467
32900ION     NA49374   0.368  14.222   2.355  0.1605 -0.2392 -0.1723
32901ION     NA49375   7.059   0.509  10.166  0.0309  0.0932  0.0001
32902ION     NA49376   8.175  10.649   4.048 -0.3624 -0.2308  0.2136
32903ION     NA49377   3.491   4.907  10.028 -0.1311  0.0717 -0.0061
32904ION     NA49378  13.685   6.401  10.578  0.0219  0.0177  0.2972
32905ION     NA49379   4.505  16.427  10.464 -0.1240 -0.0565 -0.0899
32906ION     NA49380  16.232  15.944   2.490  0.1608  0.1541  0.0580
32907ION     NA49381   0.822   8.999   9.839  0.3000 -0.2797 -0.0900
32908ION     NA49382   5.860   4.705   0.210  0.1989  0.0945  0.2510
32909ION     NA49383   0.169  18.578   3.292 -0.0252  0.1422  0.1550
32910ION     NA49384   6.190  16.791  10.229  0.1568  0.1368 -0.3599
32911ION     NA49385   6.471   1.884   9.960 -0.1684 -0.0165 -0.0338
32912ION     NA49386  16.218  14.370   3.841 -0.1316 -0.0244 -0.1131
32913ION     NA49387  13.806  11.867  10.104 -0.0047 -0.0179 -0.0172
32914ION     NA49388   0.964   7.249   5.651 -0.3757 -0.1203  0.3950
32915ION     NA49389   3.316  12.111  10.134 -0.1240 -0.0237  0.0089
32916ION     NA49390   5.552  12.213  10.483 -0.1568  0.4295  0.2801
32917ION     NA49391  14.515  18.369   9.772  0.0675 -0.2621 -0.1068
32918ION     NA49392  15.404   6.303   9.779  0.3277 -0.4238  0.3548
32919ION     NA49393   2.494   0.288  10.067 -0.0692 -0.4370 -0.0047
32920ION     NA49394  11.359  13.187  10.147 -0.1181  0.2298 -0.3974
32921ION     NA49395  12.448   4.142  10.450 -0.0520  0.1282 -0.0767
32922ION     NA49396  12.057  18.612  10.212 -0.1586 -0.4397  0.1853
32923ION     NA49397  10.291   7.216   6.447  0.0641  0.0392 -0.0639
32924ION     NA49398   2.307   8.383  10.053  0.0189  0.0522  0.0613
32925ION     NA49399  14.564  10.746   9.779  0.0284  0.0488  0.0106
32926ION     NA49400   8.658  12.573  10.176  0.5673  0.0375 -0.2356
32927ION     NA49401   9.643  18.412   3.831  0.0073  0.0343 -0.3180
32928ION     NA49402   3.831  15.308  10.064  0.2633  0.3400  0.2705
32929ION     NA49403   2.173   4.891  14.442 -0.0795  0.3114  0.0644
32930ION     NA49404   5.135  16.657   5.879  0.2030  0.1774  0.1265
32931ION     NA49405   1.172   3.318   5.491 -0.0070 -0.0311  0.3030
32932ION     NA49406  11.747   3.766  10.246  0.2155 -0.1253  0.0206
32933ION     NA49407   4.841  13.872   3.798  0.0390 -0.0353  0.0807
32934ION     NA49408  16.342  15.618   9.757  0.0683 -0.0636 -0.0889
32935ION     NA49409   2.579   4.471   9.853  0.0191 -0.2491  0.0263
32936ION     NA49410  18.181  14.598  11.494  0.2712  0.0465 -0.1523
32937ION     NA49411   9.579   3.046  10.394 -0.0968  0.0506  0.0550
32938ION     NA49412   9.696  11.355   5.827  0.0657  0.1507  0.0121
32939ION     NA49413  16.789  12.295   0.891 -0.0739 -0.0452  0.0658
32940ION     NA49414   5.577  15.124  10.491 -0.1639  0.0841  0.0565
32941ION     NA49415   6.116  10.690  10.187 -0.2338  0.0408  0.3710
32942ION     NA49416  15.165   4.505   9.521  0.2876 -0.0251 -0.0447
32943ION     NA49417  12.982   5.065  11.738  0.2071  0.1806  0.1325
32944ION     NA49418   3.076  13.505  10.091  0.3508  0.3557 -0.1647
32945ION     NA49419  12.211   8.521  10.936 -0.3772  0.2192 -0.2377
32946ION     NA49420   8.970   7.154  10.875  0.2362 -0.2104  0.3447
32947ION     NA49421  11.535   9.495   5.850 -0.1167 -0.1172 -0.0879
32948ION     NA49422   2.178   0.536  13.242 -0.1942  0.0863  0.0265
32949ION     NA49423  11.533   7.414   1.043 -0.0309 -0.0993 -0.0050
32950ION     NA49424  10.893  11.962  10.371  0.1144  0.1902 -0.0222
32951ION     NA49425  18.219   4.192   9.497 -0.2242  0.0922 -0.0175
32952ION     NA49426  14.794  15.852   9.852 -0.3243 -0.2031  0.3002
32953ION     NA49427   1.893  12.322  13.516 -0.1299 -0.2612  0.0886
32954ION     NA49428   5.613  10.817   5.446  0.1466  0.1137  0.1592
32955ION     NA49429   0.344   9.862   9.717 -0.1662  0.1683 -0.1078
32956ION     NA49430   2.850   2.656   4.018  0.2119  0.1171 -0.2114
32957ION     NA49431   1.892  15.938   9.953  0.3621  0.2060 -0.2476
32958ION     NA49432  14.475  11.468  11.795  0.0101  0.1244 -0.0019
32959ION     NA49433  14.613  11.500   5.664  0.0214 -0.4037 -0.1249
32960ION     NA49434   2.792   5.534  12.849 -0.2950 -0.2653  0.1495
32961ION     NA49435  16.770   4.353   9.582 -0.1739  0.1182  0.2087
32962ION     NA49436   1.945  14.341   5.547  0.2812  0.1058  0.1288
32963ION     NA49437  18.810  13.773  14.866 -0.1007 -0.4516  0.2673
32964ION     NA49438   0.917  18.099  10.199 -0.3019  0.1108  0.1441
32965ION     NA49439  10.444   2.845   5.771  0.2057 -0.0303 -0.0341
32966ION     NA49440  16.410   5.589  10.006  0.0481 -0.2363  0.1523
32967ION     NA49441   2.669  18.245  10.084  0.0253  0.0708 -0.2818
32968ION     NA49442  13.003   3.889   5.623 -0.0442 -0.0521  0.0881
32969ION     NA49443  10.780   7.853  10.773  0.2240 -0.0112  0.0805
32970ION     NA49444   4.606  11.125  10.115  0.5743 -0.0065  0.0622
32971ION     NA49445   1.191  16.554   9.673 -0.0823  0.1970  0.0515
32972ION     NA49446   7.149   7.701  10.596  0.2997 -0.0255  0.0162
32973ION     NA49447   9.772  15.139   2.511  0.1110  0.0278 -0.2081
32974ION     NA49448   6.678   2.319   2.777  0.2047  0.0458 -0.1058
32975ION     NA49449   3.155  14.623   2.331 -0.3123 -0.1776  0.3035
32976ION     NA49450  11.872   5.531  10.202  0.0922  0.0006  0.0176
32977ION     NA49451   8.576   1.636  10.433 -0.2153 -0.0709 -0.0615
32978ION     NA49452  17.763  18.541  13.657 -0.2987  0.0719  0.3545
32979ION     NA49453  18.358   0.479   9.994  0.1062  0.2329  0.0905
32980ION     NA49454   0.988  14.287   9.630  0.2613  0.2509  0.1331
32981ION     NA49455   9.534  14.523   3.103 -0.1228 -0.0065 -0.0248
32982ION     NA49456  15.805   1.331   9.670 -0.0561 -0.1342 -0.3765
32983ION     NA49457  15.531   8.669   9.708 -0.2876 -0.0498  0.3844
32984ION     NA49458   3.715  12.977  10.069 -0.0824 -0.1444  0.3500
32985ION     NA49459  17.292   4.401   9.553 -0.2209 -0.0675  0.1071
32986ION     NA49460  16.484   7.839  12.153 -0.1184  0.0013  0.4126
32987ION     NA49461  18.099   6.946   9.881 -0.4404 -0.0382  0.0901
32988ION     NA49462  16.806   5.203   9.498 -0.1182 -0.1098  0.0891
32989ION     NA49463  10.664   9.241  10.765  0.1964 -0.2035 -0.2721
32990ION     NA49464   8.121   6.403  12.457 -0.0611 -0.1469  0.0337
32991ION     NA49465  15.632   7.209  10.221  0.2132 -0.1449  0.0343
32992ION     NA49466  13.303   8.731  10.536  0.1103 -0.3745 -0.4586
32993ION     NA49467  16.224   9.166   9.756 -0.1571 -0.2137 -0.2334
32994ION     NA49468  11.928  17.081   0.394  0.0264  0.2328 -0.2001
32995ION     NA49469   9.249  17.246   0.388 -0.3306  0.0641 -0.0327
32996ION     NA49470  17.648  15.007   5.133  0.0123 -0.3706  0.2107
32997ION     NA49471   3.640  13.988   0.019  0.1417 -0.3095  0.1074
32998ION     NA49472   6.880  11.090  10.865 -0.0721  0.0075 -0.2496
32999ION     NA49473  14.729   9.561   1.890  0.3342  0.0237 -0.3563
33000ION     NA49474   9.013  15.404  10.378 -0.1086  0.0155  0.2891
33001ION     NA49475  18.842   0.309  12.441 -0.1736  0.0290  0.1621
33002ION     NA49476   4.895   2.024  10.053  0.0779 -0.2487  0.1730
33003ION     NA49477  18.238   2.919   9.463 -0.2808 -0.3300 -0.1886
33004ION     NA49478   7.635   0.854  10.400  0.3819 -0.1269  0.1828
33005ION     NA49479   1.828   3.800  10.043  0.3613 -0.1340  0.1173
33006ION     NA49480  17.557  12.439   1.630 -0.1058 -0.1137  0.4189
33007ION     NA49481   1.819  13.793  11.789  0.2129 -0.0679  0.1231
33008ION     NA49482  18.524   5.284   9.729 -0.0346 -0.3070  0.2995
33009ION     NA49483   0.939   1.192   9.902 -0.1698 -0.1456 -0.1835
33010ION     NA49484   0.235  18.665   0.153  0.2385 -0.0582  0.0949
33011ION     NA49485  12.604  12.060  10.353  0.1388 -0.1204  0.1118
33012ION     NA49486  13.880  17.721   5.338 -0.0477  0.1858  0.1321
33013ION     NA49487   2.541   9.406   4.705  0.0633 -0.1357 -0.1016
33014ION     NA49488  14.268  16.519   9.874  0.2271 -0.1310 -0.3253
33015ION     NA49489  14.073   5.600  10.195  0.1322  0.1135 -0.1311
33016ION     NA49490  16.817  12.473   9.541  0.2506  0.1418 -0.0346
33017ION     NA49491   5.364  14.652  10.350 -0.0691  0.2678 -0.0471
33018ION     NA49492   7.381  15.726   3.643 -0.0643  0.3127  0.1821
33019ION     NA49493  17.481  12.587   5.093 -0.0243  0.0129  0.0761
33020ION     NA49494  18.620  15.059   9.572  0.3082  0.1046  0.1663
33021ION     NA49495  11.614  14.289  10.183 -0.3126  0.0449 -0.1988
33022ION     NA49496   9.684   3.500  10.668  0.3101  0.2348  0.0412
33023ION     NA49497  14.000   4.365  13.648  0.0827  0.1517  0.1508
33024ION     NA49498   3.304   8.583   9.928 -0.1044 -0.1155 -0.2003
33025ION     NA49499   8.104  18.637  10.392  0.0807  0.0024  0.0018
33026ION     NA49500   3.466   7.504   5.394 -0.1431  0.2085 -0.1331
33027ION     NA49501  12.975  13.858   3.625 -0.0863 -0.0665 -0.3946
33028ION     NA49502   0.537  17.150   9.920  0.4976  0.1930  0.2027
33029ION     NA49503  16.370  17.876   9.533  0.0503  0.2767 -0.0379
33030ION     NA49504   9.392   3.058  15.449  0.0693  0.0802 -0.3231
33031ION     NA49505  14.055   4.449   5.470  0.0139  0.0578 -0.1847
33032ION     NA49506   9.425   6.232  12.375 -0.2566  0.1446  0.0811
33033ION     NA49507   5.822   1.813   2.693 -0.0925 -0.0248  0.0146
33034ION     NA49508   1.735  17.364  12.530  0.2089 -0.3533 -0.0194
33035ION     NA49509  16.916  11.907   5.458  0.1308  0.0233  0.0339
33036ION     NA49510   5.449  11.280  10.115 -0.4030 -0.0056 -0.0415
33037ION     NA49511   4.456   1.310  10.060 -0.2236  0.2109 -0.1665
33038ION     NA49512   6.905   3.551  10.282  0.3600  0.1832 -0.0477
33039ION     NA49513   6.330   4.592   6.150 -0.0405  0.1283 -0.0139
33040ION     NA49514   4.060   9.105  10.076  0.2635 -0.0600 -0.0404
33041ION     NA49515   8.003  16.833  14.687  0.1225 -0.0846  0.3822
33042ION     NA49516   8.423   9.600  10.562  0.0272  0.3313 -0.1696
33043ION     NA49517   6.568  12.656  10.236 -0.0041  0.0716 -0.0554
33044ION     NA49518   1.482   8.488  11.511  0.0166 -0.2076  0.2756
33045ION     NA49519   6.349   3.187  13.171 -0.0993 -0.1630 -0.0269
33046ION     NA49520  10.091  16.537  14.111  0.0532  0.0819  0.1675
33047ION     NA49521   5.871   4.515   5.937 -0.4846 -0.1517  0.0377
33048ION     NA49522   5.559  18.265  10.100  0.1001 -0.1114  0.1340
33049ION     NA49523  17.171   2.410  12.565 -0.2595  0.2411  0.0658
33050ION     NA49524   0.414  18.804   2.811  0.0607 -0.1553  0.2000
33051ION     NA49525  12.873  18.839  10.134  0.1656  0.0432 -0.0369
33052ION     NA49526   3.193   5.031   5.389  0.1488 -0.4306  0.0579
33053ION     NA49527   4.156   2.495  10.171  0.2646  0.1850 -0.1246
33054ION     NA49528   1.928  13.192   9.687 -0.1932 -0.1266 -0.3158
33055ION     NA49529  14.897  13.557   2.312 -0.4978  0.0369 -0.1561
33056ION     NA49530  17.457   2.667   9.332 -0.1480 -0.0521 -0.1323
33057ION     NA49531   6.341   8.527   3.983 -0.1866  0.0290  0.2800
33058ION     NA49532   5.778  15.247   3.078  0.1701 -0.1602  0.5007
33059ION     NA49533   2.726  17.301  15.363 -0.0969  0.0350  0.0277
33060ION     NA49534  10.142   9.113   6.004  0.3306  0.3534 -0.0485
33061ION     NA49535  14.907  15.613   2.661  0.1087 -0.1581 -0.2843
33062ION     NA49536   0.179   6.603  15.158  0.0218  0.0387 -0.0825
33063ION     NA49537   2.412   3.637  10.081 -0.0021 -0.1885 -0.0089
33064ION     NA49538  18.107  18.593   9.336 -0.1985 -0.0392  0.0528
33065ION     NA49539   5.743  13.035  10.295 -0.0475  0.1439  0.0205
33066ION     NA49540   8.949  15.230   5.482 -0.1194  0.3951  0.1038
33067ION     NA49541   1.655   4.919   9.946  0.3056 -0.0533 -0.0470
33068ION     NA49542  16.398   4.451  12.385  0.3303  0.0540  0.0864
33069ION     NA49543   0.973  12.824   9.514 -0.5606  0.3891 -0.1907
33070ION     NA49544   2.806  13.086  10.119 -0.0101 -0.0906  0.2973
33071ION     NA49545  12.446   3.095  12.209 -0.0197  0.1085  0.1149
33072ION     NA49546  16.829  18.675   9.584  0.2432  0.1829 -0.2274
33073ION     NA49547  14.668   0.545   9.897  0.0692 -0.2663  0.0703
33074ION     NA49548  10.076  17.413  10.195 -0.0819 -0.1249 -0.3889
33075ION     NA49549   8.538  17.708  11.497  0.1660  0.2710  0.1673
33076ION     NA49550  14.279   6.637   5.135 -0.1451 -0.1861 -0.1265
33077ION     NA49551   7.498   9.725  10.344 -0.0347  0.2876  0.0049
33078ION     NA49552   9.502  10.456  10.433  0.0781  0.1527  0.1216
33079ION     NA49553  17.741  16.543   9.571  0.2351 -0.0897 -0.1127
33080ION     NA49554  15.645   4.444  14.943  0.1403 -0.3928  0.0532
33081ION     NA49555  15.988   4.588   9.486 -0.0210 -0.1554  0.0444
33082ION     NA49556  10.297  15.509   5.584  0.2195 -0.1063  0.1013
33083ION     NA49557  16.116   3.496   1.839 -0.2625 -0.2958  0.3301
33084ION     NA49558  11.690  12.456  10.578 -0.0790 -0.1466  0.0605
33085ION     NA49559   0.472   7.666   9.936 -0.6358  0.2758 -0.1044
33086ION     NA49560   6.120   3.620  13.795 -0.0932 -0.0328 -0.3897
33087ION     NA49561   4.585  14.921  10.600  0.0888  0.0171  0.1043
33088ION     NA49562   9.680  14.732  10.408 -0.1226 -0.0010  0.0164
33089ION     NA49563   6.162   6.105  10.249  0.2541  0.0608  0.1020
33090ION     NA49564   1.908   1.524  10.761  0.0993 -0.3102 -0.2609
33091ION     NA49565  14.524   6.583   9.800  0.3090 -0.2188 -0.0152
33092ION     NA49566  16.773  17.032   9.455  0.2919 -0.0812 -0.2778
33093ION     NA49567  12.740   4.592  10.610 -0.1103 -0.0134 -0.2187
33094ION     NA49568   1.987  11.924   2.625 -0.1434 -0.1476  0.1658
33095ION     NA49569   6.332  11.933   5.359 -0.3584  0.4995 -0.1474
33096ION     NA49570   9.567  17.226   5.723  0.7769 -0.1278  0.0685
33097ION     NA49571  11.212  18.410  10.541 -0.0852 -0.0619 -0.0745
33098ION     NA49572  17.133   0.459  10.288 -0.3302  0.2204  0.0980
33099ION     NA49573  16.777  11.994  11.776  0.0004 -0.0179 -0.4245
33100ION     NA49574   3.108   5.399  10.520  0.5591  0.1113 -0.2793
33101ION     NA49575   6.905  13.586  10.177 -0.2511  0.2654 -0.0122
33102ION     NA49576   3.423  17.200   5.497  0.0069  0.0317  0.0616
33103ION     NA49577  18.557   8.179   9.807 -0.1663 -0.1504  0.1151
33104ION     NA49578   0.374   2.242   1.640  0.0792 -0.2862  0.0568
33105ION     NA49579  12.176  18.141  13.962 -0.0543 -0.3396 -0.2952
33106ION     NA49580  12.554   1.581  10.282 -0.0296 -0.0637  0.1733
33107ION     NA49581  16.913  17.587   5.370 -0.1520 -0.3637  0.0249
33108ION     NA49582   1.435  12.218   2.301  0.2935 -0.1982 -0.0668
33109ION     NA49583  12.677  18.051  10.020  0.1965 -0.2811 -0.1042
33110ION     NA49584   2.299   9.202   0.800 -0.0510 -0.0991 -0.2954
33111ION     NA49585   0.979   0.473  10.670  0.1456  0.1876 -0.0694
33112ION     NA49586   4.351   7.399   4.958  0.1274  0.3005 -0.2718
33113ION     NA49587  16.862   0.874   9.254  0.0209  0.3845 -0.1330
33114ION     NA49588  11.924  12.814  12.183  0.2893  0.1387 -0.0241
33115ION     NA49589  14.125   9.853   9.984  0.0731 -0.1996 -0.4820
33116ION     NA49590  12.944  14.789  10.287 -0.2112 -0.0034 -0.1805
33117ION     NA49591  17.319   3.566   9.524 -0.2752  0.3690  0.0251
33118ION     NA49592  12.414   4.994  10.137 -0.2495 -0.1040  0.0703
33119ION     NA49593  12.341  11.361   5.433 -0.0066  0.2109  0.2470
33120ION     NA49594   5.320  15.961  10.363  0.0206 -0.1404 -0.0087
33121ION     NA49595  13.100   3.488   1.946  0.1740  0.1778  0.3048
33122ION     NA49596  12.319  15.771   5.386 -0.1238 -0.1892 -0.0101
33123ION     NA49597  13.939  11.172   9.932  0.3302  0.1485 -0.2922
33124ION     NA49598  14.436   2.238   5.252  0.2414  0.0078  0.1465
33125ION     NA49599  17.682  14.108   2.317  0.1209  0.0281 -0.0979
33126ION     NA49600  14.580  11.540   0.616 -0.1095 -0.1901  0.0198
33127ION     NA49601  16.878   6.450   9.977  0.1110 -0.2451 -0.0774
33128ION     NA49602  17.731  12.127   9.749  0.0151  0.3104  0.0466
33129ION     NA49603  12.885   6.145   3.731 -0.1949  0.2642  0.2792
33130ION     NA49604  13.789   4.479   9.881 -0.1281  0.0608 -0.1475
33131ION     NA49605   1.649   1.337   2.100 -0.2232  0.0685  0.1281
33132ION     NA49606   7.217  14.587  10.394  0.1706  0.1477 -0.1398
  18.85242  18.85242  15.69749
