INSANE! Membrane UpperLeaflet>loPI:POPI:DPPI:PYPI:ERGO=180.0:5.0:3.0:2.0:10.0 LowerLeaflet>PSPI:POPI:POPS:YOPS:POPE:YOPE:POPC:YOPC:ERGO=6.0:14.0:21.0:9.0:9.0:21.0:12.0:48.0:60.0
49606
    1loPI    C1    1   7.594   3.864  10.643 -0.0648  0.0014 -0.0024
    1loPI    C2    2   7.420   3.504  10.656  0.2193 -0.1417 -0.0667
    1loPI    C3    3   7.804   3.544  10.762  0.2199  0.1243 -0.1622
    1loPI   PO4    4   7.531   4.059  10.408  0.0360 -0.0215  0.4060
    1loPI   GL1    5   7.507   3.790   9.935 -0.1571  0.0457 -0.2159
    1loPI   GL2    6   7.816   3.768   9.869  0.0367 -0.0991 -0.4769
    1loPI   C1A    7   7.296   3.900   9.587 -0.2727  0.1025  0.0920
    1loPI   C2A    8   7.277   3.960   9.164  0.3913  0.2268  0.0828
    1loPI   C3A    9   7.255   3.996   8.743  0.1236  0.0355 -0.2013
    1loPI   C4A   10   7.201   3.968   8.413  0.1769  0.2455  0.1043
    1loPI   C5A   11   7.156   4.084   8.042 -0.0346 -0.2392  0.4463
    1loPI   C6A   12   7.223   4.463   7.791 -0.2151  0.1366 -0.1534
    1loPI   C1B   13   7.901   3.910   9.419 -0.4429 -0.2777 -0.2829
    1loPI   C2B   14   7.845   4.033   9.028 -0.3518 -0.0249 -0.3980
    1loPI   C3B   15   7.736   4.006   8.565  0.0143  0.1194 -0.0332
    1loPI   C4B   16   7.741   3.944   8.076 -0.2391 -0.2128 -0.0676
    2loPI    C1   17  15.752   1.418  10.796 -0.0983 -0.1765 -0.0106
    2loPI    C2   18  15.788   1.354  11.189  0.1447 -0.0302 -0.0073
    2loPI    C3   19  15.966   1.670  11.021  0.0259 -0.0812 -0.2325
    2loPI   PO4   20  15.545   1.434  10.713 -0.0909 -0.0948  0.2080
    2loPI   GL1   21  15.364   1.386  10.281 -0.2377 -0.0215  0.2102
    2loPI   GL2   22  15.727   1.339  10.192 -0.0195  0.2404 -0.0802
    2loPI   C1A   23  15.193   1.422   9.876  0.2549  0.1312 -0.0499
    2loPI   C2A   24  15.047   1.455   9.469  0.0322  0.0999 -0.2260
    2loPI   C3A   25  15.030   1.486   9.024  0.1794  0.1807 -0.1385
    2loPI   C4A   26  14.998   1.572   8.609 -0.0207 -0.0809 -0.3892
    2loPI   C5A   27  15.143   1.439   8.210 -0.1878  0.1807 -0.2980
    2loPI   C6A   28  15.088   1.454   7.739  0.2955 -0.0013 -0.1150
    2loPI   C1B   29  15.615   1.242   9.825 -0.0591  0.0362  0.2839
    2loPI   C2B   30  15.599   1.184   9.464  0.1178  0.2671 -0.2067
    2loPI   C3B   31  15.523   1.217   9.040  0.1456 -0.2250 -0.0087
    2loPI   C4B   32  15.503   1.317   8.586  0.1917  0.1803 -0.1370
    3loPI    C1   33   3.812  13.230  10.808  0.0376  0.2426  0.0610
    3loPI    C2   34   3.426  13.335  10.821  0.0058  0.1731 -0.2401
    3loPI    C3   35   3.655  13.373  11.147 -0.3002  0.0354 -0.0034
    3loPI   PO4   36   3.844  13.108  10.526  0.2122  0.2843  0.1347
    3loPI   GL1   37   4.094  12.923  10.146  0.1179  0.1091 -0.0634
    3loPI   GL2   38   4.267  12.696  10.103  0.0207 -0.3663 -0.0826
    3loPI   C1A   39   4.113  12.734   9.653  0.1604  0.2219  0.0065
    3loPI   C2A   40   4.107  12.650   9.262  0.2180 -0.3051 -0.1192
    3loPI   C3A   41   4.037  12.759   8.793 -0.1596  0.0552  0.1342
    3loPI   C4A   42   4.026  12.815   8.412 -0.0872  0.2253  0.1180
    3loPI   C5A   43   4.350  12.589   8.151  0.1709 -0.1203 -0.1179
    3loPI   C6A   44   4.729  12.288   7.989  0.2316  0.2177 -0.2143
    3loPI   C1B   45   4.660  12.563   9.881 -0.4484 -0.2248  0.0649
    3loPI   C2B   46   4.589  12.495   9.479  0.3084 -0.3067  0.0340
    3loPI   C3B   47   4.549  12.470   9.043 -0.0039 -0.2567  0.2206
    3loPI   C4B   48   4.522  12.522   8.615  0.1237  0.1536 -0.0238
    4loPI    C1   49  13.785   3.294  10.595 -0.0364 -0.0507  0.1620
    4loPI    C2   50  13.746   3.682  10.680  0.0212  0.0124 -0.0914
    4loPI    C3   51  13.430   3.438  10.709  0.0111  0.0544  0.1775
    4loPI   PO4   52  13.834   3.278  10.423 -0.0266  0.0227  0.1313
    4loPI   GL1   53  13.716   3.276  10.059 -0.0081 -0.1877 -0.0920
    4loPI   GL2   54  13.896   3.003  10.016  0.2879  0.2624 -0.0519
    4loPI   C1A   55  13.683   3.242   9.573 -0.0674 -0.1748 -0.1696
    4loPI   C2A   56  13.818   3.450   9.254  0.0140  0.0100 -0.2202
    4loPI   C3A   57  13.954   3.443   8.855 -0.1732  0.5534 -0.4241
    4loPI   C4A   58  14.125   3.385   8.443 -0.0418  0.0868 -0.2853
    4loPI   C5A   59  14.282   3.439   8.005  0.0443  0.0714 -0.0523
    4loPI   C6A   60  14.281   3.811   7.783 -0.1037 -0.2473  0.2728
    4loPI   C1B   61  14.005   2.781   9.584 -0.1434 -0.1692  0.1207
    4loPI   C2B   62  13.924   2.904   9.153  0.0789  0.0140  0.0064
    4loPI   C3B   63  14.044   2.936   8.715 -0.1551 -0.0240 -0.3853
    4loPI   C4B   64  14.163   2.958   8.168  0.0825 -0.3431 -0.0183
    5loPI    C1   65   6.194   8.575  11.193  0.3193 -0.1255  0.1388
    5loPI    C2   66   6.495   8.834  11.237  0.2435 -0.0180  0.0313
    5loPI    C3   67   6.350   8.640  11.556 -0.0524  0.4721  0.2054
    5loPI   PO4   68   5.990   8.751  11.032 -0.4791 -0.1387  0.0599
    5loPI   GL1   69   5.939   8.772  10.599 -0.1538 -0.0297  0.1914
    5loPI   GL2   70   5.806   9.022  10.512  0.2778 -0.1461  0.0302
    5loPI   C1A   71   6.218   8.992  10.276 -0.2616 -0.3405 -0.0439
    5loPI   C2A   72   6.348   8.900   9.823  0.2946 -0.1545 -0.0309
    5loPI   C3A   73   6.307   8.796   9.425  0.1960 -0.1893  0.1660
    5loPI   C4A   74   6.343   8.811   8.995  0.1059  0.1852  0.3430
    5loPI   C5A   75   6.511   8.808   8.622 -0.0413  0.1265  0.3193
    5loPI   C6A   76   6.702   9.187   8.383  0.0233 -0.0413 -0.4309
    5loPI   C1B   77   5.682   8.845  10.150 -0.0774  0.4154 -0.3902
    5loPI   C2B   78   5.758   8.864   9.662  0.0163  0.1176 -0.1022
    5loPI   C3B   79   5.852   8.819   9.217 -0.1541  0.2021  0.1056
    5loPI   C4B   80   5.806   8.843   8.807 -0.2884  0.1681  0.3332
    6loPI    C1   81  13.395   4.265  10.332 -0.1201  0.0309 -0.0104
    6loPI    C2   82  13.290   3.927  10.517 -0.4865  0.1160 -0.0560
    6loPI    C3   83  13.530   4.188  10.701  0.1943 -0.3781 -0.2022
    6loPI   PO4   84  13.508   4.223  10.140 -0.2701  0.1599  0.0064
    6loPI   GL1   85  13.674   4.384   9.792  0.1105 -0.1794  0.0028
    6loPI   GL2   86  13.581   4.618   9.634 -0.1761 -0.2193  0.2617
    6loPI   C1A   87  13.653   4.240   9.331  0.2231  0.1412 -0.0390
    6loPI   C2A   88  13.594   4.255   8.897 -0.2787  0.1701  0.0834
    6loPI   C3A   89  13.659   4.363   8.461  0.0406 -0.1101  0.3835
    6loPI   C4A   90  13.729   4.616   8.126  0.0112 -0.0234 -0.1990
    6loPI   C5A   91  13.842   4.811   7.784  0.1173  0.1322  0.0700
    6loPI   C6A   92  13.581   5.143   7.488  0.0545  0.0731 -0.0971
    6loPI   C1B   93  13.449   4.677   9.223  0.3237 -0.0510 -0.1878
    6loPI   C2B   94  13.407   4.761   8.831  0.0629  0.2323  0.0595
    6loPI   C3B   95  13.480   4.967   8.454 -0.6791 -0.3252 -0.2401
    6loPI   C4B   96  13.406   4.989   7.940 -0.3160  0.3137 -0.2098
    7loPI    C1   97   4.710   7.205  10.962  0.2221 -0.5167 -0.0002
    7loPI    C2   98   4.914   7.451  11.202 -0.1150 -0.2810  0.0524
    7loPI    C3   99   4.869   7.066  11.301  0.1294 -0.2891  0.1387
    7loPI   PO4  100   4.902   7.246  10.752  0.1936  0.3362 -0.0042
    7loPI   GL1  101   4.924   7.477  10.449 -0.0971 -0.2669  0.3142
    7loPI   GL2  102   5.068   7.769  10.437 -0.2276  0.1377  0.0976
    7loPI   C1A  103   4.939   7.501  10.003  0.0863 -0.2659  0.0269
    7loPI   C2A  104   5.001   7.586   9.561  0.2747 -0.0314  0.2896
    7loPI   C3A  105   4.958   7.491   9.087 -0.2304 -0.5821 -0.0968
    7loPI   C4A  106   4.951   7.450   8.643 -0.1603 -0.2446  0.0577
    7loPI   C5A  107   4.993   7.697   8.277  0.0596 -0.2397 -0.0495
    7loPI   C6A  108   5.231   8.057   8.099 -0.2940 -0.1926 -0.0001
    7loPI   C1B  109   5.173   7.924  10.046 -0.0279  0.0578 -0.3035
    7loPI   C2B  110   5.262   8.009   9.597  0.1513 -0.0639 -0.1579
    7loPI   C3B  111   5.218   7.936   9.135  0.1864  0.0966  0.3069
    7loPI   C4B  112   5.356   7.961   8.660 -0.0614 -0.1553  0.1355
    8loPI    C1  113   5.294   9.775  10.921  0.0732 -0.1645 -0.1711
    8loPI    C2  114   5.652   9.794  11.098 -0.0899 -0.0790  0.1565
    8loPI    C3  115   5.400   9.496  11.187 -0.0831 -0.1662 -0.1091
    8loPI   PO4  116   5.282   9.768  10.665 -0.3734  0.0741 -0.0158
    8loPI   GL1  117   5.258  10.043  10.322  0.3594 -0.1942  0.0291
    8loPI   GL2  118   5.017   9.935  10.064 -0.2506  0.1886  0.2479
    8loPI   C1A  119   5.518  10.287  10.048  0.1509  0.2361  0.1448
    8loPI   C2A  120   5.497  10.272   9.619 -0.2770  0.2731  0.0032
    8loPI   C3A  121   5.508  10.217   9.191  0.0412 -0.0461  0.0724
    8loPI   C4A  122   5.262  10.272   8.884  0.0113  0.2467  0.0656
    8loPI   C5A  123   5.044  10.117   8.491  0.2577 -0.1782 -0.1959
    8loPI   C6A  124   5.108  10.194   8.011  0.0452 -0.0912 -0.0082
    8loPI   C1B  125   5.103   9.981   9.591 -0.2475  0.1253  0.2017
    8loPI   C2B  126   5.154   9.883   9.261  0.0743  0.3496 -0.2815
    8loPI   C3B  127   5.308   9.695   8.926  0.1776 -0.1305 -0.1835
    8loPI   C4B  128   5.398   9.677   8.491 -0.0971  0.1328 -0.1818
    9loPI    C1  129  16.888  10.116  10.543  0.2075  0.0773  0.0131
    9loPI    C2  130  17.031   9.810  10.759 -0.1805 -0.1701 -0.0705
    9loPI    C3  131  16.767  10.064  10.921  0.0033  0.0165 -0.0592
    9loPI   PO4  132  16.802  10.033  10.361  0.0725  0.0784 -0.0076
    9loPI   GL1  133  16.712   9.863   9.940 -0.2053  0.0074 -0.1802
    9loPI   GL2  134  16.772  10.207   9.864  0.1489 -0.0887 -0.0059
    9loPI   C1A  135  16.768   9.819   9.537 -0.3345 -0.0265 -0.1432
    9loPI   C2A  136  16.825   9.758   9.122  0.0395 -0.0520  0.2474
    9loPI   C3A  137  16.979   9.893   8.775  0.1466 -0.0508  0.0867
    9loPI   C4A  138  16.951   9.804   8.327 -0.2585 -0.1406  0.3265
    9loPI   C5A  139  17.090   9.913   7.934 -0.0986  0.3036 -0.0160
    9loPI   C6A  140  16.920   9.898   7.482  0.1285  0.1317  0.0585
    9loPI   C1B  141  16.758  10.370   9.474 -0.0630 -0.0837 -0.0568
    9loPI   C2B  142  16.691  10.260   9.035 -0.0472 -0.1844  0.0896
    9loPI   C3B  143  16.634  10.242   8.655 -0.0067 -0.0071 -0.1321
    9loPI   C4B  144  16.651  10.226   8.215 -0.0876  0.2426 -0.0241
   10loPI    C1  145  13.705   9.993  10.991 -0.2165 -0.0257  0.0632
   10loPI    C2  146  13.618   9.620  11.107  0.1616 -0.1163  0.0670
   10loPI    C3  147  13.810   9.867  11.356 -0.0946  0.0866  0.0672
   10loPI   PO4  148  13.822   9.964  10.802 -0.0621 -0.0353  0.0031
   10loPI   GL1  149  14.008   9.870  10.340 -0.1147  0.2527  0.0640
   10loPI   GL2  150  13.682   9.917  10.263  0.2005 -0.1920 -0.3074
   10loPI   C1A  151  13.975   9.522  10.029 -0.0527  0.1663 -0.0639
   10loPI   C2A  152  13.849   9.396   9.535 -0.1682 -0.1312 -0.0226
   10loPI   C3A  153  13.944   9.376   9.040  0.3684  0.1633 -0.0654
   10loPI   C4A  154  14.060   9.548   8.635  0.5374 -0.2050 -0.0631
   10loPI   C5A  155  14.072   9.871   8.349  0.4554 -0.0680  0.1609
   10loPI   C6A  156  13.943  10.314   8.169  0.2760  0.0945 -0.0139
   10loPI   C1B  157  13.651   9.887   9.811 -0.0203 -0.0380 -0.2513
   10loPI   C2B  158  13.654   9.855   9.396 -0.1198 -0.0486 -0.0369
   10loPI   C3B  159  13.641   9.869   8.970 -0.0720  0.2768  0.0587
   10loPI   C4B  160  13.634   9.847   8.562 -0.0076  0.0072  0.0101
   11loPI    C1  161  13.809  14.625  10.986  0.0124  0.2213 -0.1398
   11loPI    C2  162  13.789  14.999  11.126  0.0236  0.0698  0.2836
   11loPI    C3  163  14.132  14.795  11.151 -0.0336 -0.0340  0.2274
   11loPI   PO4  164  13.739  14.672  10.722  0.0645 -0.2455 -0.0337
   11loPI   GL1  165  13.875  14.858  10.332  0.1992 -0.0619  0.0793
   11loPI   GL2  166  14.002  14.594  10.238 -0.0294  0.0793 -0.0165
   11loPI   C1A  167  13.866  14.978   9.927  0.0175 -0.0538 -0.0073
   11loPI   C2A  168  13.839  14.966   9.438 -0.1175 -0.0234  0.4821
   11loPI   C3A  169  13.791  15.023   8.982  0.3745 -0.1391 -0.1899
   11loPI   C4A  170  13.817  15.032   8.600  0.1093 -0.1937  0.0324
   11loPI   C5A  171  13.810  15.007   8.139  0.1674  0.1603 -0.0002
   11loPI   C6A  172  13.577  15.341   7.856  0.2504  0.0619 -0.0131
   11loPI   C1B  173  13.879  14.508   9.759 -0.0143 -0.4722  0.1620
   11loPI   C2B  174  13.850  14.471   9.243  0.3906  0.0842 -0.1765
   11loPI   C3B  175  13.838  14.469   8.740 -0.1988 -0.0186 -0.1767
   11loPI   C4B  176  13.876  14.444   8.297  0.0218  0.2512 -0.0704
   12loPI    C1  177   7.437  12.806  10.843 -0.3763  0.0475 -0.0334
   12loPI    C2  178   7.609  12.478  10.694 -0.2528  0.0160  0.1745
   12loPI    C3  179   7.291  12.445  10.934 -0.1513  0.0396  0.3130
   12loPI   PO4  180   7.324  12.979  10.642  0.2265 -0.0179  0.1238
   12loPI   GL1  181   7.165  12.979  10.298 -0.1244  0.4075  0.0227
   12loPI   GL2  182   6.839  13.049  10.177 -0.1047 -0.3684  0.0443
   12loPI   C1A  183   7.247  12.861   9.848 -0.1864 -0.1145  0.3092
   12loPI   C2A  184   7.161  12.828   9.383  0.1590  0.1679  0.2370
   12loPI   C3A  185   7.276  12.820   8.955 -0.2955 -0.0837 -0.0869
   12loPI   C4A  186   7.145  12.855   8.493  0.2261 -0.0763 -0.1633
   12loPI   C5A  187   7.039  13.151   8.186 -0.1115 -0.1200  0.1319
   12loPI   C6A  188   7.075  13.534   8.069  0.1423 -0.1044  0.1108
   12loPI   C1B  189   6.763  13.071   9.725 -0.2426 -0.0806  0.1038
   12loPI   C2B  190   6.768  13.117   9.265  0.1581  0.1397 -0.0852
   12loPI   C3B  191   6.850  13.108   8.846  0.3405  0.1064  0.5159
   12loPI   C4B  192   6.650  13.108   8.410 -0.1028  0.2155 -0.4661
   13loPI    C1  193   7.632  10.769  10.636 -0.2108  0.1275  0.2543
   13loPI    C2  194   7.682  10.522  10.947 -0.1664  0.1521  0.2668
   13loPI    C3  195   7.389  10.455  10.682 -0.1578  0.0891  0.2731
   13loPI   PO4  196   7.862  10.813  10.515  0.1752  0.1632 -0.0496
   13loPI   GL1  197   7.937  10.785  10.147 -0.1020 -0.4159  0.0924
   13loPI   GL2  198   7.685  10.941  10.089 -0.0500 -0.1904 -0.2030
   13loPI   C1A  199   8.272  10.723   9.837  0.0946 -0.1876 -0.1361
   13loPI   C2A  200   8.465  10.773   9.425  0.2391  0.0719  0.2640
   13loPI   C3A  201   8.537  10.792   8.991  0.0473 -0.1323 -0.1121
   13loPI   C4A  202   8.649  10.874   8.468  0.2204  0.2824 -0.0928
   13loPI   C5A  203   8.824  10.850   8.084  0.2584 -0.1051 -0.2116
   13loPI   C6A  204   8.542  11.052   7.756  0.0935  0.2102 -0.2874
   13loPI   C1B  205   7.634  10.843   9.710  0.0703  0.1301 -0.2058
   13loPI   C2B  206   7.583  10.841   9.351 -0.2669 -0.2469 -0.0287
   13loPI   C3B  207   7.513  10.814   8.883  0.0042 -0.0328  0.3123
   13loPI   C4B  208   7.492  10.708   8.506  0.1035  0.2615 -0.0505
   14loPI    C1  209  13.290   6.465  10.693  0.3685  0.1792 -0.3230
   14loPI    C2  210  13.593   6.602  10.916  0.1920  0.1337 -0.0510
   14loPI    C3  211  13.224   6.584  11.070  0.1192 -0.1679 -0.2526
   14loPI   PO4  212  13.381   6.528  10.415 -0.0706  0.1907  0.1827
   14loPI   GL1  213  13.422   6.835  10.158  0.1278 -0.0768 -0.0040
   14loPI   GL2  214  13.572   7.071  10.096 -0.2258  0.1264  0.2129
   14loPI   C1A  215  13.405   6.702   9.729  0.2322  0.0535 -0.0502
   14loPI   C2A  216  13.412   6.707   9.293  0.2753  0.0445 -0.1076
   14loPI   C3A  217  13.357   6.693   8.919  0.2509  0.1609  0.2435
   14loPI   C4A  218  13.537   6.791   8.513 -0.1516 -0.0760 -0.3487
   14loPI   C5A  219  13.613   6.893   8.058 -0.1091  0.1466  0.0460
   14loPI   C6A  220  13.874   7.120   7.729 -0.1124  0.0005 -0.1496
   14loPI   C1B  221  13.748   7.168   9.727  0.1055 -0.0958  0.0366
   14loPI   C2B  222  13.683   7.198   9.337  0.1728  0.0739  0.1245
   14loPI   C3B  223  13.582   7.208   8.933 -0.1801  0.2055  0.0542
   14loPI   C4B  224  13.750   7.292   8.593  0.4503 -0.0633 -0.1430
   15loPI    C1  225  10.595  17.747  10.958  0.1124  0.0741  0.2561
   15loPI    C2  226  10.327  17.620  11.227  0.1031  0.0600  0.2400
   15loPI    C3  227  10.326  18.003  11.109  0.0238  0.0364  0.1629
   15loPI   PO4  228  10.586  17.508  10.671 -0.0781 -0.0332 -0.1390
   15loPI   GL1  229  10.654  17.371  10.237 -0.0857  0.2409  0.0636
   15loPI   GL2  230  10.366  17.592  10.267  0.2037  0.2840  0.1251
   15loPI   C1A  231  10.768  17.225   9.894  0.3562 -0.3850 -0.1111
   15loPI   C2A  232  10.775  17.301   9.589 -0.1010 -0.5872 -0.1364
   15loPI   C3A  233  10.821  17.305   9.124  0.2247 -0.2710 -0.0487
   15loPI   C4A  234  10.779  17.331   8.722  0.0726 -0.1772 -0.0178
   15loPI   C5A  235  10.757  17.331   8.213 -0.0765  0.2361 -0.0569
   15loPI   C6A  236  11.005  17.255   7.866 -0.0129  0.0055  0.1491
   15loPI   C1B  237  10.291  17.558   9.797 -0.0646  0.3899  0.1336
   15loPI   C2B  238  10.329  17.507   9.357 -0.1349  0.0758 -0.2374
   15loPI   C3B  239  10.308  17.592   8.901  0.0333 -0.1986 -0.1184
   15loPI   C4B  240  10.325  17.480   8.496  0.0896  0.3537  0.0810
   16loPI    C1  241   6.197  12.322  10.717 -0.0490 -0.0668 -0.3095
   16loPI    C2  242   6.134  12.419  11.100  0.0578 -0.1775 -0.2629
   16loPI    C3  243   6.036  12.676  10.809 -0.0558 -0.1072 -0.1637
   16loPI   PO4  244   6.198  12.107  10.706  0.0354 -0.0436  0.1772
   16loPI   GL1  245   6.264  12.045  10.301 -0.3104  0.1288 -0.2060
   16loPI   GL2  246   5.908  12.000  10.273  0.0718  0.0533 -0.0068
   16loPI   C1A  247   6.344  12.275   9.906 -0.0338 -0.2608  0.0615
   16loPI   C2A  248   6.461  12.222   9.544 -0.0237 -0.0975  0.0621
   16loPI   C3A  249   6.415  12.185   9.121 -0.2025 -0.1698  0.2449
   16loPI   C4A  250   6.406  12.321   8.666 -0.0530  0.4168 -0.0859
   16loPI   C5A  251   6.283  12.261   8.233  0.2346 -0.1989 -0.0416
   16loPI   C6A  252   5.834  12.216   7.948  0.3872 -0.0102  0.0537
   16loPI   C1B  253   6.072  11.850   9.856  0.0396 -0.0508 -0.2338
   16loPI   C2B  254   6.096  11.896   9.391  0.2282 -0.1791 -0.2490
   16loPI   C3B  255   6.022  11.868   8.901  0.0732  0.2610 -0.0963
   16loPI   C4B  256   6.025  11.892   8.490 -0.0325 -0.2664  0.2772
   17loPI    C1  257   2.357  18.217  10.435 -0.0660  0.2291  0.1406
   17loPI    C2  258   2.479  18.121  10.804  0.0067  0.0455  0.0699
   17loPI    C3  259   2.099  18.058  10.696  0.0715 -0.2383  0.0004
   17loPI   PO4  260   2.530  18.108  10.228 -0.2495 -0.0782  0.0178
   17loPI   GL1  261   2.653  17.954   9.876  0.2688 -0.1658 -0.0113
   17loPI   GL2  262   2.579  17.796   9.636 -0.0790  0.0353 -0.1784
   17loPI   C1A  263   2.963  18.078   9.609 -0.0056  0.0529 -0.1596
   17loPI   C2A  264   3.001  18.136   9.117  0.0130  0.0136 -0.2930
   17loPI   C3A  265   2.992  18.147   8.686 -0.2002 -0.1948  0.1932
   17loPI   C4A  266   2.921  18.110   8.203  0.0921 -0.0381  0.0170
   17loPI   C5A  267   2.740  18.054   7.766 -0.0710  0.4315 -0.1456
   17loPI   C6A  268   2.328  18.126   7.577 -0.4348  0.1777 -0.0020
   17loPI   C1B  269   2.569  17.888   9.230 -0.0497 -0.0195 -0.1356
   17loPI   C2B  270   2.553  17.766   8.800 -0.0595  0.1102 -0.0920
   17loPI   C3B  271   2.547  17.780   8.376 -0.1635 -0.0927 -0.0737
   17loPI   C4B  272   2.384  17.651   7.922  0.2614 -0.0251 -0.2462
   18loPI    C1  273  13.653   9.088  10.956 -0.0699  0.2175 -0.0475
   18loPI    C2  274  13.463   9.169  11.299  0.0007  0.2642 -0.0193
   18loPI    C3  275  13.863   9.180  11.284 -0.0103  0.5560 -0.1764
   18loPI   PO4  276  13.489   9.233  10.736  0.3907 -0.2179 -0.0375
   18loPI   GL1  277  13.586   9.375  10.303  0.1393 -0.0996 -0.0000
   18loPI   GL2  278  13.387   9.558  10.160  0.3420 -0.1272  0.2735
   18loPI   C1A  279  13.720   9.021   9.984 -0.4193  0.2956  0.0904
   18loPI   C2A  280  13.611   8.958   9.571 -0.2449 -0.1015 -0.0734
   18loPI   C3A  281  13.653   8.967   9.107 -0.1457  0.1509  0.1393
   18loPI   C4A  282  13.775   9.021   8.631  0.2907 -0.2916  0.0222
   18loPI   C5A  283  13.839   9.234   8.292  0.0496 -0.1952  0.1098
   18loPI   C6A  284  13.757   9.599   7.973 -0.0832  0.0287 -0.1616
   18loPI   C1B  285  13.368   9.498   9.693  0.0495  0.0345  0.0748
   18loPI   C2B  286  13.458   9.402   9.234  0.3396 -0.3775 -0.0076
   18loPI   C3B  287  13.487   9.371   8.819  0.3636 -0.2532  0.2152
   18loPI   C4B  288  13.298   9.350   8.375  0.2866  0.0357 -0.2775
   19loPI    C1  289  13.814   4.543  10.392 -0.1021  0.1376 -0.0717
   19loPI    C2  290  13.916   4.575  10.777  0.0698  0.3330 -0.1316
   19loPI    C3  291  13.552   4.687  10.657 -0.0421  0.1168 -0.0008
   19loPI   PO4  292  13.919   4.583  10.252  0.0058  0.1199 -0.2554
   19loPI   GL1  293  14.125   4.602   9.813  0.2685 -0.2128 -0.1262
   19loPI   GL2  294  13.932   4.936   9.848 -0.0724 -0.0413  0.0420
   19loPI   C1A  295  14.039   4.541   9.428 -0.0250 -0.1774  0.1055
   19loPI   C2A  296  13.911   4.609   8.998  0.2359  0.4436 -0.0175
   19loPI   C3A  297  13.892   4.882   8.734 -0.1616 -0.0211 -0.0423
   19loPI   C4A  298  13.979   5.041   8.287  0.1587 -0.2199  0.1502
   19loPI   C5A  299  13.772   5.350   7.935  0.0873  0.2565 -0.2370
   19loPI   C6A  300  13.431   5.557   7.691 -0.1501  0.1118 -0.0781
   19loPI   C1B  301  13.881   4.983   9.342  0.0912 -0.1988  0.0251
   19loPI   C2B  302  13.652   5.155   9.040 -0.2190 -0.0315  0.0302
   19loPI   C3B  303  13.615   5.391   8.807  0.1403 -0.0013 -0.0751
   19loPI   C4B  304  13.589   5.457   8.430 -0.0646  0.1726  0.2038
   20loPI    C1  305  10.584   3.512  10.449  0.0673  0.1113 -0.0732
   20loPI    C2  306  10.281   3.278  10.333 -0.0581  0.2361 -0.0001
   20loPI    C3  307  10.330   3.365  10.720  0.0467  0.2498 -0.0163
   20loPI   PO4  308  10.556   3.643  10.161 -0.0129  0.0090  0.0642
   20loPI   GL1  309  10.494   3.340   9.879  0.6598  0.1086  0.1846
   20loPI   GL2  310  10.186   3.239   9.745 -0.0772  0.1875  0.1021
   20loPI   C1A  311  10.575   3.436   9.494  0.2124 -0.4143 -0.0378
   20loPI   C2A  312  10.671   3.460   9.073  0.2903 -0.0890 -0.0433
   20loPI   C3A  313  10.568   3.506   8.633 -0.0152  0.0247 -0.1859
   20loPI   C4A  314  10.462   3.511   8.193 -0.0035 -0.0894  0.1492
   20loPI   C5A  315  10.397   3.272   7.807  0.0809 -0.1708 -0.0910
   20loPI   C6A  316  10.012   3.135   7.659 -0.3323  0.2339 -0.1113
   20loPI   C1B  317  10.088   3.441   9.325 -0.1042 -0.1246  0.0312
   20loPI   C2B  318  10.137   3.603   9.010 -0.0382  0.5158  0.1923
   20loPI   C3B  319  10.078   3.589   8.547  0.1647 -0.0556 -0.3816
   20loPI   C4B  320   9.970   3.510   8.100 -0.0968 -0.2218 -0.1410
   21loPI    C1  321  13.095  18.035  10.869  0.2261  0.0610 -0.0642
   21loPI    C2  322  13.218  17.993  11.248  0.1088  0.3916  0.0138
   21loPI    C3  323  12.912  18.236  11.162 -0.1210  0.0212 -0.2487
   21loPI   PO4  324  13.275  18.141  10.714 -0.0544  0.2387 -0.0640
   21loPI   GL1  325  13.267  18.226  10.269 -0.0182 -0.0454 -0.4180
   21loPI   GL2  326  13.044  18.373  10.329  0.1990  0.1556 -0.0874
   21loPI   C1A  327  13.420  18.136   9.790  0.1097  0.0547 -0.1564
   21loPI   C2A  328  13.386  18.068   9.330  0.2655 -0.0715  0.2406
   21loPI   C3A  329  13.524  18.009   8.953 -0.1071  0.0698  0.0461
   21loPI   C4A  330  13.579  18.123   8.522 -0.2316  0.0236 -0.0298
   21loPI   C5A  331  13.433  18.172   8.168  0.0769 -0.1749 -0.3078
   21loPI   C6A  332  13.776  18.060   7.865  0.0775 -0.0186  0.2420
   21loPI   C1B  333  12.944  18.339   9.854 -0.0972 -0.0453  0.0802
   21loPI   C2B  334  12.883  18.364   9.418  0.2799  0.0980  0.0209
   21loPI   C3B  335  13.025  18.363   8.975 -0.3475 -0.1289 -0.0573
   21loPI   C4B  336  13.022  18.239   8.587  0.1178  0.1364 -0.3080
   22loPI    C1  337   1.375   5.736  10.617  0.1489  0.0063  0.0059
   22loPI    C2  338   1.727   5.680  10.798  0.0976  0.0876  0.1318
   22loPI    C3  339   1.395   5.515  10.950  0.1039 -0.1186 -0.0735
   22loPI   PO4  340   1.388   5.697  10.330  0.1064 -0.3881 -0.0235
   22loPI   GL1  341   1.214   5.762   9.939 -0.1261  0.0457  0.1444
   22loPI   GL2  342   1.553   5.694   9.862 -0.2925  0.0698 -0.0053
   22loPI   C1A  343   1.110   6.109   9.646  0.6131  0.0438 -0.1757
   22loPI   C2A  344   1.081   6.228   9.313 -0.3268 -0.1249 -0.2886
   22loPI   C3A  345   1.005   6.111   8.860  0.4854  0.3299 -0.0049
   22loPI   C4A  346   1.071   6.258   8.459 -0.3010  0.1076 -0.1911
   22loPI   C5A  347   0.956   6.434   8.067  0.0453 -0.1400  0.0263
   22loPI   C6A  348   1.043   6.212   7.604  0.0345 -0.0212  0.2219
   22loPI   C1B  349   1.379   5.688   9.448  0.1862 -0.0457 -0.0191
   22loPI   C2B  350   1.257   5.739   8.996 -0.2303 -0.1628 -0.1035
   22loPI   C3B  351   1.309   5.774   8.531  0.2040  0.1441  0.0845
   22loPI   C4B  352   1.183   5.966   8.049 -0.0681  0.0100 -0.2439
   23loPI    C1  353   5.034  15.889  10.200 -0.0849 -0.1667  0.0332
   23loPI    C2  354   5.170  15.939  10.573 -0.0909  0.0211  0.0112
   23loPI    C3  355   4.912  16.203  10.417 -0.0352 -0.0189 -0.1502
   23loPI   PO4  356   5.131  15.602  10.197  0.0781 -0.0744 -0.1972
   23loPI   GL1  357   5.276  15.454   9.863  0.4081  0.1867 -0.1054
   23loPI   GL2  358   5.592  15.593   9.731  0.2550 -0.0775 -0.0445
   23loPI   C1A  359   5.084  15.320   9.564 -0.3574 -0.0518  0.2700
   23loPI   C2A  360   4.952  15.340   9.146 -0.2670  0.1147  0.1091
   23loPI   C3A  361   5.043  15.194   8.666 -0.2031  0.0778 -0.2726
   23loPI   C4A  362   4.974  15.267   8.268 -0.1116 -0.0126  0.4830
   23loPI   C5A  363   5.248  15.078   7.897  0.1412  0.0813 -0.0409
   23loPI   C6A  364   5.158  14.958   7.484  0.0650  0.2045  0.1063
   23loPI   C1B  365   5.507  15.679   9.288 -0.0654  0.1030  0.2356
   23loPI   C2B  366   5.366  15.544   8.866  0.2824  0.0196 -0.0227
   23loPI   C3B  367   5.445  15.540   8.501  0.0754 -0.1446 -0.4309
   23loPI   C4B  368   5.864  15.270   8.233 -0.2097 -0.1566 -0.0946
   24loPI    C1  369   7.924   5.808  10.966 -0.0631  0.2002  0.1797
   24loPI    C2  370   8.232   5.655  11.171 -0.1321 -0.1914  0.0006
   24loPI    C3  371   7.909   5.789  11.365  0.0623  0.0294  0.1775
   24loPI   PO4  372   7.855   5.637  10.657 -0.5606 -0.2398 -0.3535
   24loPI   GL1  373   7.912   5.720  10.214  0.1629 -0.0994  0.2025
   24loPI   GL2  374   7.866   6.118  10.172  0.0404  0.0244  0.1174
   24loPI   C1A  375   7.728   5.772   9.770 -0.1159  0.0666  0.0095
   24loPI   C2A  376   7.793   5.829   9.420 -0.0139 -0.0533 -0.1058
   24loPI   C3A  377   7.774   5.696   8.979 -0.3975  0.1620  0.2397
   24loPI   C4A  378   7.624   5.754   8.536  0.2632 -0.0930 -0.1630
   24loPI   C5A  379   7.564   5.745   8.125 -0.1939 -0.2281  0.1818
   24loPI   C6A  380   7.975   5.632   7.837  0.1434 -0.0537 -0.1267
   24loPI   C1B  381   7.954   6.276   9.839 -0.1894  0.3390  0.1173
   24loPI   C2B  382   7.987   6.317   9.395 -0.0860 -0.1258 -0.2494
   24loPI   C3B  383   8.000   6.265   9.035  0.1753 -0.0090  0.0942
   24loPI   C4B  384   7.920   6.207   8.489 -0.2480 -0.3348 -0.1169
   25loPI    C1  385   0.749   2.203  10.149 -0.1951  0.0761  0.0018
   25loPI    C2  386   0.524   2.338  10.451 -0.1889  0.1077 -0.0078
   25loPI    C3  387   0.834   2.554  10.321 -0.0375 -0.0241  0.1314
   25loPI   PO4  388   0.601   2.134  10.032 -0.2170 -0.0124 -0.0322
   25loPI   GL1  389   0.268   2.200   9.752  0.0082 -0.2633  0.2630
   25loPI   GL2  390   0.261   1.879   9.778 -0.0389  0.1751  0.0775
   25loPI   C1A  391   0.309   2.283   9.284 -0.1250 -0.0408 -0.3873
   25loPI   C2A  392   0.379   2.322   8.894 -0.0947 -0.0438  0.1305
   25loPI   C3A  393   0.266   2.295   8.437 -0.1982 -0.0109 -0.3780
   25loPI   C4A  394   0.319   2.276   8.015 -0.3208  0.1115  0.2720
   25loPI   C5A  395   0.238   2.008   7.561 -0.1761  0.0228  0.0458
   25loPI   C6A  396  -0.124   1.904   7.322  0.3973  0.2713  0.0179
   25loPI   C1B  397   0.372   1.799   9.339 -0.2443 -0.0271  0.3894
   25loPI   C2B  398   0.383   1.859   8.915  0.2313  0.1130 -0.0481
   25loPI   C3B  399   0.482   1.790   8.488  0.0978  0.1998  0.0212
   25loPI   C4B  400   0.493   1.396   8.213 -0.0638 -0.1082 -0.1002
   26loPI    C1  401   0.196   5.602  10.623  0.0430  0.0189 -0.0444
   26loPI    C2  402   0.500   5.422  10.810 -0.0547  0.0296  0.1259
   26loPI    C3  403   0.160   5.498  11.007 -0.1138  0.1528 -0.0219
   26loPI   PO4  404   0.338   5.553  10.356  0.0427 -0.0310  0.1093
   26loPI   GL1  405   0.183   5.584   9.866  0.0716 -0.1097 -0.2580
   26loPI   GL2  406   0.101   5.234   9.792 -0.0654 -0.0355  0.1645
   26loPI   C1A  407   0.312   5.724   9.381  0.2682 -0.0707 -0.2529
   26loPI   C2A  408   0.234   5.817   8.921  0.0856  0.0174  0.2066
   26loPI   C3A  409   0.291   5.791   8.580  0.3290 -0.2768  0.1791
   26loPI   C4A  410   0.217   5.892   8.181 -0.0640  0.1168  0.2000
   26loPI   C5A  411   0.014   5.797   7.850 -0.3808  0.0582  0.3733
   26loPI   C6A  412  -0.099   5.749   7.378  0.1499 -0.0145 -0.0765
   26loPI   C1B  413  -0.024   5.316   9.379 -0.1342 -0.0323 -0.1039
   26loPI   C2B  414   0.009   5.386   8.905 -0.0096 -0.1945  0.0104
   26loPI   C3B  415  -0.009   5.401   8.376 -0.2692 -0.1714 -0.1663
   26loPI   C4B  416   0.028   5.265   7.856 -0.2713 -0.2153 -0.0707
   27loPI    C1  417  10.540   6.761  10.915  0.1117 -0.0115  0.2224
   27loPI    C2  418  10.181   6.588  10.944  0.1533 -0.1490 -0.0469
   27loPI    C3  419  10.277   6.891  11.186 -0.1250 -0.1429  0.0596
   27loPI   PO4  420  10.655   6.851  10.656 -0.1278 -0.4486 -0.1525
   27loPI   GL1  421  10.546   6.948  10.269  0.1016 -0.4035 -0.1176
   27loPI   GL2  422  10.730   7.098  10.112  0.0433 -0.4791 -0.0669
   27loPI   C1A  423  10.339   6.818   9.873  0.1314 -0.2970 -0.1308
   27loPI   C2A  424  10.337   6.688   9.449  0.1419  0.0863 -0.0823
   27loPI   C3A  425  10.339   6.764   9.016  0.1251  0.1553  0.1575
   27loPI   C4A  426  10.317   6.758   8.543  0.1528 -0.1214 -0.4464
   27loPI   C5A  427  10.411   6.907   8.082  0.1066  0.0011  0.0884
   27loPI   C6A  428  10.479   6.967   7.637  0.3950 -0.1128  0.4101
   27loPI   C1B  429  10.547   7.253   9.762  0.1615  0.0550 -0.0090
   27loPI   C2B  430  10.557   7.205   9.351  0.0766 -0.0707  0.2216
   27loPI   C3B  431  10.537   7.258   8.860  0.0781  0.1233  0.2676
   27loPI   C4B  432  10.522   7.225   8.444  0.0241  0.0955  0.2189
   28loPI    C1  433   3.945  12.260  10.958 -0.1609 -0.0314  0.1885
   28loPI    C2  434   4.243  12.140  11.197 -0.1725 -0.1156  0.1612
   28loPI    C3  435   4.130  12.524  11.193  0.2406  0.0105 -0.1619
   28loPI   PO4  436   4.002  12.158  10.709 -0.2373  0.3300  0.3387
   28loPI   GL1  437   4.201  12.262  10.271 -0.0529  0.0913 -0.0746
   28loPI   GL2  438   3.846  12.126  10.157  0.1369 -0.1889 -0.0212
   28loPI   C1A  439   4.274  12.270   9.820 -0.0320 -0.1697 -0.0211
   28loPI   C2A  440   4.223  12.167   9.354  0.1183 -0.0170 -0.2421
   28loPI   C3A  441   4.138  12.245   8.828  0.0357  0.0699 -0.2044
   28loPI   C4A  442   3.965  12.198   8.411 -0.0497 -0.0058  0.0131
   28loPI   C5A  443   3.776  12.065   8.046 -0.0784  0.3238  0.0558
   28loPI   C6A  444   3.792  11.671   7.777  0.0074  0.0582 -0.0675
   28loPI   C1B  445   3.822  11.987   9.738  0.2597 -0.1558 -0.1427
   28loPI   C2B  446   3.745  11.930   9.356 -0.4230  0.0111 -0.1875
   28loPI   C3B  447   3.744  11.894   8.883 -0.1579 -0.2919 -0.0821
   28loPI   C4B  448   3.681  11.791   8.446  0.0583 -0.0984  0.1570
   29loPI    C1  449   7.181  14.881  11.098  0.0928 -0.1224 -0.0084
   29loPI    C2  450   7.184  15.132  11.410  0.0750 -0.0250 -0.0861
   29loPI    C3  451   6.869  14.894  11.348 -0.0982  0.2425 -0.2556
   29loPI   PO4  452   7.306  15.050  10.876  0.1096 -0.1391  0.1345
   29loPI   GL1  453   7.333  15.295  10.563  0.1866  0.0133  0.0719
   29loPI   GL2  454   7.192  14.979  10.352 -0.2792  0.2056  0.0740
   29loPI   C1A  455   7.381  15.322  10.071 -0.0665  0.2690 -0.0273
   29loPI   C2A  456   7.461  15.250   9.628 -0.0741  0.2172  0.2756
   29loPI   C3A  457   7.351  15.308   9.241  0.2479  0.0022  0.1415
   29loPI   C4A  458   7.360  15.284   8.872  0.3785 -0.2021 -0.0491
   29loPI   C5A  459   7.343  15.273   8.378  0.0230  0.1390  0.1892
   29loPI   C6A  460   7.070  15.418   7.980 -0.2251 -0.2046  0.0214
   29loPI   C1B  461   7.438  14.839   9.999  0.0423 -0.3742 -0.0947
   29loPI   C2B  462   7.564  14.748   9.498 -0.0415  0.2360 -0.0116
   29loPI   C3B  463   7.445  14.797   9.063  0.1034  0.0954 -0.2246
   29loPI   C4B  464   7.453  14.703   8.612  0.0568 -0.0237  0.1217
   30loPI    C1  465   8.564  14.861  11.002 -0.0202  0.1072  0.0489
   30loPI    C2  466   8.571  14.552  11.256 -0.1113  0.0531 -0.0143
   30loPI    C3  467   8.540  14.926  11.397  0.0282  0.0359  0.0637
   30loPI   PO4  468   8.424  14.784  10.796 -0.0306  0.2506 -0.0113
   30loPI   GL1  469   8.131  14.783  10.565  0.1811  0.0313  0.1214
   30loPI   GL2  470   8.188  14.408  10.534  0.2196  0.1420  0.0678
   30loPI   C1A  471   8.373  14.867  10.170  0.2534 -0.2390  0.2140
   30loPI   C2A  472   8.318  14.878   9.734 -0.2428  0.1825  0.3213
   30loPI   C3A  473   8.335  14.798   9.294  0.2364  0.1975 -0.0907
   30loPI   C4A  474   8.329  14.878   8.892 -0.1078 -0.0238  0.0902
   30loPI   C5A  475   8.379  14.881   8.304 -0.1516 -0.2005 -0.2554
   30loPI   C6A  476   8.525  14.859   7.883  0.1135  0.2730  0.0687
   30loPI   C1B  477   8.056  14.167  10.249  0.0222  0.1638 -0.3239
   30loPI   C2B  478   8.030  14.077   9.790  0.3328 -0.1516 -0.0281
   30loPI   C3B  479   7.991  14.027   9.368 -0.2981 -0.0438 -0.0282
   30loPI   C4B  480   8.020  14.068   8.918  0.2654  0.3429  0.1659
   31loPI    C1  481  15.694   0.577  11.009 -0.0209 -0.1590  0.1049
   31loPI    C2  482  15.907   0.916  11.027  0.1943 -0.2872  0.0142
   31loPI    C3  483  15.766   0.749  11.363 -0.1528  0.0388  0.0376
   31loPI   PO4  484  15.620   0.592  10.772  0.2706  0.0597 -0.0470
   31loPI   GL1  485  15.556   0.511  10.344  0.1676  0.0779 -0.0103
   31loPI   GL2  486  15.860   0.356  10.131 -0.2138  0.1444  0.1743
   31loPI   C1A  487  15.457   0.523   9.972  0.2418 -0.3268  0.2449
   31loPI   C2A  488  15.322   0.442   9.591  0.1100  0.1233  0.0227
   31loPI   C3A  489  15.209   0.471   9.052 -0.2868  0.0698 -0.3722
   31loPI   C4A  490  15.226   0.541   8.599  0.0200 -0.0789  0.0995
   31loPI   C5A  491  15.040   0.419   8.181  0.2711 -0.1369 -0.3154
   31loPI   C6A  492  15.336   0.643   7.906 -0.1579 -0.2908 -0.1545
   31loPI   C1B  493  15.798   0.292   9.740 -0.1773  0.2476 -0.3163
   31loPI   C2B  494  15.746   0.183   9.310 -0.0404  0.0913  0.0746
   31loPI   C3B  495  15.664   0.225   8.912  0.2176 -0.1621 -0.2388
   31loPI   C4B  496  15.681   0.334   8.454  0.0875 -0.0128  0.3900
   32loPI    C1  497  13.101   3.501  10.377  0.1357 -0.0794  0.1405
   32loPI    C2  498  12.810   3.270  10.230  0.1216 -0.2041  0.3593
   32loPI    C3  499  12.733   3.650  10.327  0.1752 -0.0650 -0.1179
   32loPI   PO4  500  13.305   3.529  10.197 -0.1582 -0.0421  0.0659
   32loPI   GL1  501  13.301   3.371   9.778 -0.1904 -0.2254 -0.2920
   32loPI   GL2  502  13.105   3.146   9.861  0.1566  0.2856  0.2957
   32loPI   C1A  503  13.301   3.326   9.289 -0.1690  0.0712 -0.3820
   32loPI   C2A  504  13.491   3.235   8.863  0.3692 -0.2088  0.0433
   32loPI   C3A  505  13.627   3.324   8.331  0.0594  0.0606 -0.1067
   32loPI   C4A  506  13.789   3.499   8.002  0.1490  0.0471 -0.1282
   32loPI   C5A  507  13.699   3.784   7.758  0.0322  0.0846  0.0724
   32loPI   C6A  508  13.448   4.046   7.567  0.2222  0.0358  0.0787
   32loPI   C1B  509  12.955   2.887   9.429  0.1949 -0.1959 -0.0020
   32loPI   C2B  510  12.949   2.875   9.007 -0.1841 -0.1895 -0.5462
   32loPI   C3B  511  13.158   2.873   8.686 -0.1226  0.0608 -0.4366
   32loPI   C4B  512  13.176   2.839   8.339  0.0075 -0.0819  0.2471
   33loPI    C1  513  12.171   3.959  10.332  0.0921 -0.2558 -0.1876
   33loPI    C2  514  12.293   3.673  10.583  0.0077 -0.1376 -0.0092
   33loPI    C3  515  11.917   3.673  10.448 -0.0123 -0.0717  0.0465
   33loPI   PO4  516  12.322   3.884  10.065  0.1220 -0.1837 -0.1501
   33loPI   GL1  517  12.081   3.722   9.701  0.0043  0.0821 -0.2487
   33loPI   GL2  518  12.273   3.786   9.595  0.2183  0.1426 -0.1656
   33loPI   C1A  519  11.860   3.984   9.389 -0.1079 -0.1523  0.0017
   33loPI   C2A  520  11.858   3.979   8.969 -0.2651  0.2959  0.2371
   33loPI   C3A  521  11.855   3.906   8.581  0.0618 -0.0561 -0.0521
   33loPI   C4A  522  11.750   3.858   8.174 -0.1002  0.0331 -0.0399
   33loPI   C5A  523  11.822   3.981   7.801 -0.2077  0.0618  0.1238
   33loPI   C6A  524  12.050   4.103   7.437 -0.2000 -0.0142  0.0684
   33loPI   C1B  525  12.255   3.792   9.192  0.0970 -0.3414  0.1564
   33loPI   C2B  526  12.279   3.806   8.766  0.1184  0.0527  0.0196
   33loPI   C3B  527  12.317   3.955   8.389  0.0758  0.1194 -0.0305
   33loPI   C4B  528  12.341   3.841   8.017 -0.0998  0.1837 -0.0647
   34loPI    C1  529  10.177   6.001  10.509  0.1024  0.0619 -0.0216
   34loPI    C2  530  10.329   5.669  10.672  0.1617  0.0595 -0.0815
   34loPI    C3  531   9.935   5.736  10.685  0.1561  0.0144 -0.0190
   34loPI   PO4  532  10.379   6.022  10.345 -0.2228 -0.0736  0.2128
   34loPI   GL1  533  10.651   5.862  10.109 -0.0262 -0.1767 -0.0145
   34loPI   GL2  534  10.444   5.548  10.113 -0.0267 -0.1966 -0.0956
   34loPI   C1A  535  10.856   5.877   9.617  0.1015 -0.0806 -0.1898
   34loPI   C2A  536  10.939   5.828   9.223  0.0221 -0.0007  0.0603
   34loPI   C3A  537  10.829   5.862   8.907 -0.0169 -0.3351 -0.0801
   34loPI   C4A  538  10.734   5.877   8.507  0.0786  0.0713  0.0998
   34loPI   C5A  539  10.665   5.940   8.099  0.0071  0.0182  0.1920
   34loPI   C6A  540  10.742   5.771   7.688  0.0556  0.2072 -0.0058
   34loPI   C1B  541  10.409   5.764   9.724 -0.2432  0.2348  0.1016
   34loPI   C2B  542  10.474   5.802   9.285  0.0669 -0.0711  0.0418
   34loPI   C3B  543  10.317   5.805   8.904  0.0125 -0.0691  0.2721
   34loPI   C4B  544  10.254   5.836   8.498 -0.2743 -0.2850 -0.1020
   35loPI    C1  545   9.042  14.975  11.264 -0.2365 -0.0203 -0.3065
   35loPI    C2  546   8.842  15.319  11.221 -0.1452  0.0735 -0.0097
   35loPI    C3  547   8.938  15.188  11.587 -0.0056 -0.1689 -0.1305
   35loPI   PO4  548   9.040  14.936  10.926  0.1859 -0.1467  0.0858
   35loPI   GL1  549   9.110  15.118  10.368 -0.0865  0.1338  0.1318
   35loPI   GL2  550   9.277  14.925  10.199  0.2003 -0.0723  0.1934
   35loPI   C1A  551   8.875  15.194  10.061 -0.0860 -0.0717  0.0315
   35loPI   C2A  552   8.862  15.275   9.594 -0.0672 -0.0897 -0.1234
   35loPI   C3A  553   8.723  15.207   9.111  0.0196  0.2127  0.3009
   35loPI   C4A  554   8.787  15.158   8.593 -0.1298 -0.3803 -0.2169
   35loPI   C5A  555   8.908  14.956   8.147 -0.1266 -0.2219  0.4137
   35loPI   C6A  556   9.236  14.879   7.724  0.1070 -0.0557 -0.0282
   35loPI   C1B  557   9.253  15.019   9.727 -0.1646 -0.1239  0.1013
   35loPI   C2B  558   9.276  15.040   9.244  0.3266 -0.3159 -0.1127
   35loPI   C3B  559   9.206  15.006   8.774 -0.1743 -0.2263  0.1480
   35loPI   C4B  560   9.317  14.871   8.309 -0.2328  0.2073 -0.1621
   36loPI    C1  561  10.628   1.103  10.358  0.0646  0.1674 -0.0717
   36loPI    C2  562  10.449   1.030  10.708  0.1740 -0.2053 -0.0894
   36loPI    C3  563  10.726   1.317  10.682 -0.0693  0.0475  0.0495
   36loPI   PO4  564  10.597   0.962  10.211 -0.0349  0.0224  0.1632
   36loPI   GL1  565  10.829   0.778   9.872 -0.0177 -0.1689  0.1023
   36loPI   GL2  566  11.016   1.013   9.828  0.1174  0.1131 -0.0140
   36loPI   C1A  567  10.619   0.531   9.466  0.0238  0.0099  0.0562
   36loPI   C2A  568  10.606   0.628   8.969 -0.3196 -0.0839  0.0186
   36loPI   C3A  569  10.732   0.470   8.540  0.0134  0.2086 -0.1430
   36loPI   C4A  570  10.789   0.345   8.124 -0.1267  0.0293 -0.0963
   36loPI   C5A  571  10.450   0.301   7.774  0.1319 -0.1033 -0.0668
   36loPI   C6A  572  10.438   0.450   7.406  0.2394 -0.1147 -0.1032
   36loPI   C1B  573  10.985   0.924   9.311 -0.2158 -0.1473  0.0284
   36loPI   C2B  574  11.161   0.782   8.981 -0.0090  0.3018  0.2263
   36loPI   C3B  575  11.119   0.754   8.604 -0.0188  0.6016 -0.1515
   36loPI   C4B  576  11.229   0.757   8.152  0.2415 -0.0180  0.1040
   37loPI    C1  577   3.554  16.350  10.879  0.2053  0.2273 -0.1464
   37loPI    C2  578   3.893  16.186  11.015 -0.1490 -0.1515  0.3206
   37loPI    C3  579   3.750  16.519  11.184  0.1151  0.1597 -0.0501
   37loPI   PO4  580   3.649  16.314  10.633  0.5605 -0.2342  0.2401
   37loPI   GL1  581   3.471  16.334  10.198  0.0068  0.0840 -0.1772
   37loPI   GL2  582   3.609  16.065  10.055  0.1940  0.0287 -0.0447
   37loPI   C1A  583   3.607  16.427   9.775 -0.3663  0.1729  0.1385
   37loPI   C2A  584   3.538  16.450   9.403 -0.0565 -0.0745 -0.2121
   37loPI   C3A  585   3.549  16.327   8.924 -0.1392  0.0467  0.1426
   37loPI   C4A  586   3.585  16.403   8.509  0.1044 -0.2861 -0.1116
   37loPI   C5A  587   3.582  16.405   8.119 -0.0204 -0.2747  0.0246
   37loPI   C6A  588   3.628  16.121   7.676 -0.2925 -0.0209 -0.0825
   37loPI   C1B  589   3.647  15.884   9.650  0.1317  0.0455 -0.1199
   37loPI   C2B  590   3.646  15.947   9.244  0.1003  0.2024  0.0459
   37loPI   C3B  591   3.678  15.857   8.868 -0.1573  0.1322  0.0260
   37loPI   C4B  592   3.607  15.813   8.447 -0.1607  0.3808 -0.1400
   38loPI    C1  593   0.028  13.214  10.663  0.1205  0.1118 -0.1649
   38loPI    C2  594  -0.114  12.941  10.918 -0.1459  0.1972 -0.2183
   38loPI    C3  595   0.095  13.253  11.055 -0.0664  0.1066 -0.1314
   38loPI   PO4  596  -0.144  13.199  10.493  0.0264 -0.0164  0.0566
   38loPI   GL1  597  -0.283  13.212   9.947  0.0314 -0.0691 -0.1514
   38loPI   GL2  598  -0.200  12.925   9.900  0.3418  0.0019  0.2923
   38loPI   C1A  599  -0.291  13.277   9.538  0.2702  0.0335 -0.3075
   38loPI   C2A  600  -0.253  13.334   9.124  0.1374 -0.0738 -0.3634
   38loPI   C3A  601  -0.129  13.457   8.738  0.3206  0.0438  0.4835
   38loPI   C4A  602  -0.055  13.633   8.304  0.0965  0.1003 -0.0664
   38loPI   C5A  603  -0.128  13.757   7.992  0.1235 -0.2464  0.0314
   38loPI   C6A  604  -0.373  13.722   7.735 -0.2817  0.0666 -0.1575
   38loPI   C1B  605  -0.175  12.797   9.390  0.3453  0.0225 -0.0611
   38loPI   C2B  606  -0.212  12.917   8.901 -0.1368 -0.0376 -0.0718
   38loPI   C3B  607  -0.101  12.982   8.460 -0.0747 -0.0469 -0.0202
   38loPI   C4B  608   0.069  13.199   8.108 -0.0088  0.3247  0.1186
   39loPI    C1  609   6.264   8.100  11.455 -0.0926  0.1422  0.2541
   39loPI    C2  610   6.633   8.250  11.485  0.1113 -0.3117  0.1042
   39loPI    C3  611   6.412   8.196  11.814  0.2668 -0.2528  0.2200
   39loPI   PO4  612   6.317   8.037  11.166 -0.1056  0.2688  0.0099
   39loPI   GL1  613   6.207   8.007  10.811 -0.0005 -0.1432  0.1063
   39loPI   GL2  614   6.196   8.347  10.760 -0.0784 -0.1336 -0.0332
   39loPI   C1A  615   6.109   7.862  10.499 -0.3250 -0.0730  0.0030
   39loPI   C2A  616   6.244   7.998  10.035 -0.2672 -0.1311 -0.3161
   39loPI   C3A  617   6.284   7.944   9.626 -0.0329  0.1295 -0.1328
   39loPI   C4A  618   6.422   7.967   9.209  0.1268 -0.2353  0.0940
   39loPI   C5A  619   6.358   8.007   8.839 -0.1069 -0.1292 -0.0059
   39loPI   C6A  620   6.293   7.846   8.436  0.1854 -0.1041 -0.0274
   39loPI   C1B  621   6.354   8.435  10.386 -0.2183 -0.0455 -0.0679
   39loPI   C2B  622   6.529   8.497  10.031 -0.0739  0.0278  0.2388
   39loPI   C3B  623   6.509   8.364   9.612  0.3035 -0.0691  0.2351
   39loPI   C4B  624   6.623   8.455   9.232 -0.1711 -0.0228 -0.1941
   40loPI    C1  625  17.214  11.863  10.496 -0.0543  0.0973 -0.0486
   40loPI    C2  626  17.075  11.566  10.725  0.0297  0.1307  0.0468
   40loPI    C3  627  17.456  11.684  10.760  0.0583  0.1000 -0.1489
   40loPI   PO4  628  17.094  11.823  10.244 -0.1166 -0.1569 -0.1877
   40loPI   GL1  629  16.989  11.746   9.878  0.4037 -0.0584  0.1500
   40loPI   GL2  630  17.032  11.531   9.672  0.0890  0.2565  0.1113
   40loPI   C1A  631  16.808  12.025   9.730 -0.2195 -0.0438 -0.0416
   40loPI   C2A  632  16.707  12.109   9.280  0.1409 -0.0207  0.2133
   40loPI   C3A  633  16.742  12.110   8.769  0.3049  0.0579 -0.1048
   40loPI   C4A  634  16.779  12.167   8.264  0.0786 -0.0333 -0.0876
   40loPI   C5A  635  17.125  12.220   7.990 -0.2391 -0.1424 -0.0693
   40loPI   C6A  636  17.536  12.308   7.829 -0.0210 -0.3169 -0.0415
   40loPI   C1B  637  16.947  11.667   9.259  0.1366  0.1210  0.2277
   40loPI   C2B  638  16.976  11.728   8.832  0.0405  0.0294  0.0107
   40loPI   C3B  639  16.881  11.711   8.453 -0.1336 -0.2558  0.3296
   40loPI   C4B  640  16.929  11.750   8.010  0.2644 -0.0162 -0.0197
   41loPI    C1  641  14.571   0.036  11.104  0.2330  0.1677  0.3391
   41loPI    C2  642  14.359   0.266  11.354  0.0105  0.3448 -0.0038
   41loPI    C3  643  14.232   0.209  10.979  0.1424 -0.2206  0.0285
   41loPI   PO4  644  14.775   0.092  10.974  0.3169 -0.0975  0.1348
   41loPI   GL1  645  14.899   0.083  10.440  0.2083  0.1802 -0.0461
   41loPI   GL2  646  15.125   0.255  10.410 -0.2683  0.1796 -0.0279
   41loPI   C1A  647  14.650  -0.065  10.109 -0.0462  0.0961 -0.1135
   41loPI   C2A  648  14.253  -0.150   9.952 -0.0566  0.0913 -0.0937
   41loPI   C3A  649  14.263  -0.175   9.568 -0.2680 -0.0494  0.2297
   41loPI   C4A  650  14.398  -0.167   9.104  0.1101 -0.1080 -0.1287
   41loPI   C5A  651  14.327  -0.163   8.670 -0.2099 -0.0337 -0.3463
   41loPI   C6A  652  14.156  -0.248   8.341 -0.1081 -0.3261  0.0646
   41loPI   C1B  653  15.380   0.044  10.119 -0.2885  0.1284  0.0689
   41loPI   C2B  654  15.270  -0.061   9.639  0.0746  0.1440 -0.0087
   41loPI   C3B  655  15.244  -0.040   9.191 -0.1633  0.3722 -0.0994
   41loPI   C4B  656  15.311  -0.028   8.732 -0.1298  0.3311  0.0130
   42loPI    C1  657   6.364  15.171  10.821  0.2928  0.1950 -0.0911
   42loPI    C2  658   6.232  15.476  11.044 -0.0304  0.0761 -0.1158
   42loPI    C3  659   6.531  15.247  11.177 -0.0662  0.1477  0.0920
   42loPI   PO4  660   6.387  15.325  10.536  0.0159 -0.0455 -0.2360
   42loPI   GL1  661   6.513  15.298  10.137 -0.0147  0.2604 -0.1387
   42loPI   GL2  662   6.875  15.338  10.266 -0.1421  0.1499 -0.2174
   42loPI   C1A  663   6.459  15.137   9.736  0.0731 -0.0686  0.0401
   42loPI   C2A  664   6.447  15.189   9.298  0.1029 -0.0507  0.0999
   42loPI   C3A  665   6.582  15.269   8.898  0.2467  0.0384  0.1711
   42loPI   C4A  666   6.382  15.156   8.484 -0.1056  0.1808 -0.4247
   42loPI   C5A  667   6.420  15.250   8.035  0.3183 -0.2147  0.0889
   42loPI   C6A  668   6.541  15.627   7.990 -0.0028  0.1894  0.0095
   42loPI   C1B  669   6.903  15.022   9.944  0.1535  0.3472 -0.0919
   42loPI   C2B  670   6.977  15.104   9.506  0.0198 -0.0812 -0.1673
   42loPI   C3B  671   6.960  15.029   9.143  0.1131 -0.1537  0.0324
   42loPI   C4B  672   6.979  15.034   8.659  0.1498 -0.1878  0.1996
   43loPI    C1  673  17.814  11.797  10.394  0.0616 -0.1545  0.1281
   43loPI    C2  674  18.044  11.887  10.709 -0.0513 -0.1729  0.2170
   43loPI    C3  675  17.929  11.509  10.646  0.2343 -0.2240 -0.0277
   43loPI   PO4  676  17.953  11.908  10.185 -0.0664 -0.0903 -0.2733
   43loPI   GL1  677  17.753  11.833   9.850 -0.0382  0.0663 -0.3209
   43loPI   GL2  678  17.474  11.705   9.937 -0.2810  0.0454 -0.1754
   43loPI   C1A  679  17.854  12.010   9.430 -0.0326  0.0242  0.0450
   43loPI   C2A  680  17.760  12.019   9.031  0.0536 -0.1971 -0.1817
   43loPI   C3A  681  17.794  12.059   8.602 -0.2764  0.0077 -0.0103
   43loPI   C4A  682  17.807  12.094   8.225  0.1130 -0.0312 -0.3436
   43loPI   C5A  683  17.955  11.980   7.779 -0.2792  0.1136  0.0031
   43loPI   C6A  684  17.845  11.914   7.441  0.0368  0.1219  0.3881
   43loPI   C1B  685  17.454  11.700   9.457 -0.0260 -0.0421  0.0185
   43loPI   C2B  686  17.416  11.671   9.004 -0.2743  0.0050  0.4249
   43loPI   C3B  687  17.448  11.720   8.634 -0.0584 -0.4075 -0.1395
   43loPI   C4B  688  17.365  11.899   8.277 -0.1755  0.1093 -0.4062
   44loPI    C1  689  16.130  10.470  10.403  0.1805 -0.2067 -0.1428
   44loPI    C2  690  16.397  10.260  10.615  0.0665 -0.0689  0.1413
   44loPI    C3  691  16.159  10.525  10.798 -0.1309 -0.0483 -0.1392
   44loPI   PO4  692  16.273  10.427  10.150 -0.0209  0.1179  0.0895
   44loPI   GL1  693  16.161  10.551   9.844  0.0760 -0.1902  0.0685
   44loPI   GL2  694  16.538  10.670   9.803 -0.1011  0.0307  0.1093
   44loPI   C1A  695  16.125  10.338   9.432 -0.0626 -0.1943 -0.0171
   44loPI   C2A  696  16.179  10.196   9.001  0.2755  0.2277 -0.0682
   44loPI   C3A  697  16.111  10.223   8.579  0.1991 -0.0289 -0.0777
   44loPI   C4A  698  16.110  10.331   8.209  0.4143 -0.1385  0.2545
   44loPI   C5A  699  16.075  10.452   7.797 -0.1564  0.0664 -0.0312
   44loPI   C6A  700  16.242  10.605   7.422 -0.4548 -0.0278  0.2503
   44loPI   C1B  701  16.454  10.765   9.300  0.0423 -0.2048 -0.3119
   44loPI   C2B  702  16.464  10.685   8.806  0.3711  0.0573 -0.1988
   44loPI   C3B  703  16.538  10.776   8.507  0.2286 -0.0839  0.0171
   44loPI   C4B  704  16.490  10.630   8.102 -0.3261 -0.1013 -0.0627
   45loPI    C1  705  10.477  12.031  10.468 -0.0314  0.0091 -0.0050
   45loPI    C2  706  10.711  12.295  10.280  0.1617 -0.0814  0.1050
   45loPI    C3  707  10.838  12.119  10.616 -0.1245 -0.0227  0.2472
   45loPI   PO4  708  10.407  11.821  10.349 -0.2379  0.1541 -0.1303
   45loPI   GL1  709  10.469  11.610   9.973  0.0347  0.3157 -0.0041
   45loPI   GL2  710  10.645  11.907   9.889  0.2311  0.3063  0.1972
   45loPI   C1A  711  10.334  11.647   9.561 -0.2409 -0.0915  0.3257
   45loPI   C2A  712  10.121  11.651   9.199  0.2250  0.0381  0.1092
   45loPI   C3A  713  10.120  11.716   8.754 -0.1028 -0.1018  0.0620
   45loPI   C4A  714  10.352  12.019   8.493 -0.1105 -0.0088  0.4940
   45loPI   C5A  715  10.391  12.143   8.094  0.1380  0.0102  0.4862
   45loPI   C6A  716  10.080  12.364   7.952  0.0011 -0.0430 -0.2511
   45loPI   C1B  717  10.763  11.907   9.442 -0.3307 -0.1078  0.1239
   45loPI   C2B  718  10.578  11.824   9.055 -0.1558  0.1384  0.3290
   45loPI   C3B  719  10.668  11.645   8.654 -0.0763  0.1019 -0.1168
   45loPI   C4B  720  10.636  11.658   8.249  0.1013  0.2662  0.0115
   46loPI    C1  721   5.457   5.707  10.809  0.0796 -0.2530  0.1293
   46loPI    C2  722   5.749   5.667  11.081  0.1586 -0.0763  0.0716
   46loPI    C3  723   5.698   6.016  10.890  0.0845 -0.1895 -0.1189
   46loPI   PO4  724   5.421   5.552  10.703  0.1200  0.0275  0.2732
   46loPI   GL1  725   5.327   5.473  10.322 -0.1139  0.1323  0.0752
   46loPI   GL2  726   5.247   5.206  10.225  0.0606 -0.1645  0.2210
   46loPI   C1A  727   5.598   5.565  10.026 -0.0778  0.0024 -0.0475
   46loPI   C2A  728   5.574   5.752   9.751 -0.1951 -0.0353 -0.0981
   46loPI   C3A  729   5.702   5.790   9.297  0.3393 -0.1337  0.1685
   46loPI   C4A  730   5.755   5.713   8.859 -0.0837  0.0386  0.0193
   46loPI   C5A  731   5.691   5.799   8.410 -0.1040  0.0799  0.1329
   46loPI   C6A  732   5.610   5.682   8.013 -0.2845 -0.0031 -0.0223
   46loPI   C1B  733   5.236   5.239   9.836  0.0442 -0.2601 -0.0923
   46loPI   C2B  734   5.328   5.260   9.496  0.1007 -0.0320  0.1512
   46loPI   C3B  735   5.329   5.203   9.135  0.3913  0.1439 -0.0149
   46loPI   C4B  736   5.378   5.363   8.665 -0.0062  0.2151 -0.2100
   47loPI    C1  737   4.490  13.545  10.741 -0.1549  0.0557 -0.1561
   47loPI    C2  738   4.291  13.198  10.718  0.2063 -0.1827  0.1831
   47loPI    C3  739   4.210  13.456  11.012  0.0620 -0.0566  0.0348
   47loPI   PO4  740   4.714  13.522  10.575 -0.1511 -0.2060  0.1929
   47loPI   GL1  741   4.783  13.659  10.275 -0.0265 -0.2830  0.0534
   47loPI   GL2  742   5.012  13.391  10.116  0.0879  0.1113 -0.1653
   47loPI   C1A  743   4.744  13.840   9.906 -0.0680  0.1354  0.2033
   47loPI   C2A  744   4.801  13.968   9.487 -0.2132  0.1294 -0.1388
   47loPI   C3A  745   4.785  13.896   9.092  0.1048  0.1817 -0.1365
   47loPI   C4A  746   4.754  13.876   8.651  0.0549 -0.1846 -0.0173
   47loPI   C5A  747   4.743  13.812   8.173 -0.1948  0.0540 -0.0495
   47loPI   C6A  748   4.839  13.859   7.656  0.1987  0.0922  0.0977
   47loPI   C1B  749   4.869  13.332   9.710  0.2798 -0.2265 -0.0577
   47loPI   C2B  750   4.907  13.447   9.276  0.0238 -0.5278 -0.1866
   47loPI   C3B  751   4.850  13.336   8.818 -0.3347  0.1102  0.3279
   47loPI   C4B  752   4.907  13.404   8.411  0.1222 -0.0834  0.3111
   48loPI    C1  753   2.765  15.172  10.946 -0.3089  0.0474  0.0312
   48loPI    C2  754   2.666  15.556  10.894  0.1080  0.1681  0.0933
   48loPI    C3  755   2.864  15.444  11.223  0.0424 -0.0911  0.0463
   48loPI   PO4  756   2.792  15.114  10.664 -0.0325  0.0997 -0.1133
   48loPI   GL1  757   2.861  14.912  10.220 -0.1705 -0.2216 -0.1478
   48loPI   GL2  758   2.626  15.015  10.134  0.1708 -0.0287 -0.1298
   48loPI   C1A  759   2.909  14.784   9.726 -0.2736 -0.0456  0.1705
   48loPI   C2A  760   2.883  14.707   9.322 -0.3621  0.0989 -0.2978
   48loPI   C3A  761   2.824  14.647   8.918 -0.0988 -0.0525  0.0487
   48loPI   C4A  762   2.864  14.686   8.519 -0.2260 -0.0105 -0.2540
   48loPI   C5A  763   2.787  14.765   8.134 -0.1029  0.0982  0.0257
   48loPI   C6A  764   2.987  14.495   7.803  0.1124  0.0232 -0.0097
   48loPI   C1B  765   2.500  15.069   9.720 -0.1572  0.1591 -0.2356
   48loPI   C2B  766   2.454  14.997   9.364  0.1010  0.2154 -0.1466
   48loPI   C3B  767   2.402  14.947   8.976 -0.0933 -0.0777  0.0523
   48loPI   C4B  768   2.408  14.886   8.486 -0.0462  0.1696 -0.0955
   49loPI    C1  769   7.066  11.502  10.944  0.2724  0.1074  0.0406
   49loPI    C2  770   6.710  11.515  11.126  0.2214  0.2739 -0.0692
   49loPI    C3  771   6.979  11.239  11.233 -0.0971 -0.1259 -0.2735
   49loPI   PO4  772   6.976  11.526  10.674 -0.0358 -0.0129  0.2031
   49loPI   GL1  773   7.251  11.617  10.293 -0.1352 -0.0020  0.1542
   49loPI   GL2  774   7.479  11.423  10.124  0.1104 -0.0765 -0.2115
   49loPI   C1A  775   6.935  11.569  10.036 -0.0963  0.0812  0.1861
   49loPI   C2A  776   7.013  11.551   9.606 -0.1092 -0.1282 -0.1550
   49loPI   C3A  777   6.952  11.505   9.213 -0.2457  0.0919  0.0710
   49loPI   C4A  778   6.993  11.537   8.820 -0.0398  0.1264 -0.4261
   49loPI   C5A  779   6.889  11.358   8.349 -0.0619  0.0156  0.1253
   49loPI   C6A  780   6.649  11.522   8.072 -0.1254 -0.2292  0.0585
   49loPI   C1B  781   7.510  11.334   9.647  0.0654  0.1099 -0.2779
   49loPI   C2B  782   7.436  11.418   9.260  0.1167  0.0031 -0.2027
   49loPI   C3B  783   7.466  11.327   8.867 -0.2094 -0.1811  0.0681
   49loPI   C4B  784   7.455  11.179   8.412  0.1331 -0.1906 -0.0563
   50loPI    C1  785  11.959  17.438  10.994  0.0687 -0.0946  0.0532
   50loPI    C2  786  11.562  17.442  10.947  0.0952  0.1044 -0.1707
   50loPI    C3  787  11.719  17.388  11.311 -0.1412  0.3245 -0.0324
   50loPI   PO4  788  11.990  17.358  10.751 -0.3860 -0.1004 -0.0616
   50loPI   GL1  789  12.196  17.366  10.426 -0.1604 -0.1030  0.0814
   50loPI   GL2  790  11.966  17.247  10.211 -0.2807  0.0386 -0.0844
   50loPI   C1A  791  12.498  17.452  10.137 -0.1535  0.1673  0.3773
   50loPI   C2A  792  12.569  17.493   9.739 -0.0136  0.2739 -0.2545
   50loPI   C3A  793  12.665  17.504   9.303 -0.3284  0.3630  0.3381
   50loPI   C4A  794  12.616  17.480   8.900 -0.2895 -0.0778 -0.2709
   50loPI   C5A  795  12.788  17.391   8.483  0.3540 -0.0889  0.1444
   50loPI   C6A  796  12.565  17.052   8.119  0.0537  0.2813 -0.0048
   50loPI   C1B  797  12.130  17.159   9.878 -0.0212 -0.3480 -0.1178
   50loPI   C2B  798  12.239  17.189   9.407  0.3489 -0.1647 -0.1115
   50loPI   C3B  799  12.261  17.121   8.933  0.6266 -0.0607  0.3724
   50loPI   C4B  800  12.252  17.115   8.543  0.1962 -0.0063  0.1556
   51loPI    C1  801   3.743  11.746  10.788  0.2092 -0.0590 -0.3011
   51loPI    C2  802   4.110  11.686  10.934  0.1806  0.1279 -0.1483
   51loPI    C3  803   3.805  11.755  11.183  0.0230 -0.1182 -0.2697
   51loPI   PO4  804   3.815  11.730  10.542  0.0478 -0.2288  0.1788
   51loPI   GL1  805   3.975  11.575  10.223 -0.2680  0.1401 -0.3010
   51loPI   GL2  806   4.206  11.795  10.004 -0.3840 -0.1211 -0.1007
   51loPI   C1A  807   3.881  11.399   9.801 -0.0749  0.1877  0.1245
   51loPI   C2A  808   3.758  11.402   9.324 -0.0454 -0.2604  0.0672
   51loPI   C3A  809   3.799  11.422   8.962 -0.1504  0.0890  0.2630
   51loPI   C4A  810   3.631  11.308   8.472 -0.0359  0.2276  0.3130
   51loPI   C5A  811   3.490  11.382   8.000  0.1103  0.2997 -0.1472
   51loPI   C6A  812   3.471  11.013   7.671  0.1858 -0.1216 -0.0914
   51loPI   C1B  813   4.258  11.696   9.496  0.0725 -0.2955  0.1032
   51loPI   C2B  814   4.234  11.732   9.029  0.6103 -0.1807  0.1766
   51loPI   C3B  815   4.186  11.647   8.610  0.3236 -0.0183  0.0447
   51loPI   C4B  816   4.005  11.425   8.218 -0.0819 -0.1907 -0.2356
   52loPI    C1  817  14.258  13.765  10.883 -0.1706 -0.1200 -0.0239
   52loPI    C2  818  14.491  13.478  10.731 -0.0067 -0.1217  0.2239
   52loPI    C3  819  14.209  13.385  10.999 -0.0614 -0.0723  0.1838
   52loPI   PO4  820  14.189  13.892  10.650 -0.3930 -0.1763  0.1559
   52loPI   GL1  821  14.162  13.702  10.272  0.1711  0.2044  0.0541
   52loPI   GL2  822  14.481  13.660  10.264  0.0135 -0.4166 -0.2713
   52loPI   C1A  823  13.902  13.495  10.026  0.2463 -0.0610  0.2703
   52loPI   C2A  824  13.830  13.497   9.616  0.0922  0.1293 -0.2795
   52loPI   C3A  825  13.917  13.467   9.180  0.0823 -0.1463 -0.1781
   52loPI   C4A  826  13.995  13.424   8.722  0.1696  0.2395 -0.0270
   52loPI   C5A  827  13.905  13.560   8.309  0.1779 -0.1420  0.1534
   52loPI   C6A  828  13.852  13.989   8.082  0.1130  0.1180  0.1305
   52loPI   C1B  829  14.373  13.775   9.772  0.1108 -0.1525  0.0626
   52loPI   C2B  830  14.327  13.747   9.348  0.0365  0.2997 -0.1713
   52loPI   C3B  831  14.320  13.725   8.920  0.1220  0.2163 -0.1058
   52loPI   C4B  832  14.363  13.870   8.485  0.3052  0.3935 -0.0218
   53loPI    C1  833  12.809  17.052  10.935  0.1224  0.2250 -0.1432
   53loPI    C2  834  12.452  17.233  10.938  0.1130  0.2063 -0.1322
   53loPI    C3  835  12.724  17.322  11.218 -0.0127 -0.0377  0.0723
   53loPI   PO4  836  12.727  16.850  10.799 -0.0826  0.0555 -0.3051
   53loPI   GL1  837  12.617  16.744  10.380  0.0377  0.2063 -0.0959
   53loPI   GL2  838  12.509  16.991  10.362  0.1759 -0.0155  0.0569
   53loPI   C1A  839  12.674  16.539   9.960  0.1851  0.0119  0.1813
   53loPI   C2A  840  12.698  16.401   9.587  0.0626  0.0206  0.0158
   53loPI   C3A  841  12.776  16.419   9.178  0.1206  0.1859  0.0135
   53loPI   C4A  842  12.701  16.395   8.802 -0.1412 -0.1230 -0.0738
   53loPI   C5A  843  12.755  16.373   8.409  0.0859  0.0712  0.4780
   53loPI   C6A  844  13.134  16.135   8.158 -0.0642 -0.2396  0.0181
   53loPI   C1B  845  12.576  17.038   9.906  0.2608 -0.0179  0.3947
   53loPI   C2B  846  12.657  16.957   9.400 -0.0326 -0.1439  0.0050
   53loPI   C3B  847  12.776  16.920   8.997 -0.0312  0.0318 -0.1509
   53loPI   C4B  848  12.734  16.864   8.674  0.2744  0.0348 -0.2048
   54loPI    C1  849   0.897  15.246  10.517 -0.0609  0.2012 -0.0330
   54loPI    C2  850   0.527  15.252  10.670 -0.0469 -0.0188  0.0130
   54loPI    C3  851   0.836  15.143  10.899  0.0190 -0.0328 -0.0822
   54loPI   PO4  852   0.790  15.137  10.242 -0.0090  0.1189  0.2937
   54loPI   GL1  853   0.884  14.932   9.825  0.0443 -0.0701 -0.2283
   54loPI   GL2  854   1.107  15.150   9.845  0.1326 -0.2242 -0.0448
   54loPI   C1A  855   0.600  15.048   9.471 -0.0810  0.0475  0.2514
   54loPI   C2A  856   0.650  15.180   8.990  0.1980  0.2007  0.0564
   54loPI   C3A  857   0.508  15.341   8.746 -0.2135  0.4672  0.0606
   54loPI   C4A  858   0.539  15.362   8.373  0.0573 -0.1688  0.0972
   54loPI   C5A  859   0.844  15.435   8.143  0.1918 -0.0706  0.0662
   54loPI   C6A  860   1.302  15.656   8.232  0.1859 -0.0214 -0.1497
   54loPI   C1B  861   1.071  15.001   9.252  0.4429 -0.1253  0.2043
   54loPI   C2B  862   1.104  15.027   8.766  0.1834  0.1800 -0.1020
   54loPI   C3B  863   1.018  15.002   8.311  0.1233 -0.2348 -0.2825
   54loPI   C4B  864   0.928  15.016   7.949 -0.0067  0.6020  0.0559
   55loPI    C1  865   4.838   1.601  10.211  0.1388  0.0005 -0.0202
   55loPI    C2  866   4.825   1.561  10.609  0.0571  0.1443 -0.0079
   55loPI    C3  867   4.841   1.926  10.445 -0.1489  0.0948 -0.1424
   55loPI   PO4  868   4.751   1.447  10.064  0.0753  0.1486  0.2520
   55loPI   GL1  869   4.804   1.201   9.804  0.1758 -0.0102 -0.2657
   55loPI   GL2  870   4.997   1.363   9.533  0.1218  0.0941  0.3245
   55loPI   C1A  871   4.603   1.073   9.452  0.0845  0.0212 -0.0824
   55loPI   C2A  872   4.591   1.031   9.098  0.0862 -0.1537  0.0693
   55loPI   C3A  873   4.528   1.045   8.692  0.2115  0.4415 -0.0610
   55loPI   C4A  874   4.484   0.871   8.289  0.1307  0.0434  0.0834
   55loPI   C5A  875   4.319   0.963   7.846 -0.2377  0.0330 -0.1119
   55loPI   C6A  876   4.079   1.331   7.703  0.0275  0.1697 -0.0355
   55loPI   C1B  877   4.996   1.382   9.151  0.0005  0.0374  0.0096
   55loPI   C2B  878   5.040   1.291   8.774 -0.0304  0.0854 -0.0043
   55loPI   C3B  879   4.879   1.196   8.400 -0.0756  0.1125  0.1624
   55loPI   C4B  880   4.677   1.296   8.037 -0.1152 -0.0261  0.2325
   56loPI    C1  881  12.401   0.917  11.064  0.2460 -0.0236  0.2480
   56loPI    C2  882  12.249   0.589  11.234 -0.0398  0.0215  0.0862
   56loPI    C3  883  12.107   0.949  11.333 -0.0038  0.0683 -0.0314
   56loPI   PO4  884  12.388   0.870  10.815 -0.0770  0.0683  0.0679
   56loPI   GL1  885  12.420   0.830  10.359 -0.0517 -0.0373 -0.1394
   56loPI   GL2  886  12.700   0.942  10.174  0.0875 -0.0142  0.0897
   56loPI   C1A  887  12.279   0.754   9.887 -0.1451 -0.1870  0.0083
   56loPI   C2A  888  12.320   0.635   9.399  0.1176 -0.0994 -0.1702
   56loPI   C3A  889  12.540   0.646   9.001  0.0182  0.4174 -0.1784
   56loPI   C4A  890  12.451   0.691   8.556  0.0595 -0.1481 -0.3203
   56loPI   C5A  891  12.691   0.720   8.229 -0.0106  0.1276 -0.0379
   56loPI   C6A  892  12.721   0.709   7.744  0.1640  0.3629  0.1187
   56loPI   C1B  893  12.845   0.928   9.781 -0.0030  0.1072  0.1845
   56loPI   C2B  894  12.853   0.890   9.410 -0.0847  0.0620 -0.0745
   56loPI   C3B  895  12.909   1.018   9.010 -0.0504  0.3039  0.1698
   56loPI   C4B  896  12.898   0.938   8.629 -0.1400  0.0329  0.1964
   57loPI    C1  897  13.761  15.566  11.018 -0.2183 -0.1139 -0.0956
   57loPI    C2  898  13.386  15.703  11.048 -0.1349  0.0592  0.1886
   57loPI    C3  899  13.557  15.515  11.358 -0.0197 -0.1056  0.0269
   57loPI   PO4  900  13.752  15.494  10.788  0.1476  0.0853  0.2985
   57loPI   GL1  901  13.852  15.424  10.366  0.0084  0.1164 -0.0484
   57loPI   GL2  902  14.178  15.292  10.249 -0.0591  0.2192  0.1027
   57loPI   C1A  903  13.827  15.495   9.917 -0.2505  0.1097  0.2831
   57loPI   C2A  904  13.726  15.557   9.497  0.0012  0.4696  0.1317
   57loPI   C3A  905  13.806  15.483   9.092 -0.3504  0.1110 -0.1464
   57loPI   C4A  906  13.755  15.483   8.715  0.0065 -0.0810 -0.1561
   57loPI   C5A  907  13.665  15.539   8.283 -0.2233  0.1714 -0.0397
   57loPI   C6A  908  13.482  15.844   7.951  0.0574  0.0547 -0.0242
   57loPI   C1B  909  14.279  15.277   9.735  0.0528 -0.2275  0.1671
   57loPI   C2B  910  14.216  15.224   9.340 -0.1311 -0.1360 -0.1181
   57loPI   C3B  911  14.215  15.280   8.864 -0.1433 -0.0544  0.2213
   57loPI   C4B  912  14.174  15.283   8.377  0.2603  0.0832 -0.3221
   58loPI    C1  913   4.684  17.067  10.560  0.1787 -0.2441  0.1342
   58loPI    C2  914   4.818  16.700  10.645  0.1087 -0.2967  0.0195
   58loPI    C3  915   4.492  16.842  10.829  0.1590 -0.2762  0.0934
   58loPI   PO4  916   4.695  17.085  10.315  0.3369 -0.0936  0.1009
   58loPI   GL1  917   4.619  16.912   9.888 -0.1751 -0.3605 -0.0785
   58loPI   GL2  918   4.393  17.018   9.758  0.2206 -0.2000  0.0990
   58loPI   C1A  919   4.838  16.801   9.549  0.1203  0.1227  0.1567
   58loPI   C2A  920   4.885  16.798   9.076  0.1291 -0.1788  0.0989
   58loPI   C3A  921   4.851  16.780   8.641  0.0648 -0.0950  0.3212
   58loPI   C4A  922   4.974  16.751   8.144  0.1432 -0.1338  0.3413
   58loPI   C5A  923   5.036  16.526   7.803 -0.0808  0.0328 -0.1056
   58loPI   C6A  924   5.007  16.315   7.440 -0.1522 -0.0389  0.1793
   58loPI   C1B  925   4.408  17.112   9.342  0.0720  0.0402 -0.5065
   58loPI   C2B  926   4.410  17.032   8.852  0.1153 -0.3717 -0.1102
   58loPI   C3B  927   4.413  16.920   8.465 -0.0150 -0.3036  0.2369
   58loPI   C4B  928   4.433  17.072   8.018  0.0430  0.0760 -0.2192
   59loPI    C1  929  14.115  15.104  10.712 -0.1621  0.1228 -0.0164
   59loPI    C2  930  14.256  15.478  10.726 -0.1637  0.1252 -0.0624
   59loPI    C3  931  14.207  15.271  11.064  0.1150  0.0630 -0.0575
   59loPI   PO4  932  14.300  14.934  10.592 -0.1752 -0.1110 -0.0928
   59loPI   GL1  933  14.503  14.890  10.215 -0.1989  0.2045 -0.2142
   59loPI   GL2  934  14.657  15.121  10.121  0.0357  0.1943 -0.0020
   59loPI   C1A  935  14.316  14.770   9.815 -0.2353 -0.3667  0.0560
   59loPI   C2A  936  14.294  14.694   9.442 -0.1007 -0.1693  0.3401
   59loPI   C3A  937  14.209  14.770   9.003 -0.0163 -0.4837  0.0406
   59loPI   C4A  938  14.249  14.765   8.574  0.1646 -0.2119  0.3317
   59loPI   C5A  939  14.364  14.802   8.115 -0.1268  0.4282 -0.4253
   59loPI   C6A  940  14.552  15.044   7.803 -0.0718  0.0399 -0.1596
   59loPI   C1B  941  14.764  15.045   9.703 -0.3784  0.2344  0.1156
   59loPI   C2B  942  14.680  14.989   9.224 -0.0479 -0.0296 -0.1318
   59loPI   C3B  943  14.684  15.077   8.819 -0.1274  0.0872  0.3353
   59loPI   C4B  944  14.670  15.129   8.308 -0.0243 -0.1438  0.0465
   60loPI    C1  945   6.126  11.584  10.736 -0.2204 -0.2406 -0.1399
   60loPI    C2  946   5.792  11.395  10.850 -0.2380 -0.3103 -0.3039
   60loPI    C3  947   5.770  11.759  10.685 -0.2045 -0.1631  0.0075
   60loPI   PO4  948   6.270  11.301  10.635  0.0876 -0.0333 -0.6510
   60loPI   GL1  949   6.567  11.275  10.322  0.2208 -0.0697 -0.1043
   60loPI   GL2  950   6.372  11.578  10.264  0.1715 -0.3628  0.1815
   60loPI   C1A  951   6.646  11.213   9.825 -0.0413 -0.0143  0.1125
   60loPI   C2A  952   6.635  11.163   9.378  0.3710  0.0490 -0.2415
   60loPI   C3A  953   6.617  11.229   8.939 -0.0394 -0.1899 -0.0908
   60loPI   C4A  954   6.370  11.151   8.599  0.2124 -0.2081 -0.2532
   60loPI   C5A  955   6.045  10.945   8.264 -0.1911  0.1704 -0.0182
   60loPI   C6A  956   5.644  10.756   8.188  0.0930 -0.0939  0.0361
   60loPI   C1B  957   6.492  11.744   9.974  0.3252  0.2719 -0.1903
   60loPI   C2B  958   6.543  11.637   9.562 -0.2414  0.0571 -0.1358
   60loPI   C3B  959   6.495  11.729   9.143  0.1217 -0.0252  0.2608
   60loPI   C4B  960   6.531  11.653   8.710 -0.2495 -0.0100  0.1101
   61loPI    C1  961  16.146   2.710  10.637 -0.0429  0.0286  0.3136
   61loPI    C2  962  16.450   2.705  10.897  0.2509 -0.1799 -0.0236
   61loPI    C3  963  16.137   2.462  10.950  0.1473  0.0193  0.3130
   61loPI   PO4  964  16.307   2.665  10.267 -0.0976 -0.2194  0.1627
   61loPI   GL1  965  16.209   2.370   9.993  0.0388  0.1047  0.1440
   61loPI   GL2  966  15.889   2.412   9.917 -0.2995  0.2988 -0.1322
   61loPI   C1A  967  16.359   2.438   9.557 -0.0848 -0.2426 -0.1889
   61loPI   C2A  968  16.276   2.357   9.111 -0.1280 -0.1688  0.0629
   61loPI   C3A  969  16.347   2.426   8.676 -0.0602 -0.4177 -0.2937
   61loPI   C4A  970  16.281   2.386   8.270 -0.1396 -0.0680 -0.1141
   61loPI   C5A  971  16.222   2.298   7.801 -0.1925  0.1458 -0.1817
   61loPI   C6A  972  16.075   2.043   7.512  0.1031 -0.0653  0.3426
   61loPI   C1B  973  15.952   2.138   9.636 -0.4452 -0.0585 -0.0910
   61loPI   C2B  974  15.827   2.118   9.173 -0.2849  0.0102 -0.0033
   61loPI   C3B  975  15.911   2.101   8.727  0.0242 -0.0588  0.0471
   61loPI   C4B  976  15.835   2.235   8.288  0.1682 -0.1725 -0.0133
   62loPI    C1  977   5.632  17.640  10.287 -0.0772 -0.2117  0.0777
   62loPI    C2  978   5.630  17.431  10.628 -0.0486 -0.1747  0.1007
   62loPI    C3  979   5.324  17.674  10.540  0.0363 -0.0323  0.1938
   62loPI   PO4  980   5.817  17.530  10.127  0.0461 -0.0025 -0.0328
   62loPI   GL1  981   5.833  17.232   9.790 -0.0227  0.3163 -0.0381
   62loPI   GL2  982   5.919  16.970   9.785 -0.0779 -0.1523  0.2537
   62loPI   C1A  983   5.790  17.490   9.367  0.0379 -0.0646 -0.3340
   62loPI   C2A  984   5.810  17.393   8.973 -0.2216  0.5153  0.1452
   62loPI   C3A  985   5.776  17.376   8.504 -0.2481 -0.0910  0.3661
   62loPI   C4A  986   5.804  17.280   8.062  0.1688  0.1688 -0.3531
   62loPI   C5A  987   6.137  17.300   7.756 -0.0824  0.2327 -0.3877
   62loPI   C6A  988   6.172  17.577   7.376 -0.0663  0.0249  0.0678
   62loPI   C1B  989   5.855  16.971   9.320 -0.0179 -0.0075 -0.1460
   62loPI   C2B  990   5.908  16.888   8.909  0.0160 -0.0705  0.1846
   62loPI   C3B  991   5.816  16.864   8.514 -0.1855  0.1043  0.0907
   62loPI   C4B  992   5.925  16.776   8.177  0.0769  0.2027 -0.0343
   63loPI    C1  993  15.760  13.250  10.772 -0.0492 -0.0231  0.1250
   63loPI    C2  994  16.117  13.303  10.946  0.0264 -0.1532  0.0121
   63loPI    C3  995  15.832  13.583  10.982  0.2691  0.1292 -0.2152
   63loPI   PO4  996  15.808  13.184  10.551  0.0492 -0.1978 -0.2927
   63loPI   GL1  997  15.510  13.176  10.177  0.1677  0.2372  0.1234
   63loPI   GL2  998  15.343  13.410  10.095 -0.2359 -0.1668 -0.1226
   63loPI   C1A  999  15.349  12.867   9.810 -0.2062 -0.0775 -0.1651
   63loPI   C2A 1000  15.275  12.773   9.455  0.2212 -0.1517  0.3082
   63loPI   C3A 1001  15.305  12.704   9.038  0.2316  0.0962 -0.5002
   63loPI   C4A 1002  15.413  12.759   8.600 -0.1975  0.1540 -0.6701
   63loPI   C5A 1003  15.384  12.557   8.169  0.2387  0.3396  0.1619
   63loPI   C6A 1004  15.246  12.323   7.857  0.4013 -0.0334 -0.3661
   63loPI   C1B 1005  15.407  13.347   9.611  0.1207  0.4244  0.0128
   63loPI   C2B 1006  15.245  13.343   9.142 -0.2276  0.0482  0.2183
   63loPI   C3B 1007  15.335  13.290   8.672  0.0830 -0.2797  0.0529
   63loPI   C4B 1008  15.544  13.136   8.256 -0.1251 -0.3355  0.4719
   64loPI    C1 1009  17.312  18.172  10.474 -0.0092 -0.2693  0.0569
   64loPI    C2 1010  17.152  18.203  10.839  0.0677  0.0427  0.0667
   64loPI    C3 1011  17.541  18.277  10.784  0.0661 -0.0471 -0.0714
   64loPI   PO4 1012  17.167  18.037  10.405  0.2711  0.1506  0.2173
   64loPI   GL1 1013  16.843  18.058  10.156 -0.2491  0.0527  0.0239
   64loPI   GL2 1014  16.777  17.767   9.968 -0.5082  0.2429 -0.2895
   64loPI   C1A 1015  16.678  18.244   9.772 -0.1838 -0.0297 -0.0885
   64loPI   C2A 1016  16.745  18.190   9.301 -0.1117  0.0238 -0.0196
   64loPI   C3A 1017  16.745  18.230   8.878  0.1622  0.1283  0.1813
   64loPI   C4A 1018  16.578  18.322   8.496  0.2838  0.0704 -0.3681
   64loPI   C5A 1019  16.312  18.527   8.106 -0.0426  0.0046 -0.0497
   64loPI   C6A 1020  16.428  18.919   7.867 -0.0353 -0.0802  0.0003
   64loPI   C1B 1021  16.659  17.715   9.552  0.2696  0.1790 -0.3652
   64loPI   C2B 1022  16.612  17.694   9.142  0.0805  0.0814  0.0327
   64loPI   C3B 1023  16.704  17.749   8.625 -0.0950  0.0246 -0.0932
   64loPI   C4B 1024  16.509  17.822   8.242 -0.0468 -0.3485 -0.0456
   65loPI    C1 1025   3.979   5.585  10.512  0.2406  0.0602  0.0274
   65loPI    C2 1026   4.088   5.620  10.896  0.1531  0.1050  0.0483
   65loPI    C3 1027   3.948   5.271  10.759  0.0446  0.1303  0.0935
   65loPI   PO4 1028   3.905   5.792  10.474 -0.0389 -0.1369 -0.5173
   65loPI   GL1 1029   4.009   6.032  10.186 -0.1137 -0.2074 -0.1310
   65loPI   GL2 1030   3.614   6.107  10.097 -0.0992  0.0104  0.1423
   65loPI   C1A 1031   4.203   6.115   9.867 -0.2128 -0.2622 -0.1427
   65loPI   C2A 1032   4.232   6.233   9.465  0.0862 -0.1689  0.0840
   65loPI   C3A 1033   4.234   6.137   9.074  0.5085 -0.0029 -0.2809
   65loPI   C4A 1034   4.247   6.099   8.651 -0.1680 -0.2115  0.0877
   65loPI   C5A 1035   4.106   6.249   8.339 -0.2954 -0.3895 -0.1730
   65loPI   C6A 1036   3.844   6.324   8.033 -0.1274  0.1146 -0.1059
   65loPI   C1B 1037   3.718   6.117   9.621  0.1940 -0.0390  0.3562
   65loPI   C2B 1038   3.705   6.218   9.334 -0.3202 -0.0055  0.2282
   65loPI   C3B 1039   3.763   6.130   8.929 -0.1924  0.0278 -0.0372
   65loPI   C4B 1040   3.577   6.118   8.524  0.0625  0.0377  0.1063
   66loPI    C1 1041   3.587  17.812  10.399 -0.0646  0.1323  0.0988
   66loPI    C2 1042   3.627  17.948  10.772  0.0691  0.0143  0.1283
   66loPI    C3 1043   3.383  17.640  10.698  0.0484  0.0328  0.1193
   66loPI   PO4 1044   3.566  17.985  10.234 -0.1167  0.0004  0.1978
   66loPI   GL1 1045   3.466  17.982   9.824 -0.0536 -0.1104 -0.0020
   66loPI   GL2 1046   3.771  17.842   9.726  0.0048 -0.1604 -0.2220
   66loPI   C1A 1047   3.427  17.972   9.362 -0.1575  0.0152 -0.1226
   66loPI   C2A 1048   3.439  17.985   8.891  0.1574 -0.1846 -0.2037
   66loPI   C3A 1049   3.398  17.913   8.520  0.0259 -0.1583  0.3041
   66loPI   C4A 1050   3.343  17.882   8.067 -0.0842  0.0393  0.2099
   66loPI   C5A 1051   3.241  18.176   7.697 -0.3777  0.2012 -0.1202
   66loPI   C6A 1052   3.197  18.517   7.881 -0.0393  0.0887  0.1675
   66loPI   C1B 1053   3.908  17.681   9.387  0.0475 -0.0281 -0.0378
   66loPI   C2B 1054   3.831  17.684   8.886  0.0669  0.1274  0.1081
   66loPI   C3B 1055   3.848  17.661   8.502  0.2044 -0.1066  0.2295
   66loPI   C4B 1056   3.859  17.700   8.079 -0.0116  0.1997  0.2504
   67loPI    C1 1057   9.107   4.788  10.654 -0.0911 -0.1806  0.0247
   67loPI    C2 1058   9.006   4.542  10.952 -0.2262 -0.1442  0.0095
   67loPI    C3 1059   8.802   4.882  10.896 -0.0208 -0.0128  0.0499
   67loPI   PO4 1060   9.045   4.662  10.402 -0.0620  0.1389 -0.0547
   67loPI   GL1 1061   8.853   4.777  10.016  0.3704  0.1204  0.0481
   67loPI   GL2 1062   9.029   4.602   9.876 -0.1942 -0.0850 -0.0129
   67loPI   C1A 1063   8.716   4.948   9.655 -0.2148 -0.2784  0.0132
   67loPI   C2A 1064   8.764   4.936   9.140  0.1462  0.0097  0.4660
   67loPI   C3A 1065   8.732   4.862   8.704  0.1888  0.0879 -0.1718
   67loPI   C4A 1066   8.686   4.935   8.240 -0.0264  0.0623 -0.0001
   67loPI   C5A 1067   8.419   5.295   7.893  0.1240  0.0319 -0.0854
   67loPI   C6A 1068   8.468   5.651   7.639  0.0985 -0.0996  0.2218
   67loPI   C1B 1069   9.028   4.503   9.433 -0.0114 -0.1459  0.1975
   67loPI   C2B 1070   9.046   4.427   9.026  0.0156  0.1237 -0.1036
   67loPI   C3B 1071   8.981   4.466   8.597  0.0933 -0.2338 -0.1478
   67loPI   C4B 1072   8.946   4.489   8.235 -0.1108 -0.0107 -0.0770
   68loPI    C1 1073  13.555  11.378  10.976 -0.1665  0.1036  0.0682
   68loPI    C2 1074  13.836  11.127  11.111  0.0224  0.2639 -0.0218
   68loPI    C3 1075  13.826  11.506  11.240 -0.2006  0.2391  0.0384
   68loPI   PO4 1076  13.530  11.384  10.720 -0.0793  0.2703  0.0975
   68loPI   GL1 1077  13.579  11.282  10.340  0.0569  0.1594 -0.0673
   68loPI   GL2 1078  13.393  11.031  10.311 -0.0896 -0.1357  0.1300
   68loPI   C1A 1079  13.498  11.268   9.871  0.2344  0.0082 -0.2202
   68loPI   C2A 1080  13.287  11.239   9.391  0.0660 -0.1829 -0.0758
   68loPI   C3A 1081  13.291  11.241   8.905 -0.0686  0.0448 -0.1168
   68loPI   C4A 1082  13.494  11.128   8.536 -0.0760  0.0540  0.1980
   68loPI   C5A 1083  13.858  11.242   8.263 -0.2197  0.1093 -0.0342
   68loPI   C6A 1084  14.049  11.387   8.011 -0.2201 -0.1164 -0.1209
   68loPI   C1B 1085  13.208  10.714   9.956 -0.4690  0.0663  0.2405
   68loPI   C2B 1086  13.128  10.739   9.467  0.0761 -0.1140 -0.0073
   68loPI   C3B 1087  13.067  10.754   8.986  0.1270  0.1127  0.1298
   68loPI   C4B 1088  13.111  10.712   8.521  0.0717  0.0292 -0.0360
   69loPI    C1 1089   8.254   7.104  11.067  0.0117 -0.1620  0.2001
   69loPI    C2 1090   8.532   6.822  11.126  0.0349 -0.1425  0.1838
   69loPI    C3 1091   8.586   7.191  11.271  0.0969 -0.0914  0.0338
   69loPI   PO4 1092   8.283   7.062  10.776 -0.2644 -0.2592 -0.2044
   69loPI   GL1 1093   8.484   7.328  10.450  0.2897  0.2347 -0.3477
   69loPI   GL2 1094   8.604   6.915  10.436  0.1893 -0.4232 -0.0441
   69loPI   C1A 1095   8.171   7.479  10.164 -0.0349  0.1835 -0.0517
   69loPI   C2A 1096   8.122   7.544   9.786 -0.1418  0.1623 -0.4119
   69loPI   C3A 1097   8.204   7.576   9.392 -0.0395 -0.1514  0.3253
   69loPI   C4A 1098   8.278   7.521   8.907 -0.1444 -0.1580 -0.0705
   69loPI   C5A 1099   8.088   7.657   8.484  0.4495  0.0135  0.1799
   69loPI   C6A 1100   7.715   7.699   8.178 -0.2724  0.1608 -0.1335
   69loPI   C1B 1101   8.550   7.145  10.030  0.1106  0.0751 -0.3318
   69loPI   C2B 1102   8.473   7.194   9.643  0.0268  0.0174 -0.3141
   69loPI   C3B 1103   8.549   7.120   9.220 -0.0677 -0.3140 -0.0870
   69loPI   C4B 1104   8.517   7.111   8.752  0.0787 -0.0271 -0.1889
   70loPI    C1 1105   5.248  11.047  10.908 -0.0832  0.1630  0.1160
   70loPI    C2 1106   5.362  10.802  11.203  0.3343  0.1948 -0.0124
   70loPI    C3 1107   5.342  11.196  11.267 -0.1841  0.1510  0.1478
   70loPI   PO4 1108   5.406  10.950  10.643  0.2188 -0.0037  0.0101
   70loPI   GL1 1109   5.620  11.256  10.375  0.2210 -0.2974 -0.2474
   70loPI   GL2 1110   5.906  11.460  10.311  0.2108 -0.0364  0.0126
   70loPI   C1A 1111   5.750  11.118   9.889  0.0208 -0.1836 -0.1030
   70loPI   C2A 1112   5.790  11.099   9.418  0.3282  0.0560  0.0755
   70loPI   C3A 1113   5.677  11.086   8.981 -0.1118 -0.1215  0.1641
   70loPI   C4A 1114   5.573  11.036   8.616 -0.0047 -0.2771  0.4257
   70loPI   C5A 1115   5.340  11.189   8.242  0.4724 -0.1322  0.2196
   70loPI   C6A 1116   4.962  11.108   7.925 -0.3084 -0.3864  0.1551
   70loPI   C1B 1117   6.162  11.353   9.875  0.2370  0.1604  0.0746
   70loPI   C2B 1118   6.199  11.360   9.451  0.0097  0.0577  0.0309
   70loPI   C3B 1119   6.156  11.349   9.107  0.2722  0.0169 -0.0354
   70loPI   C4B 1120   5.973  11.403   8.727  0.2283 -0.1796 -0.0698
   71loPI    C1 1121  14.413   5.435  10.603 -0.1014  0.1456  0.0528
   71loPI    C2 1122  14.802   5.392  10.685 -0.0810  0.1519 -0.0391
   71loPI    C3 1123  14.528   5.319  10.967 -0.0324 -0.2341 -0.0859
   71loPI   PO4 1124  14.369   5.355  10.362 -0.1782 -0.0133 -0.0744
   71loPI   GL1 1125  14.571   5.487   9.867 -0.0485  0.0357  0.1494
   71loPI   GL2 1126  14.302   5.320   9.869  0.1681 -0.1036 -0.1285
   71loPI   C1A 1127  14.720   5.358   9.486  0.1330 -0.1619 -0.3650
   71loPI   C2A 1128  14.687   5.413   9.050 -0.0348  0.1092  0.1478
   71loPI   C3A 1129  14.635   5.527   8.652  0.2622  0.1014 -0.2267
   71loPI   C4A 1130  14.708   5.600   8.154  0.2494 -0.0312 -0.0722
   71loPI   C5A 1131  14.908   5.747   7.734 -0.2536 -0.0056  0.1811
   71loPI   C6A 1132  14.709   6.031   7.420  0.1495  0.2441 -0.2679
   71loPI   C1B 1133  14.270   5.398   9.386  0.1727  0.0637  0.0701
   71loPI   C2B 1134  14.151   5.444   8.934 -0.1670 -0.0176 -0.0222
   71loPI   C3B 1135  14.115   5.493   8.452  0.1606 -0.0054 -0.4885
   71loPI   C4B 1136  14.165   5.567   8.153  0.0465 -0.0345  0.0068
   72loPI    C1 1137   3.723  14.694  10.681  0.0646  0.0535  0.0376
   72loPI    C2 1138   3.386  14.523  10.812  0.0437  0.0477 -0.0236
   72loPI    C3 1139   3.582  14.783  11.045  0.0428 -0.0131  0.0455
   72loPI   PO4 1140   3.691  14.685  10.466  0.2170  0.2606 -0.3569
   72loPI   GL1 1141   3.771  14.912  10.035  0.3211 -0.1505 -0.3166
   72loPI   GL2 1142   3.386  15.011  10.202  0.2354 -0.1605  0.0274
   72loPI   C1A 1143   3.766  14.874   9.602 -0.2299  0.2527  0.0263
   72loPI   C2A 1144   3.757  14.816   9.166 -0.1188  0.0312  0.0522
   72loPI   C3A 1145   3.717  14.771   8.730 -0.0337  0.2980 -0.0021
   72loPI   C4A 1146   3.816  14.754   8.337  0.0110 -0.4001  0.0288
   72loPI   C5A 1147   3.853  14.704   7.948  0.0493 -0.0202 -0.0978
   72loPI   C6A 1148   3.993  14.404   7.694 -0.0085  0.1498  0.0871
   72loPI   C1B 1149   3.271  15.068   9.793  0.0957 -0.1898 -0.0992
   72loPI   C2B 1150   3.317  15.059   9.388  0.0380  0.0052  0.0960
   72loPI   C3B 1151   3.258  14.921   8.914 -0.0526 -0.0391 -0.1611
   72loPI   C4B 1152   3.243  14.980   8.464  0.2818 -0.0056 -0.1239
   73loPI    C1 1153  16.771   4.858  10.260 -0.0032  0.1185  0.1676
   73loPI    C2 1154  16.618   4.604  10.528  0.2029 -0.2019 -0.0120
   73loPI    C3 1155  17.007   4.587  10.435  0.1476 -0.0495 -0.2816
   73loPI   PO4 1156  16.580   4.925  10.035  0.1547 -0.0847 -0.0358
   73loPI   GL1 1157  16.725   4.826   9.723 -0.2574  0.1414 -0.6347
   73loPI   GL2 1158  16.904   4.530   9.616  0.2603 -0.2392 -0.5203
   73loPI   C1A 1159  16.460   4.920   9.309 -0.2145  0.0410  0.1383
   73loPI   C2A 1160  16.398   4.943   8.888 -0.2661  0.1694  0.1746
   73loPI   C3A 1161  16.366   4.881   8.506 -0.2882  0.0078 -0.1738
   73loPI   C4A 1162  16.566   4.787   8.119 -0.1345  0.2283 -0.0795
   73loPI   C5A 1163  16.763   4.680   7.739  0.3415 -0.0815  0.1470
   73loPI   C6A 1164  16.713   4.497   7.303  0.1574 -0.0829  0.2511
   73loPI   C1B 1165  16.796   4.433   9.109  0.0488  0.1026  0.0018
   73loPI   C2B 1166  16.690   4.532   8.792  0.0899 -0.1821  0.3419
   73loPI   C3B 1167  16.654   4.384   8.456  0.2170  0.0547 -0.2530
   73loPI   C4B 1168  16.725   4.303   8.082  0.0822 -0.2452  0.4964
   74loPI    C1 1169   8.569   0.824   9.929 -0.0789  0.2601 -0.2569
   74loPI    C2 1170   8.777   1.165   9.947  0.0264  0.1772  0.2796
   74loPI    C3 1171   8.850   0.873  10.210 -0.1814 -0.1962 -0.0661
   74loPI   PO4 1172   8.348   0.919   9.808 -0.0322 -0.2139 -0.0835
   74loPI   GL1 1173   8.190   0.922   9.399 -0.3810 -0.3092 -0.2841
   74loPI   GL2 1174   7.931   0.738   9.571  0.3055 -0.0788  0.0256
   74loPI   C1A 1175   8.181   0.993   8.894 -0.0745 -0.2004 -0.1561
   74loPI   C2A 1176   8.220   1.133   8.460  0.2489 -0.0245  0.2376
   74loPI   C3A 1177   8.304   1.323   7.993 -0.1692 -0.0559  0.0170
   74loPI   C4A 1178   8.632   1.597   7.821 -0.3360 -0.0351 -0.2774
   74loPI   C5A 1179   8.926   1.880   7.619 -0.0702 -0.2028  0.2639
   74loPI   C6A 1180   9.203   1.999   7.316  0.2702 -0.1365 -0.1187
   74loPI   C1B 1181   7.727   0.616   9.278 -0.0965  0.1228 -0.2179
   74loPI   C2B 1182   7.731   0.686   8.820  0.0320 -0.1971  0.3408
   74loPI   C3B 1183   7.737   0.799   8.367 -0.0860  0.2219  0.0531
   74loPI   C4B 1184   7.983   0.968   8.044 -0.3245  0.1380  0.1275
   75loPI    C1 1185  11.591  11.507  10.763  0.0532  0.0526  0.0049
   75loPI    C2 1186  11.680  11.258  11.064  0.0543  0.0390 -0.0067
   75loPI    C3 1187  11.555  11.630  11.142 -0.1447 -0.0309  0.0145
   75loPI   PO4 1188  11.931  11.511  10.510 -0.1981 -0.0540 -0.0641
   75loPI   GL1 1189  12.179  11.549  10.092  0.1974 -0.1484  0.0572
   75loPI   GL2 1190  11.983  11.749  10.000  0.0735 -0.0247 -0.4458
   75loPI   C1A 1191  12.421  11.223   9.927  0.2078  0.1182 -0.0506
   75loPI   C2A 1192  12.400  11.221   9.555  0.1099  0.0692 -0.1249
   75loPI   C3A 1193  12.321  11.242   9.107  0.4234  0.0971 -0.1985
   75loPI   C4A 1194  12.318  11.338   8.605 -0.0650 -0.0721 -0.2776
   75loPI   C5A 1195  12.184  11.259   8.072  0.0255 -0.0511 -0.2242
   75loPI   C6A 1196  12.002  11.263   7.734  0.0179  0.4052  0.0568
   75loPI   C1B 1197  12.066  11.925   9.758  0.0231 -0.0739 -0.2827
   75loPI   C2B 1198  11.896  11.997   9.309 -0.0707 -0.0959  0.1066
   75loPI   C3B 1199  12.116  11.816   8.960 -0.1081 -0.1970  0.2076
   75loPI   C4B 1200  12.206  11.874   8.491  0.0086  0.0973 -0.1485
   76loPI    C1 1201   9.901   4.751  10.641 -0.2034  0.1441  0.1861
   76loPI    C2 1202   9.957   4.532  10.971  0.1726 -0.1673 -0.0756
   76loPI    C3 1203  10.255   4.755  10.827 -0.0551  0.1321 -0.0919
   76loPI   PO4 1204   9.790   4.645  10.417  0.2093 -0.0049 -0.1217
   76loPI   GL1 1205   9.474   4.606  10.095  0.0726 -0.4700  0.0693
   76loPI   GL2 1206   9.342   4.949  10.075  0.0531 -0.3188  0.5233
   76loPI   C1A 1207   9.692   4.762   9.734  0.1038  0.0908 -0.1710
   76loPI   C2A 1208   9.747   4.960   9.389 -0.0538 -0.0249 -0.4944
   76loPI   C3A 1209   9.874   4.912   8.901  0.1677  0.0006 -0.2351
   76loPI   C4A 1210   9.799   4.894   8.514  0.4641  0.0418 -0.0408
   76loPI   C5A 1211   9.836   5.089   8.032 -0.0398 -0.0829 -0.1640
   76loPI   C6A 1212   9.859   5.313   7.689  0.1114 -0.0414  0.2550
   76loPI   C1B 1213   9.222   4.980   9.626 -0.2673  0.0853 -0.0646
   76loPI   C2B 1214   9.312   4.868   9.171 -0.2961 -0.1193  0.2203
   76loPI   C3B 1215   9.273   4.864   8.770 -0.0459 -0.0609  0.0509
   76loPI   C4B 1216   9.217   5.010   8.293  0.1513 -0.0879  0.1871
   77loPI    C1 1217   7.045  13.968  11.081  0.0490 -0.1781  0.0378
   77loPI    C2 1218   7.402  13.819  11.181  0.3253  0.4097 -0.0280
   77loPI    C3 1219   7.241  14.114  11.397 -0.0944  0.1989 -0.0419
   77loPI   PO4 1220   6.946  13.869  10.810 -0.0931 -0.2867  0.0338
   77loPI   GL1 1221   7.020  14.032  10.365  0.1093 -0.2265 -0.0972
   77loPI   GL2 1222   7.120  14.113  10.091 -0.1733  0.3309  0.2379
   77loPI   C1A 1223   6.635  14.084   9.942  0.2297  0.0708  0.2433
   77loPI   C2A 1224   6.589  14.218   9.527  0.3128  0.4210  0.2120
   77loPI   C3A 1225   6.513  14.107   9.124 -0.2840 -0.0766 -0.1097
   77loPI   C4A 1226   6.655  14.080   8.744  0.0439  0.2170  0.1577
   77loPI   C5A 1227   6.577  14.235   8.366 -0.0832  0.0108  0.1759
   77loPI   C6A 1228   6.694  13.933   8.051 -0.1118 -0.2003  0.0401
   77loPI   C1B 1229   7.112  13.942   9.677  0.1493  0.0053 -0.2742
   77loPI   C2B 1230   7.083  14.069   9.238 -0.3060 -0.0811  0.0122
   77loPI   C3B 1231   7.122  13.913   8.834  0.3024  0.3106  0.0893
   77loPI   C4B 1232   7.288  13.870   8.444 -0.2138  0.0526  0.0719
   78loPI    C1 1233   6.353   2.041  10.253  0.2096  0.0075 -0.1919
   78loPI    C2 1234   6.555   1.836  10.532  0.1631 -0.0284 -0.1845
   78loPI    C3 1235   6.184   1.725  10.431  0.1040  0.1050 -0.1176
   78loPI   PO4 1236   6.413   2.222  10.171  0.1322  0.2458  0.0704
   78loPI   GL1 1237   6.536   2.067   9.725  0.0118  0.0568  0.1676
   78loPI   GL2 1238   6.881   1.995   9.664 -0.2384 -0.2498  0.3348
   78loPI   C1A 1239   6.306   2.056   9.393  0.3090 -0.0801  0.0589
   78loPI   C2A 1240   6.202   2.119   8.870 -0.5061 -0.0573 -0.0341
   78loPI   C3A 1241   6.080   2.032   8.476 -0.3954  0.0206 -0.3099
   78loPI   C4A 1242   5.937   2.012   8.004  0.0194  0.1880 -0.0171
   78loPI   C5A 1243   5.546   2.290   7.900  0.1433  0.0125 -0.1890
   78loPI   C6A 1244   5.473   2.655   7.966 -0.0751  0.1749 -0.0659
   78loPI   C1B 1245   6.914   1.995   9.172 -0.2144  0.0608 -0.0577
   78loPI   C2B 1246   6.776   2.115   8.751 -0.1006  0.1412  0.0509
   78loPI   C3B 1247   6.543   2.200   8.472  0.1854 -0.4394 -0.0026
   78loPI   C4B 1248   6.329   2.393   8.086 -0.0318  0.1633 -0.2522
   79loPI    C1 1249  14.408   7.962  10.878  0.3554  0.2548 -0.0232
   79loPI    C2 1250  14.152   8.168  10.650 -0.0495 -0.0909  0.1059
   79loPI    C3 1251  14.186   8.253  11.039  0.1318  0.0401  0.0628
   79loPI   PO4 1252  14.611   7.855  10.716 -0.0466 -0.1730  0.3916
   79loPI   GL1 1253  14.559   7.967  10.342 -0.1234 -0.1865 -0.0790
   79loPI   GL2 1254  14.848   8.142  10.177 -0.2800 -0.1338 -0.1824
   79loPI   C1A 1255  14.333   8.128  10.072 -0.0290  0.3474 -0.2197
   79loPI   C2A 1256  14.218   8.066   9.727 -0.0416  0.1825  0.2910
   79loPI   C3A 1257  14.122   8.033   9.325  0.1966 -0.1926  0.3992
   79loPI   C4A 1258  14.218   8.102   8.881 -0.0513 -0.0187 -0.2255
   79loPI   C5A 1259  14.290   8.215   8.438 -0.3919  0.2488  0.0249
   79loPI   C6A 1260  14.606   8.145   8.092 -0.0696  0.0882 -0.3916
   79loPI   C1B 1261  14.704   8.060   9.791 -0.1324  0.0930  0.2290
   79loPI   C2B 1262  14.654   8.032   9.445  0.1142  0.0434 -0.0120
   79loPI   C3B 1263  14.730   8.141   9.045  0.2820  0.4339  0.1480
   79loPI   C4B 1264  14.745   8.196   8.603  0.0778 -0.2746 -0.1618
   80loPI    C1 1265  16.288   7.901  10.618 -0.0766 -0.0395 -0.0034
   80loPI    C2 1266  16.302   7.605  10.886  0.1104 -0.1575 -0.1413
   80loPI    C3 1267  16.135   7.955  10.983  0.2140 -0.1847  0.1429
   80loPI   PO4 1268  16.581   7.840  10.574 -0.0860  0.0588 -0.2555
   80loPI   GL1 1269  16.523   7.715  10.141  0.1691 -0.0709 -0.2125
   80loPI   GL2 1270  16.302   7.520  10.076  0.2546 -0.2753 -0.0615
   80loPI   C1A 1271  17.001   7.591   9.872  0.3708 -0.0763 -0.2358
   80loPI   C2A 1272  17.043   7.547   9.438 -0.2095 -0.4573  0.1743
   80loPI   C3A 1273  17.108   7.589   8.995  0.0475  0.2622  0.0853
   80loPI   C4A 1274  17.110   7.592   8.519 -0.1958 -0.1165  0.2012
   80loPI   C5A 1275  17.085   7.606   8.015  0.1498  0.2256  0.0827
   80loPI   C6A 1276  17.198   8.026   7.830  0.2321  0.2231  0.0534
   80loPI   C1B 1277  16.537   7.604   9.652  0.1057  0.1228  0.0752
   80loPI   C2B 1278  16.597   7.610   9.299 -0.1448  0.3204 -0.0021
   80loPI   C3B 1279  16.589   7.556   8.892  0.0529 -0.1034 -0.2516
   80loPI   C4B 1280  16.614   7.632   8.389 -0.0706  0.2823 -0.2994
   81loPI    C1 1281   7.978   0.881  10.180  0.2171  0.0689 -0.2953
   81loPI    C2 1282   8.235   1.157  10.312  0.0731 -0.0176  0.1882
   81loPI    C3 1283   8.321   0.769  10.353 -0.0442 -0.0459  0.1670
   81loPI   PO4 1284   7.844   1.037   9.978  0.1307  0.1991 -0.2216
   81loPI   GL1 1285   7.996   1.311   9.616 -0.2572 -0.0660 -0.0671
   81loPI   GL2 1286   8.391   1.388   9.556  0.3000 -0.1472  0.2051
   81loPI   C1A 1287   8.117   1.444   9.103  0.0958  0.1700 -0.3760
   81loPI   C2A 1288   8.185   1.533   8.674 -0.0661  0.0025 -0.3399
   81loPI   C3A 1289   7.831   1.400   8.365  0.2048  0.1047 -0.1428
   81loPI   C4A 1290   7.541   1.405   8.065 -0.3038 -0.2603  0.1653
   81loPI   C5A 1291   7.067   1.421   7.986 -0.0353  0.1939  0.0078
   81loPI   C6A 1292   6.922   1.652   7.700  0.2281  0.1613 -0.5740
   81loPI   C1B 1293   8.575   1.345   9.182 -0.0816  0.1313 -0.0879
   81loPI   C2B 1294   8.737   1.447   8.747  0.0655 -0.0093 -0.0380
   81loPI   C3B 1295   8.681   1.525   8.353 -0.0933  0.1203  0.0008
   81loPI   C4B 1296   8.227   1.754   8.248 -0.0415 -0.0668 -0.0621
   82loPI    C1 1297   4.833   6.693  10.976 -0.0507 -0.0772 -0.0722
   82loPI    C2 1298   5.107   6.589  11.248  0.0908  0.4854  0.0146
   82loPI    C3 1299   4.723   6.622  11.354  0.0316  0.0174 -0.0300
   82loPI   PO4 1300   5.023   6.659  10.757 -0.0000  0.2097  0.0561
   82loPI   GL1 1301   5.059   6.848  10.490 -0.0594 -0.0844  0.3025
   82loPI   GL2 1302   4.839   6.639  10.312 -0.2045  0.1805 -0.0798
   82loPI   C1A 1303   5.116   7.098  10.057  0.2173  0.2091  0.0819
   82loPI   C2A 1304   5.185   7.117   9.636  0.0198 -0.1386 -0.0969
   82loPI   C3A 1305   5.232   7.058   9.253  0.0370  0.0636  0.2627
   82loPI   C4A 1306   5.251   7.039   8.805  0.3248 -0.1402 -0.1493
   82loPI   C5A 1307   5.414   7.182   8.441  0.0843 -0.0315  0.2580
   82loPI   C6A 1308   5.504   7.603   8.316 -0.0423  0.2222 -0.0139
   82loPI   C1B 1309   4.894   6.685   9.887 -0.1186  0.1015 -0.1525
   82loPI   C2B 1310   4.917   6.680   9.437 -0.1351  0.2845  0.0055
   82loPI   C3B 1311   5.013   6.584   9.050 -0.0250  0.0779  0.1853
   82loPI   C4B 1312   5.102   6.485   8.665  0.1785 -0.0660 -0.0490
   83loPI    C1 1313  10.174  11.035  10.853  0.0418 -0.1342 -0.1262
   83loPI    C2 1314  10.562  11.026  10.949  0.0028 -0.2062  0.0279
   83loPI    C3 1315  10.320  11.291  11.124  0.0487  0.0750 -0.3248
   83loPI   PO4 1316  10.254  10.933  10.530  0.3333  0.0602 -0.1291
   83loPI   GL1 1317  10.380  11.214  10.194  0.1630  0.0094  0.1246
   83loPI   GL2 1318  10.460  10.948  10.060 -0.3220  0.0841 -0.0723
   83loPI   C1A 1319  10.175  11.175   9.744  0.0311  0.1786 -0.0472
   83loPI   C2A 1320  10.249  11.168   9.319  0.2627 -0.2557  0.1911
   83loPI   C3A 1321  10.288  11.272   8.922 -0.2056 -0.0087 -0.0500
   83loPI   C4A 1322  10.322  11.283   8.438 -0.1018  0.1506 -0.0395
   83loPI   C5A 1323  10.158  11.491   8.156  0.0563 -0.3656 -0.0039
   83loPI   C6A 1324   9.950  11.897   8.215  0.3531 -0.1814  0.3474
   83loPI   C1B 1325  10.469  10.739   9.594  0.0039 -0.3453 -0.2145
   83loPI   C2B 1326  10.472  10.708   9.176 -0.0351 -0.0037  0.0079
   83loPI   C3B 1327  10.594  10.741   8.769  0.4222  0.1572  0.0797
   83loPI   C4B 1328  10.578  10.712   8.349  0.2607  0.0931  0.1217
   84loPI    C1 1329  17.226   4.513  10.031 -0.1566 -0.2783  0.3543
   84loPI    C2 1330  17.469   4.482  10.347  0.0855 -0.0117  0.1997
   84loPI    C3 1331  17.500   4.221  10.046  0.1604  0.0037  0.1939
   84loPI   PO4 1332  17.194   4.803   9.935 -0.1998 -0.2924  0.2052
   84loPI   GL1 1333  17.336   4.973   9.601  0.2533  0.1066 -0.1184
   84loPI   GL2 1334  17.644   4.873   9.453  0.2456 -0.1301 -0.0940
   84loPI   C1A 1335  17.024   4.951   9.297 -0.4576 -0.2701  0.1581
   84loPI   C2A 1336  16.951   4.946   8.826  0.2698 -0.4987 -0.1375
   84loPI   C3A 1337  16.984   4.875   8.387  0.1533  0.0048  0.0855
   84loPI   C4A 1338  17.128   4.741   8.087 -0.0284  0.1584  0.1231
   84loPI   C5A 1339  17.149   4.375   7.682  0.2095 -0.2694 -0.3144
   84loPI   C6A 1340  17.492   4.169   7.536 -0.2359  0.3035 -0.1698
   84loPI   C1B 1341  17.553   5.001   8.928  0.1300  0.1055 -0.0442
   84loPI   C2B 1342  17.469   4.869   8.449  0.2242 -0.0328  0.1080
   84loPI   C3B 1343  17.592   4.905   8.011  0.0791 -0.2969 -0.4718
   84loPI   C4B 1344  17.523   4.845   7.605  0.2668  0.0566 -0.0963
   85loPI    C1 1345   3.346   6.068  10.825 -0.2283 -0.2728 -0.2178
   85loPI    C2 1346   3.664   6.232  10.648 -0.3201  0.0394 -0.1014
   85loPI    C3 1347   3.714   5.957  10.933 -0.1440  0.2874  0.1112
   85loPI   PO4 1348   3.096   5.988  10.660  0.0543  0.3019  0.0594
   85loPI   GL1 1349   2.981   6.164  10.209 -0.2407 -0.0099 -0.1501
   85loPI   GL2 1350   2.670   6.106  10.065  0.2896  0.0184 -0.1517
   85loPI   C1A 1351   3.175   6.088   9.853 -0.2240 -0.1116  0.1164
   85loPI   C2A 1352   3.160   6.140   9.457 -0.1341 -0.0824 -0.2634
   85loPI   C3A 1353   3.175   6.035   9.144 -0.0778 -0.1418 -0.0353
   85loPI   C4A 1354   3.126   6.079   8.732  0.0173  0.0213  0.0090
   85loPI   C5A 1355   3.129   6.124   8.343 -0.1891  0.2827 -0.0868
   85loPI   C6A 1356   3.412   6.443   8.046 -0.2510  0.4134 -0.1481
   85loPI   C1B 1357   2.702   6.138   9.726  0.3740 -0.2225  0.0716
   85loPI   C2B 1358   2.688   6.071   9.254 -0.1840 -0.3517  0.3926
   85loPI   C3B 1359   2.629   6.154   8.777  0.4507 -0.2050  0.2537
   85loPI   C4B 1360   2.604   6.203   8.361  0.2144  0.0624 -0.1723
   86loPI    C1 1361   4.314   1.216  10.238 -0.0987 -0.0562  0.0682
   86loPI    C2 1362   4.133   1.090  10.572  0.0294 -0.2169  0.0785
   86loPI    C3 1363   4.529   1.145  10.569  0.0043 -0.0345  0.0064
   86loPI   PO4 1364   4.205   1.332  10.138 -0.0206  0.0375 -0.0914
   86loPI   GL1 1365   4.285   1.432   9.742  0.0620 -0.2135  0.0281
   86loPI   GL2 1366   4.452   1.527   9.691  0.1273 -0.0894 -0.0149
   86loPI   C1A 1367   4.108   1.344   9.393 -0.0163 -0.2890  0.0838
   86loPI   C2A 1368   4.083   1.241   9.042 -0.1740  0.0395  0.0887
   86loPI   C3A 1369   4.140   1.249   8.547  0.1448 -0.2447  0.3364
   86loPI   C4A 1370   3.981   1.209   8.183  0.3189 -0.3897  0.2110
   86loPI   C5A 1371   3.634   1.283   8.120  0.0988 -0.0958 -0.1726
   86loPI   C6A 1372   3.205   1.440   8.094  0.1556 -0.4061  0.1687
   86loPI   C1B 1373   4.550   1.605   9.214 -0.0356 -0.1385  0.3066
   86loPI   C2B 1374   4.447   1.509   8.795  0.0273 -0.0101 -0.0113
   86loPI   C3B 1375   4.363   1.751   8.412 -0.3439 -0.0446  0.0902
   86loPI   C4B 1376   4.306   1.638   7.948  0.1191 -0.0482  0.1131
   87loPI    C1 1377   7.510  11.779  10.650 -0.1623  0.0593 -0.0116
   87loPI    C2 1378   7.524  11.881  11.037  0.0312  0.0096 -0.0046
   87loPI    C3 1379   7.802  11.638  10.884  0.0440  0.1522 -0.2106
   87loPI   PO4 1380   7.551  12.016  10.463  0.2546 -0.0210 -0.0255
   87loPI   GL1 1381   7.409  12.167  10.111  0.1159  0.3429 -0.3444
   87loPI   GL2 1382   7.373  11.869   9.852 -0.4713 -0.1558 -0.1281
   87loPI   C1A 1383   7.413  12.289   9.631 -0.4011  0.0889 -0.2739
   87loPI   C2A 1384   7.253  12.378   9.248  0.2343 -0.1938 -0.2541
   87loPI   C3A 1385   7.272  12.367   8.814 -0.3936 -0.0333 -0.1965
   87loPI   C4A 1386   7.593  12.631   8.484 -0.2701 -0.0407 -0.0303
   87loPI   C5A 1387   7.865  12.623   8.014 -0.1681  0.1114 -0.4001
   87loPI   C6A 1388   8.184  12.665   7.735 -0.1543 -0.0534 -0.2680
   87loPI   C1B 1389   7.337  11.869   9.341 -0.1039  0.1069 -0.0928
   87loPI   C2B 1390   7.408  11.827   8.869 -0.3502 -0.0671 -0.3601
   87loPI   C3B 1391   7.322  11.695   8.460 -0.0932  0.0854 -0.0131
   87loPI   C4B 1392   7.615  11.880   8.139 -0.0971 -0.1286  0.0646
   88loPI    C1 1393   2.498   0.465  10.678 -0.0022 -0.1713  0.0327
   88loPI    C2 1394   2.222   0.223  10.836  0.0495 -0.1649  0.1338
   88loPI    C3 1395   2.567   0.283  11.028  0.0757 -0.0856  0.0623
   88loPI   PO4 1396   2.523   0.426  10.395  0.2824 -0.2611 -0.3116
   88loPI   GL1 1397   2.566   0.231  10.045  0.0960 -0.1401 -0.1015
   88loPI   GL2 1398   2.353   0.038   9.809  0.0259  0.3172  0.2580
   88loPI   C1A 1399   2.898   0.263   9.746 -0.2350  0.1385  0.0978
   88loPI   C2A 1400   2.842   0.255   9.316 -0.3188  0.0116 -0.3004
   88loPI   C3A 1401   2.903   0.237   8.886  0.0054 -0.2760  0.0599
   88loPI   C4A 1402   2.884   0.264   8.440  0.2598 -0.1508 -0.2087
   88loPI   C5A 1403   2.674   0.228   8.056  0.4926  0.1137  0.1238
   88loPI   C6A 1404   2.798   0.274   7.620  0.1769 -0.1580 -0.1916
   88loPI   C1B 1405   2.482  -0.029   9.528 -0.1204  0.1223  0.0336
   88loPI   C2B 1406   2.515  -0.005   9.008  0.0000 -0.1263  0.0342
   88loPI   C3B 1407   2.471  -0.073   8.508 -0.3731  0.0685 -0.1063
   88loPI   C4B 1408   2.339  -0.168   8.097  0.1801  0.1866 -0.4168
   89loPI    C1 1409  18.048  18.271  10.644 -0.0642 -0.0094  0.1244
   89loPI    C2 1410  18.437  18.363  10.671 -0.0117 -0.1531 -0.1078
   89loPI    C3 1411  18.274  18.103  10.928 -0.0384  0.1722  0.2127
   89loPI   PO4 1412  18.066  18.279  10.403 -0.0963  0.0817 -0.1264
   89loPI   GL1 1413  17.991  18.350  10.021 -0.1924  0.2948  0.0621
   89loPI   GL2 1414  17.666  18.483  10.138  0.2485 -0.2608 -0.1443
   89loPI   C1A 1415  17.816  18.504   9.538  0.1869 -0.1236  0.0462
   89loPI   C2A 1416  17.641  18.390   9.125  0.3579 -0.1852 -0.0124
   89loPI   C3A 1417  17.614  18.303   8.716  0.1234 -0.3210 -0.1605
   89loPI   C4A 1418  17.536  18.133   8.318 -0.4022 -0.2998 -0.0325
   89loPI   C5A 1419  17.611  18.230   7.898  0.1296  0.2384  0.1699
   89loPI   C6A 1420  17.899  18.028   7.568 -0.0530  0.2493 -0.0567
   89loPI   C1B 1421  17.546  18.213   9.810 -0.0187  0.1435  0.3115
   89loPI   C2B 1422  17.554  18.000   9.422  0.0343  0.1896  0.0596
   89loPI   C3B 1423  17.664  17.847   9.040  0.1664  0.0657  0.2300
   89loPI   C4B 1424  17.546  17.727   8.631  0.0765  0.1167  0.0022
   90loPI    C1 1425  10.727   8.596  10.882  0.0572  0.1486  0.1926
   90loPI    C2 1426  11.031   8.347  10.807 -0.1933 -0.0877 -0.0612
   90loPI    C3 1427  10.962   8.470  11.181  0.0871 -0.1955  0.0288
   90loPI   PO4 1428  10.701   8.719  10.671  0.3341  0.1273  0.0971
   90loPI   GL1 1429  10.681   8.735  10.278 -0.0652  0.0365 -0.1131
   90loPI   GL2 1430  10.883   8.427  10.259  0.1859 -0.2488 -0.0712
   90loPI   C1A 1431  10.588   8.934   9.940 -0.0101 -0.1104  0.0750
   90loPI   C2A 1432  10.583   9.006   9.546  0.1996 -0.2932  0.3337
   90loPI   C3A 1433  10.650   8.928   9.152  0.0004  0.3467  0.2296
   90loPI   C4A 1434  10.570   8.951   8.786  0.1089  0.2824 -0.2117
   90loPI   C5A 1435  10.520   8.959   8.310 -0.2268 -0.0692 -0.4351
   90loPI   C6A 1436  10.473   9.087   7.800 -0.2154  0.1895  0.0749
   90loPI   C1B 1437  10.867   8.489   9.851 -0.4410  0.0629 -0.1254
   90loPI   C2B 1438  10.776   8.521   9.459  0.0465  0.3410 -0.0732
   90loPI   C3B 1439  10.836   8.504   8.977  0.0044  0.1111 -0.0894
   90loPI   C4B 1440  10.806   8.543   8.542  0.4385  0.2846  0.1605
   91loPI    C1 1441   6.965  17.989  10.275  0.2192  0.0623  0.1298
   91loPI    C2 1442   7.147  18.256  10.511  0.1860  0.0842  0.1306
   91loPI    C3 1443   6.879  18.002  10.665  0.3771 -0.0962  0.1712
   91loPI   PO4 1444   6.835  18.117  10.004 -0.1781 -0.0972 -0.1544
   91loPI   GL1 1445   6.997  18.187   9.588  0.1566 -0.2557  0.1274
   91loPI   GL2 1446   7.202  17.893   9.639  0.2781 -0.3514  0.2811
   91loPI   C1A 1447   7.024  18.327   9.188  0.0329 -0.1409 -0.1539
   91loPI   C2A 1448   6.941  18.300   8.789 -0.0042 -0.1311 -0.0300
   91loPI   C3A 1449   6.906  18.695   8.555 -0.0711 -0.0292 -0.0970
   91loPI   C4A 1450   6.925  18.857   8.105 -0.0874  0.0368 -0.3195
   91loPI   C5A 1451   7.127  19.127   7.767  0.2888 -0.1592  0.1202
   91loPI   C6A 1452   7.211  19.550   7.490 -0.0396 -0.0437  0.1188
   91loPI   C1B 1453   7.052  17.856   9.157  0.2268 -0.0342 -0.0259
   91loPI   C2B 1454   7.069  17.813   8.702  0.0746 -0.2518 -0.3210
   91loPI   C3B 1455   7.057  17.789   8.265 -0.0699  0.0490 -0.0371
   91loPI   C4B 1456   6.800  17.874   7.965 -0.0522  0.2796  0.1410
   92loPI    C1 1457  18.147  10.666  10.157 -0.0164 -0.2787  0.0397
   92loPI    C2 1458  18.174  10.639  10.555  0.3321  0.0075  0.0402
   92loPI    C3 1459  17.907  10.886  10.390  0.2559 -0.0368  0.0963
   92loPI   PO4 1460  18.112  10.439  10.064  0.1581  0.1500 -0.1787
   92loPI   GL1 1461  18.200  10.280   9.742  0.1808  0.1741 -0.3094
   92loPI   GL2 1462  18.118  10.587   9.568 -0.0717  0.0468 -0.3479
   92loPI   C1A 1463  18.268  10.186   9.303 -0.2203 -0.0206  0.0962
   92loPI   C2A 1464  18.285  10.262   8.838 -0.2656 -0.1037  0.0929
   92loPI   C3A 1465  18.265  10.216   8.354 -0.1495 -0.3217 -0.1003
   92loPI   C4A 1466  18.151  10.446   7.982 -0.1125  0.1758 -0.5143
   92loPI   C5A 1467  17.743  10.448   7.716  0.0547 -0.1820 -0.1530
   92loPI   C6A 1468  17.482  10.729   7.552  0.2653  0.3329 -0.1287
   92loPI   C1B 1469  18.021  10.634   9.064 -0.1919  0.1784 -0.0746
   92loPI   C2B 1470  18.015  10.686   8.619 -0.2418 -0.1508  0.1255
   92loPI   C3B 1471  17.922  10.883   8.162 -0.0390 -0.0503 -0.0074
   92loPI   C4B 1472  17.792  11.050   7.831 -0.1376 -0.1184 -0.0726
   93loPI    C1 1473  10.996  11.384  10.984 -0.0719 -0.3969 -0.0121
   93loPI    C2 1474  11.217  11.201  11.263  0.1116 -0.0603  0.0686
   93loPI    C3 1475  11.083  11.573  11.326 -0.0050 -0.0519 -0.2144
   93loPI   PO4 1476  11.124  11.340  10.787  0.0620  0.3612  0.4668
   93loPI   GL1 1477  11.347  11.227  10.407 -0.1411  0.2707 -0.1430
   93loPI   GL2 1478  11.447  11.470  10.301 -0.1661  0.0964 -0.4091
   93loPI   C1A 1479  11.324  11.079  10.039 -0.2222 -0.2603 -0.0029
   93loPI   C2A 1480  11.267  11.154   9.561 -0.0472 -0.0045  0.2001
   93loPI   C3A 1481  11.300  11.165   9.189  0.0095  0.1663 -0.2771
   93loPI   C4A 1482  11.357  11.190   8.780 -0.2006  0.2338 -0.0083
   93loPI   C5A 1483  11.484  11.226   8.324  0.2779  0.2264 -0.2133
   93loPI   C6A 1484  11.516  11.416   7.863 -0.4009 -0.0523  0.0088
   93loPI   C1B 1485  11.514  11.646   9.903  0.0190 -0.1198 -0.1091
   93loPI   C2B 1486  11.558  11.695   9.489 -0.1470  0.0108 -0.3221
   93loPI   C3B 1487  11.584  11.687   9.055 -0.1312 -0.1184  0.0566
   93loPI   C4B 1488  11.743  11.776   8.641  0.1784  0.0801  0.0943
   94loPI    C1 1489  14.839  11.943  10.708  0.2267 -0.0767  0.0241
   94loPI    C2 1490  14.608  11.664  10.878  0.0092  0.0830 -0.0070
   94loPI    C3 1491  14.960  11.758  11.042  0.0326 -0.1281  0.0670
   94loPI   PO4 1492  14.681  11.971  10.450  0.1207 -0.4309  0.0410
   94loPI   GL1 1493  14.403  12.210  10.211  0.0042 -0.0483 -0.0555
   94loPI   GL2 1494  14.201  11.925  10.074  0.0311 -0.1201  0.0022
   94loPI   C1A 1495  14.552  12.182   9.852 -0.1064  0.1023  0.2479
   94loPI   C2A 1496  14.417  12.194   9.516  0.2303  0.1337 -0.2539
   94loPI   C3A 1497  14.479  12.256   9.149 -0.1609 -0.1884 -0.1371
   94loPI   C4A 1498  14.546  12.325   8.708 -0.0866  0.0824  0.3383
   94loPI   C5A 1499  14.577  12.286   8.322 -0.3829  0.2350  0.0191
   94loPI   C6A 1500  14.836  12.551   8.076 -0.0449  0.1134  0.0435
   94loPI   C1B 1501  14.046  11.964   9.655  0.3762  0.1514 -0.0672
   94loPI   C2B 1502  14.020  11.903   9.265  0.0202 -0.1042 -0.1813
   94loPI   C3B 1503  14.055  11.661   8.999 -0.3823  0.0889 -0.2963
   94loPI   C4B 1504  14.152  11.524   8.612 -0.1623 -0.0261  0.1501
   95loPI    C1 1505   0.245  11.837  10.661  0.0283  0.0692  0.2429
   95loPI    C2 1506   0.642  11.787  10.662  0.0346  0.0699 -0.2374
   95loPI    C3 1507   0.487  12.152  10.612 -0.0308  0.1195  0.2737
   95loPI   PO4 1508   0.104  11.666  10.480 -0.0812 -0.0549 -0.0254
   95loPI   GL1 1509   0.021  11.738  10.033  0.0354 -0.1675  0.2667
   95loPI   GL2 1510   0.187  11.518   9.997  0.1573  0.0844 -0.1067
   95loPI   C1A 1511   0.089  11.825   9.601  0.1834 -0.1194  0.0444
   95loPI   C2A 1512  -0.045  11.904   9.163  0.0891  0.0846  0.1297
   95loPI   C3A 1513  -0.063  12.014   8.810 -0.2439 -0.0496  0.4318
   95loPI   C4A 1514   0.147  12.053   8.420  0.1224 -0.0161 -0.1560
   95loPI   C5A 1515   0.173  12.085   8.009 -0.1662  0.1770 -0.1467
   95loPI   C6A 1516   0.421  12.347   7.766 -0.1423 -0.1551  0.0251
   95loPI   C1B 1517   0.256  11.324   9.580  0.0263  0.1446  0.1768
   95loPI   C2B 1518   0.183  11.376   9.180  0.4688  0.1769  0.1154
   95loPI   C3B 1519   0.158  11.587   8.810 -0.1676 -0.1037  0.0244
   95loPI   C4B 1520   0.264  11.548   8.380  0.2905  0.1387 -0.0069
   96loPI    C1 1521  11.463   8.121  10.933 -0.1950 -0.0598  0.1100
   96loPI    C2 1522  11.497   8.405  11.212  0.0843  0.0521 -0.0331
   96loPI    C3 1523  11.365   8.040  11.312  0.4046  0.0194  0.2924
   96loPI   PO4 1524  11.617   8.070  10.884 -0.1880 -0.1731 -0.2140
   96loPI   GL1 1525  11.801   7.888  10.520 -0.0181 -0.1995  0.0407
   96loPI   GL2 1526  11.984   7.735  10.375 -0.2335  0.0103 -0.1840
   96loPI   C1A 1527  11.674   8.048  10.096 -0.1525 -0.0054 -0.2783
   96loPI   C2A 1528  11.628   8.024   9.644 -0.1272  0.3491 -0.1247
   96loPI   C3A 1529  11.652   8.119   9.189 -0.2762 -0.0450 -0.0063
   96loPI   C4A 1530  11.543   8.133   8.782  0.0520  0.3223 -0.3356
   96loPI   C5A 1531  11.487   8.238   8.305 -0.2676  0.1750  0.0439
   96loPI   C6A 1532  11.515   7.850   8.017 -0.0984  0.2764  0.1906
   96loPI   C1B 1533  11.984   7.638   9.963 -0.0158 -0.2120  0.0755
   96loPI   C2B 1534  11.836   7.577   9.518  0.3870 -0.0053 -0.1496
   96loPI   C3B 1535  11.863   7.564   9.019 -0.1428  0.3705  0.2153
   96loPI   C4B 1536  11.808   7.612   8.572 -0.0592 -0.0293 -0.1867
   97loPI    C1 1537   8.570  16.379  11.105  0.0408 -0.2680  0.3413
   97loPI    C2 1538   8.224  16.529  11.238  0.0259 -0.0306  0.0442
   97loPI    C3 1539   8.567  16.622  11.423 -0.0437 -0.0830  0.2008
   97loPI   PO4 1540   8.425  16.135  10.946 -0.0909 -0.1901  0.3771
   97loPI   GL1 1541   8.347  15.996  10.549 -0.0171  0.1796  0.3116
   97loPI   GL2 1542   8.144  15.759  10.517 -0.0072  0.1075 -0.2387
   97loPI   C1A 1543   8.612  16.132  10.212  0.0910  0.0497  0.0599
   97loPI   C2A 1544   8.664  16.229   9.697  0.0145 -0.3123  0.0475
   97loPI   C3A 1545   8.751  16.223   9.358  0.1082 -0.1244 -0.0396
   97loPI   C4A 1546   8.634  16.253   9.093 -0.1465  0.0099  0.3053
   97loPI   C5A 1547   8.769  16.199   8.661 -0.0978  0.0963 -0.0504
   97loPI   C6A 1548   8.836  16.062   8.189  0.2305 -0.5133  0.3772
   97loPI   C1B 1549   8.265  15.762  10.059  0.1953 -0.4045 -0.2070
   97loPI   C2B 1550   8.265  15.884   9.574  0.2503  0.2840  0.1819
   97loPI   C3B 1551   8.204  15.908   9.111 -0.0314  0.1827  0.0230
   97loPI   C4B 1552   8.293  15.898   8.629 -0.2404 -0.4164  0.0078
   98loPI    C1 1553   3.997  13.843  10.838  0.1059  0.1155 -0.0456
   98loPI    C2 1554   3.620  13.838  10.972  0.1491 -0.0207  0.0729
   98loPI    C3 1555   3.925  13.859  11.231  0.2240  0.0692 -0.0216
   98loPI   PO4 1556   3.923  13.660  10.582 -0.0542  0.2184  0.0898
   98loPI   GL1 1557   3.772  13.782  10.189 -0.1891  0.2122  0.0194
   98loPI   GL2 1558   4.087  13.903  10.133  0.0375 -0.0304 -0.2492
   98loPI   C1A 1559   3.921  13.443   9.992 -0.0807 -0.1244 -0.1251
   98loPI   C2A 1560   4.099  13.207   9.564 -0.6181 -0.2730  0.4615
   98loPI   C3A 1561   4.075  13.171   9.123  0.0406  0.1272  0.0694
   98loPI   C4A 1562   3.936  13.231   8.625 -0.0042 -0.2914 -0.2324
   98loPI   C5A 1563   3.669  13.181   8.245  0.2240  0.0067 -0.1073
   98loPI   C6A 1564   3.426  13.161   7.758  0.1524 -0.0190 -0.0087
   98loPI   C1B 1565   3.936  13.868   9.657 -0.2423  0.1676  0.0134
   98loPI   C2B 1566   3.978  13.820   9.147 -0.1205  0.0225 -0.0399
   98loPI   C3B 1567   3.913  13.771   8.722 -0.2138 -0.0939  0.0039
   98loPI   C4B 1568   3.955  13.718   8.260 -0.0109 -0.2032 -0.0987
   99loPI    C1 1569   5.243  13.590  10.770 -0.2003 -0.1045  0.1620
   99loPI    C2 1570   5.563  13.568  11.010 -0.1463  0.0644  0.1068
   99loPI    C3 1571   5.260  13.311  11.056  0.0796 -0.2185  0.0385
   99loPI   PO4 1572   5.268  13.627  10.524  0.0547  0.0329 -0.0063
   99loPI   GL1 1573   5.360  13.828  10.221 -0.0119  0.2649  0.3124
   99loPI   GL2 1574   5.129  13.986  10.216 -0.3345 -0.3816 -0.1104
   99loPI   C1A 1575   5.273  13.733   9.755 -0.0099 -0.0641 -0.0569
   99loPI   C2A 1576   5.299  13.744   9.387  0.0875  0.0082 -0.6082
   99loPI   C3A 1577   5.370  13.711   8.964 -0.0443 -0.1271 -0.2900
   99loPI   C4A 1578   5.287  13.724   8.535 -0.1666 -0.2813 -0.1223
   99loPI   C5A 1579   5.350  13.644   8.065 -0.2828 -0.0213 -0.3656
   99loPI   C6A 1580   5.301  13.552   7.617  0.0730 -0.0964 -0.0370
   99loPI   C1B 1581   5.146  14.199   9.771 -0.2835 -0.0139 -0.1712
   99loPI   C2B 1582   5.186  14.296   9.366  0.0166  0.0008  0.2480
   99loPI   C3B 1583   5.208  14.226   8.930 -0.0692  0.0848  0.0277
   99loPI   C4B 1584   5.150  14.224   8.439 -0.2942  0.1819  0.0884
  100loPI    C1 1585   7.081   8.340  11.109  0.2142 -0.1204 -0.1955
  100loPI    C2 1586   7.289   8.033  11.259 -0.1838 -0.2833  0.0383
  100loPI    C3 1587   7.093   8.281  11.504 -0.0788  0.0059 -0.1650
  100loPI   PO4 1588   7.175   8.425  10.890 -0.1281  0.1591 -0.1197
  100loPI   GL1 1589   6.948   8.552  10.551 -0.0429 -0.4766  0.0786
  100loPI   GL2 1590   7.147   8.836  10.455 -0.4197  0.2552 -0.0359
  100loPI   C1A 1591   6.723   8.890  10.259  0.0800  0.2363 -0.0282
  100loPI   C2A 1592   6.837   8.979   9.935 -0.1220 -0.3078 -0.2031
  100loPI   C3A 1593   6.866   8.848   9.524  0.0237 -0.1398  0.0589
  100loPI   C4A 1594   6.925   8.765   8.992 -0.1566 -0.1422 -0.2882
  100loPI   C5A 1595   6.825   8.438   8.745 -0.0251  0.1561  0.0494
  100loPI   C6A 1596   7.048   8.149   8.493  0.2425  0.2112  0.0090
  100loPI   C1B 1597   7.152   8.587  10.114  0.1921 -0.1428 -0.4563
  100loPI   C2B 1598   7.134   8.430   9.711  0.1881 -0.2069  0.1844
  100loPI   C3B 1599   7.195   8.458   9.281  0.1675  0.0508  0.0488
  100loPI   C4B 1600   7.319   8.406   8.839  0.1402 -0.0063  0.0396
  101loPI    C1 1601   9.468   7.342  10.753  0.3259 -0.1554  0.0469
  101loPI    C2 1602   9.569   7.402  11.135  0.0727 -0.1293  0.1112
  101loPI    C3 1603   9.299   7.123  11.041 -0.0191  0.0052 -0.0292
  101loPI   PO4 1604   9.330   7.549  10.648  0.0765  0.1421  0.0801
  101loPI   GL1 1605   9.380   7.611  10.162 -0.4835  0.1822  0.2035
  101loPI   GL2 1606   9.589   7.401  10.255 -0.2177 -0.0309  0.0651
  101loPI   C1A 1607   9.286   7.641   9.666 -0.4379  0.2203 -0.0680
  101loPI   C2A 1608   9.226   7.603   9.309 -0.2092  0.1008  0.1174
  101loPI   C3A 1609   9.245   7.594   8.894 -0.1646 -0.0726 -0.2907
  101loPI   C4A 1610   9.283   7.649   8.422  0.0252  0.0711 -0.1339
  101loPI   C5A 1611   9.108   7.427   8.048 -0.0255  0.2060 -0.1279
  101loPI   C6A 1612   8.728   7.129   8.072 -0.1087  0.1561 -0.1281
  101loPI   C1B 1613   9.571   7.157   9.958 -0.0259  0.4637 -0.0748
  101loPI   C2B 1614   9.549   7.162   9.506  0.0195 -0.3551  0.0312
  101loPI   C3B 1615   9.476   7.164   9.141  0.0912 -0.1687  0.2051
  101loPI   C4B 1616   9.512   7.158   8.663 -0.0037 -0.0946 -0.3831
  102loPI    C1 1617   3.192   3.346  10.597  0.1018 -0.0620 -0.0245
  102loPI    C2 1618   3.152   2.949  10.617 -0.2595 -0.0246  0.0793
  102loPI    C3 1619   2.932   3.184  10.854  0.0576  0.2353  0.1235
  102loPI   PO4 1620   3.236   3.364  10.394 -0.1421  0.5086  0.0296
  102loPI   GL1 1621   3.140   3.169  10.071 -0.1310  0.0006 -0.5077
  102loPI   GL2 1622   2.898   3.177   9.871 -0.2874 -0.1558  0.0514
  102loPI   C1A 1623   3.245   3.341   9.588 -0.0435  0.3528 -0.1252
  102loPI   C2A 1624   3.326   3.453   9.201 -0.0160 -0.0134  0.0459
  102loPI   C3A 1625   3.212   3.555   8.660  0.0107 -0.0270  0.1085
  102loPI   C4A 1626   3.279   3.438   8.251 -0.1556 -0.1812 -0.1582
  102loPI   C5A 1627   3.418   3.670   7.838 -0.2803  0.0783 -0.0437
  102loPI   C6A 1628   3.588   4.048   7.780 -0.2970  0.0935  0.0204
  102loPI   C1B 1629   2.830   3.274   9.299 -0.2209 -0.0276  0.1083
  102loPI   C2B 1630   2.785   3.471   8.892 -0.1041 -0.1312  0.2888
  102loPI   C3B 1631   2.760   3.425   8.420 -0.0687  0.0506  0.2513
  102loPI   C4B 1632   2.809   3.310   7.927 -0.2155  0.0903 -0.1911
  103loPI    C1 1633  11.979   2.402  10.287  0.0143  0.0654  0.0825
  103loPI    C2 1634  11.736   2.627  10.510 -0.2258 -0.0652 -0.0435
  103loPI    C3 1635  11.831   2.257  10.629  0.0113  0.0294  0.0660
  103loPI   PO4 1636  11.907   2.395   9.985  0.1395 -0.3266  0.0658
  103loPI   GL1 1637  11.631   2.471   9.673 -0.2045 -0.3103  0.0506
  103loPI   GL2 1638  11.389   2.311   9.783 -0.2573 -0.0864  0.0137
  103loPI   C1A 1639  11.700   2.521   9.294  0.1796 -0.0443 -0.0067
  103loPI   C2A 1640  11.733   2.451   8.800 -0.4047  0.1854 -0.1019
  103loPI   C3A 1641  11.805   2.584   8.504 -0.1052 -0.1416 -0.1701
  103loPI   C4A 1642  11.975   2.514   8.080  0.3867 -0.0657 -0.1160
  103loPI   C5A 1643  12.083   2.872   7.756 -0.1893  0.1675  0.0468
  103loPI   C6A 1644  11.894   3.123   7.513 -0.0462  0.0699  0.0644
  103loPI   C1B 1645  11.327   2.227   9.400 -0.2615  0.2402 -0.2003
  103loPI   C2B 1646  11.340   2.184   9.057 -0.0344  0.0117  0.0357
  103loPI   C3B 1647  11.299   2.185   8.654  0.1442 -0.1126  0.1447
  103loPI   C4B 1648  11.476   2.280   8.198 -0.1369 -0.1179  0.3546
  104loPI    C1 1649  16.089   3.639  10.409 -0.1103 -0.0829 -0.0420
  104loPI    C2 1650  15.763   3.609  10.640  0.0637 -0.0063  0.2175
  104loPI    C3 1651  16.059   3.857  10.743  0.2213 -0.1023  0.0029
  104loPI   PO4 1652  15.966   3.602  10.126  0.3956  0.1722 -0.1606
  104loPI   GL1 1653  15.998   3.110   9.859  0.1588  0.0379  0.1344
  104loPI   GL2 1654  16.032   2.854   9.791  0.0552 -0.1650  0.0873
  104loPI   C1A 1655  15.786   3.123   9.432  0.0299 -0.0742  0.2276
  104loPI   C2A 1656  15.840   3.092   8.988 -0.1626  0.1925  0.0681
  104loPI   C3A 1657  15.801   3.164   8.587  0.0221  0.1118  0.1668
  104loPI   C4A 1658  15.895   3.088   8.171  0.0006 -0.2273 -0.0238
  104loPI   C5A 1659  16.025   2.960   7.689 -0.1098 -0.1891 -0.0579
  104loPI   C6A 1660  16.465   2.688   7.594  0.0027 -0.3226  0.0138
  104loPI   C1B 1661  15.930   2.619   9.391  0.1466 -0.1536  0.1787
  104loPI   C2B 1662  15.912   2.591   8.841  0.4663  0.2523 -0.2189
  104loPI   C3B 1663  15.822   2.663   8.439  0.1108 -0.1674 -0.2524
  104loPI   C4B 1664  15.902   2.626   8.037  0.0533  0.2704 -0.0025
  105loPI    C1 1665   2.506  12.955  10.566 -0.0504 -0.1689 -0.1090
  105loPI    C2 1666   2.266  13.226  10.395 -0.1106 -0.0015  0.2331
  105loPI    C3 1667   2.157  12.841  10.407 -0.0806 -0.0254 -0.1463
  105loPI   PO4 1668   2.804  12.916  10.420 -0.2716 -0.0333  0.0987
  105loPI   GL1 1669   2.733  12.732  10.040 -0.0974 -0.2640  0.1306
  105loPI   GL2 1670   2.451  12.939  10.000  0.1741 -0.0736 -0.3226
  105loPI   C1A 1671   2.720  12.823   9.593 -0.0802 -0.0813  0.0229
  105loPI   C2A 1672   2.743  12.839   9.152 -0.1499  0.3093  0.0256
  105loPI   C3A 1673   2.700  12.927   8.673  0.0652  0.0294 -0.0825
  105loPI   C4A 1674   2.764  12.954   8.264  0.0533 -0.0241 -0.1408
  105loPI   C5A 1675   2.440  13.135   7.956  0.0197  0.1451 -0.0281
  105loPI   C6A 1676   2.423  13.382   7.594  0.0160  0.2180  0.1430
  105loPI   C1B 1677   2.283  13.048   9.587  0.1809  0.1918 -0.2466
  105loPI   C2B 1678   2.272  12.998   9.170  0.1335  0.1589 -0.2373
  105loPI   C3B 1679   2.203  13.079   8.806 -0.7658  0.0732  0.2509
  105loPI   C4B 1680   2.305  13.081   8.448  0.0476  0.1849 -0.1449
  106loPI    C1 1681   6.179   2.668  10.457 -0.2044 -0.1468  0.1059
  106loPI    C2 1682   6.507   2.804  10.640 -0.1469 -0.0310 -0.0799
  106loPI    C3 1683   6.148   2.945  10.744 -0.1105  0.0699 -0.0897
  106loPI   PO4 1684   6.117   2.668  10.144  0.0934 -0.0395 -0.3211
  106loPI   GL1 1685   6.052   2.842   9.835  0.1294  0.0078 -0.0263
  106loPI   GL2 1686   6.321   3.052   9.811  0.1678  0.2733 -0.1716
  106loPI   C1A 1687   5.865   3.051   9.567 -0.1622  0.1513 -0.1489
  106loPI   C2A 1688   5.728   3.050   9.141  0.4166  0.1177  0.1481
  106loPI   C3A 1689   5.691   3.007   8.726  0.0267  0.0495  0.1298
  106loPI   C4A 1690   5.785   2.976   8.304  0.1384 -0.0469 -0.2783
  106loPI   C5A 1691   5.851   3.120   7.962 -0.0002 -0.0219 -0.2332
  106loPI   C6A 1692   6.138   3.313   7.778 -0.2628  0.2976  0.0969
  106loPI   C1B 1693   6.336   3.036   9.390 -0.1912 -0.2145 -0.1299
  106loPI   C2B 1694   6.245   3.062   8.995  0.1200 -0.3649  0.3277
  106loPI   C3B 1695   6.252   3.026   8.548  0.3078  0.2790 -0.1611
  106loPI   C4B 1696   6.265   2.960   8.188 -0.0205  0.0728 -0.4859
  107loPI    C1 1697  17.519   6.757  10.699  0.2211  0.0847 -0.3992
  107loPI    C2 1698  17.827   6.986  10.813  0.2231 -0.0686 -0.0853
  107loPI    C3 1699  17.848   6.589  10.853 -0.0063 -0.0820 -0.0825
  107loPI   PO4 1700  17.406   6.891  10.494 -0.1316 -0.0979  0.1358
  107loPI   GL1 1701  17.401   6.714  10.100 -0.0826 -0.1908  0.2400
  107loPI   GL2 1702  17.721   6.642   9.981 -0.1696 -0.2832  0.1639
  107loPI   C1A 1703  17.059   6.689   9.773 -0.0969  0.2281 -0.1247
  107loPI   C2A 1704  17.036   6.707   9.382 -0.1590  0.0235 -0.4659
  107loPI   C3A 1705  16.981   6.700   9.014  0.4160 -0.0519 -0.0736
  107loPI   C4A 1706  17.067   6.636   8.625 -0.1479 -0.1783 -0.1710
  107loPI   C5A 1707  17.145   6.675   8.224 -0.1872  0.1872  0.0859
  107loPI   C6A 1708  17.262   6.854   7.837 -0.0966 -0.2074 -0.4553
  107loPI   C1B 1709  17.579   6.651   9.532  0.0802 -0.1654 -0.1023
  107loPI   C2B 1710  17.532   6.718   9.109 -0.1485 -0.0997  0.1110
  107loPI   C3B 1711  17.607   6.673   8.703  0.2670 -0.3193  0.0303
  107loPI   C4B 1712  17.634   6.831   8.327  0.0860 -0.1372 -0.0572
  108loPI    C1 1713   2.339   9.716  10.661 -0.2409 -0.1460  0.0120
  108loPI    C2 1714   2.044   9.674  10.928  0.0431 -0.1839  0.3258
  108loPI    C3 1715   2.284   9.993  10.945 -0.2213  0.0519 -0.1750
  108loPI   PO4 1716   2.204   9.722  10.438 -0.0445 -0.1084  0.1112
  108loPI   GL1 1717   2.094   9.805  10.043  0.0998 -0.1326 -0.4293
  108loPI   GL2 1718   1.968  10.141  10.064 -0.3137  0.1086 -0.2694
  108loPI   C1A 1719   1.933   9.512   9.739 -0.2045  0.1371  0.2052
  108loPI   C2A 1720   1.941   9.283   9.355  0.0411 -0.1416 -0.2722
  108loPI   C3A 1721   1.907   9.406   8.905  0.1143 -0.1195 -0.1770
  108loPI   C4A 1722   2.021   9.391   8.399 -0.0652 -0.1420 -0.1470
  108loPI   C5A 1723   2.216   9.434   7.962  0.3074  0.0215  0.0558
  108loPI   C6A 1724   2.492   9.700   7.785  0.0635 -0.1707 -0.0970
  108loPI   C1B 1725   1.892  10.264   9.720 -0.1453 -0.0220  0.0397
  108loPI   C2B 1726   1.977  10.258   9.345 -0.1144 -0.2798 -0.1518
  108loPI   C3B 1727   2.003  10.234   8.881  0.0460  0.0706  0.0925
  108loPI   C4B 1728   1.917  10.239   8.474 -0.1033  0.1139  0.1570
  109loPI    C1 1729  14.658   8.782  10.597  0.1280 -0.1768 -0.2119
  109loPI    C2 1730  14.431   8.655  10.900  0.0487  0.1822 -0.1169
  109loPI    C3 1731  14.608   8.390  10.659  0.0367 -0.1062  0.1845
  109loPI   PO4 1732  14.525   8.994  10.523  0.2052  0.0997  0.0860
  109loPI   GL1 1733  14.558   9.074  10.150 -0.1820  0.2973  0.0184
  109loPI   GL2 1734  14.931   9.010  10.071 -0.0892  0.1014  0.0448
  109loPI   C1A 1735  14.224   9.002   9.837 -0.0206 -0.0989 -0.2307
  109loPI   C2A 1736  14.145   8.959   9.340 -0.1235  0.0065 -0.1710
  109loPI   C3A 1737  14.200   8.988   8.932 -0.0425 -0.0330  0.1849
  109loPI   C4A 1738  14.309   9.058   8.486 -0.0085 -0.2615  0.0259
  109loPI   C5A 1739  14.319   9.467   8.230  0.0801 -0.1107 -0.0848
  109loPI   C6A 1740  14.546   9.833   8.142  0.1432 -0.2177  0.0977
  109loPI   C1B 1741  14.741   8.927   9.611 -0.3917 -0.0360  0.1841
  109loPI   C2B 1742  14.716   8.933   9.164  0.2042 -0.1505  0.1513
  109loPI   C3B 1743  14.790   8.991   8.724 -0.1351  0.0281  0.0304
  109loPI   C4B 1744  14.777   9.120   8.336  0.0848  0.1295 -0.3750
  110loPI    C1 1745  15.608   1.883  10.727  0.0117 -0.2463  0.0282
  110loPI    C2 1746  15.748   2.152  10.987 -0.1542  0.0068 -0.1388
  110loPI    C3 1747  15.500   1.863  11.111 -0.2248  0.1201 -0.0138
  110loPI   PO4 1748  15.596   2.044  10.503 -0.0599 -0.0956  0.3763
  110loPI   GL1 1749  15.745   1.967  10.112 -0.2597  0.1337  0.0802
  110loPI   GL2 1750  16.028   1.859  10.043 -0.0575 -0.0351  0.3168
  110loPI   C1A 1751  15.557   1.769   9.757 -0.0006  0.1328  0.1231
  110loPI   C2A 1752  15.493   1.734   9.313  0.1269  0.4257  0.0328
  110loPI   C3A 1753  15.501   1.728   8.864  0.0520  0.1487 -0.1751
  110loPI   C4A 1754  15.462   1.862   8.458 -0.3339 -0.0355  0.0404
  110loPI   C5A 1755  15.334   1.886   8.041  0.1995 -0.2092 -0.1207
  110loPI   C6A 1756  15.645   2.249   7.748 -0.2477  0.1389  0.1873
  110loPI   C1B 1757  16.023   1.571   9.838 -0.0220  0.0519  0.4097
  110loPI   C2B 1758  15.945   1.644   9.498  0.2738 -0.0724  0.0538
  110loPI   C3B 1759  15.925   1.619   9.119  0.0150  0.0798  0.2769
  110loPI   C4B 1760  16.024   1.614   8.711  0.0871 -0.2377  0.1204
  111loPI    C1 1761   8.124  11.192  10.811  0.1034 -0.0799  0.1682
  111loPI    C2 1762   7.949  10.918  11.043 -0.0435 -0.0856  0.0523
  111loPI    C3 1763   7.989  11.294  11.173 -0.2661 -0.0520  0.0270
  111loPI   PO4 1764   8.075  11.289  10.650 -0.0740 -0.0266 -0.1702
  111loPI   GL1 1765   7.955  11.339  10.272 -0.2750  0.0603 -0.4116
  111loPI   GL2 1766   7.874  11.619  10.371 -0.1633 -0.2647  0.3417
  111loPI   C1A 1767   8.031  11.225   9.923  0.0257 -0.2228  0.2474
  111loPI   C2A 1768   8.044  11.075   9.509  0.1144  0.1189 -0.2098
  111loPI   C3A 1769   7.911  11.134   9.084  0.1482 -0.2913 -0.2562
  111loPI   C4A 1770   7.903  11.139   8.645 -0.1040  0.0946  0.0104
  111loPI   C5A 1771   8.097  11.005   8.412  0.3422  0.2702 -0.5703
  111loPI   C6A 1772   8.274  10.803   8.114 -0.1231  0.4943  0.3688
  111loPI   C1B 1773   7.827  11.684   9.912 -0.1156  0.0235 -0.0158
  111loPI   C2B 1774   7.824  11.999   9.562  0.1790  0.1010 -0.0371
  111loPI   C3B 1775   7.713  12.167   9.138  0.2370  0.1441  0.0624
  111loPI   C4B 1776   7.750  12.221   8.673  0.1003 -0.0783  0.1166
  112loPI    C1 1777   7.144   9.378  11.155 -0.0144  0.0736  0.1258
  112loPI    C2 1778   7.500   9.539  11.242 -0.0139  0.1905 -0.0855
  112loPI    C3 1779   7.213   9.523  11.521  0.1277  0.1739  0.0603
  112loPI   PO4 1780   7.086   9.501  10.865  0.2843  0.1269  0.2944
  112loPI   GL1 1781   7.011   9.356  10.365  0.2302 -0.0223 -0.0026
  112loPI   GL2 1782   7.313   9.205  10.255  0.1760 -0.0891 -0.0715
  112loPI   C1A 1783   7.018   9.429   9.897 -0.0818  0.1654  0.2100
  112loPI   C2A 1784   7.167   9.414   9.471  0.2218  0.0397 -0.0495
  112loPI   C3A 1785   7.135   9.270   9.086 -0.1959 -0.0458  0.0785
  112loPI   C4A 1786   6.992   9.384   8.749  0.1665  0.0546  0.0507
  112loPI   C5A 1787   7.242   9.567   8.433 -0.1327 -0.1154  0.2695
  112loPI   C6A 1788   7.537   9.855   8.415 -0.1870 -0.3074  0.0041
  112loPI   C1B 1789   7.400   9.002   9.818  0.1393  0.1091 -0.2073
  112loPI   C2B 1790   7.370   8.926   9.373 -0.2206  0.0729 -0.1776
  112loPI   C3B 1791   7.474   8.876   8.934  0.0759  0.1201 -0.1577
  112loPI   C4B 1792   7.233   8.970   8.490 -0.2210 -0.1212  0.0823
  113loPI    C1 1793   0.192   3.833  10.077 -0.1846  0.1631 -0.0464
  113loPI    C2 1794   0.195   3.698  10.453 -0.0036 -0.0450 -0.1208
  113loPI    C3 1795   0.425   4.009  10.350  0.1887 -0.1883 -0.1296
  113loPI   PO4 1796  -0.042   3.912   9.998 -0.1747 -0.3522 -0.1769
  113loPI   GL1 1797  -0.307   3.818   9.623 -0.2539  0.1681 -0.2223
  113loPI   GL2 1798  -0.092   3.611   9.494  0.1580 -0.0442  0.1116
  113loPI   C1A 1799  -0.227   3.995   9.210 -0.1001 -0.1777 -0.1077
  113loPI   C2A 1800  -0.309   4.037   8.811 -0.1253  0.1327 -0.0853
  113loPI   C3A 1801  -0.309   3.952   8.458  0.0751 -0.0575 -0.1721
  113loPI   C4A 1802  -0.308   3.990   8.156 -0.0228  0.0319 -0.0213
  113loPI   C5A 1803  -0.426   3.862   7.732  0.3361 -0.2024  0.0999
  113loPI   C6A 1804  -0.508   3.798   7.350  0.1797 -0.1110  0.1455
  113loPI   C1B 1805  -0.115   3.515   9.109  0.2268  0.1545 -0.4768
  113loPI   C2B 1806  -0.101   3.620   8.749  0.0105  0.1340  0.2239
  113loPI   C3B 1807  -0.026   3.566   8.328 -0.0761 -0.5063 -0.0491
  113loPI   C4B 1808  -0.082   3.586   7.903 -0.1083  0.0368  0.3197
  114loPI    C1 1809  10.450  12.499  10.675  0.0370 -0.0589 -0.0833
  114loPI    C2 1810  10.241  12.510  10.334 -0.0688  0.1661 -0.0128
  114loPI    C3 1811  10.053  12.454  10.683 -0.0135  0.3644  0.0507
  114loPI   PO4 1812  10.674  12.630  10.635 -0.1131 -0.2300  0.1515
  114loPI   GL1 1813  10.658  12.819  10.244  0.0676  0.0082  0.1024
  114loPI   GL2 1814  10.977  12.738  10.128 -0.0230 -0.1060 -0.2025
  114loPI   C1A 1815  10.476  12.581   9.906  0.1132  0.3503  0.0139
  114loPI   C2A 1816  10.464  12.655   9.442 -0.2339 -0.0851  0.1024
  114loPI   C3A 1817  10.464  12.616   8.938 -0.4551  0.1718  0.1260
  114loPI   C4A 1818  10.426  12.512   8.483 -0.1315  0.0010  0.6141
  114loPI   C5A 1819  10.712  12.696   8.117 -0.3030  0.2749  0.0613
  114loPI   C6A 1820  10.898  12.826   7.794 -0.1785 -0.1659  0.1616
  114loPI   C1B 1821  10.947  12.858   9.716  0.0907  0.2554 -0.1218
  114loPI   C2B 1822  10.889  12.958   9.203  0.0687 -0.0759  0.0490
  114loPI   C3B 1823  10.964  13.021   8.774  0.4508  0.1930 -0.0365
  114loPI   C4B 1824  11.041  13.011   8.332 -0.1385  0.0389  0.1101
  115loPI    C1 1825   3.750  17.336  10.629  0.1583 -0.1405  0.1545
  115loPI    C2 1826   4.104  17.204  10.760  0.1672  0.0311  0.3066
  115loPI    C3 1827   4.018  17.595  10.774 -0.0322 -0.0110  0.2808
  115loPI   PO4 1828   3.744  17.164  10.406 -0.0681  0.1420  0.1576
  115loPI   GL1 1829   3.742  17.323  10.006 -0.1991  0.0952 -0.1009
  115loPI   GL2 1830   3.539  17.523   9.977  0.0210  0.0976 -0.1804
  115loPI   C1A 1831   3.990  17.222   9.610 -0.3454  0.1852  0.2231
  115loPI   C2A 1832   3.948  17.242   9.153 -0.0084  0.0666  0.2508
  115loPI   C3A 1833   3.985  17.243   8.709 -0.0643 -0.1957  0.0209
  115loPI   C4A 1834   3.838  17.195   8.336 -0.0791 -0.0807 -0.0083
  115loPI   C5A 1835   3.767  17.225   7.814  0.1104  0.1414 -0.0920
  115loPI   C6A 1836   3.538  17.619   7.574 -0.0038 -0.2962 -0.1028
  115loPI   C1B 1837   3.438  17.416   9.596 -0.0597  0.0717  0.1166
  115loPI   C2B 1838   3.446  17.507   9.171  0.1788  0.0607 -0.1446
  115loPI   C3B 1839   3.447  17.379   8.716 -0.0160 -0.1418 -0.0006
  115loPI   C4B 1840   3.414  17.368   8.306 -0.0785 -0.0242  0.2854
  116loPI    C1 1841  12.177  15.280  10.579  0.2194  0.2240  0.0748
  116loPI    C2 1842  11.960  15.267  10.915  0.1408  0.2553  0.0255
  116loPI    C3 1843  11.955  15.596  10.686 -0.3805 -0.0203 -0.3844
  116loPI   PO4 1844  12.175  15.036  10.565 -0.2022  0.0130 -0.0713
  116loPI   GL1 1845  12.014  14.724  10.233 -0.1658  0.2211 -0.1907
  116loPI   GL2 1846  12.096  14.408  10.058  0.0569  0.1226  0.0190
  116loPI   C1A 1847  11.995  14.882   9.815  0.0719 -0.0936  0.1616
  116loPI   C2A 1848  12.036  14.886   9.412  0.3779  0.3309  0.1101
  116loPI   C3A 1849  12.089  14.829   8.994  0.0437  0.0246 -0.0481
  116loPI   C4A 1850  11.962  14.796   8.579 -0.2185  0.2104 -0.2456
  116loPI   C5A 1851  11.951  14.960   8.248  0.2651  0.0848 -0.0456
  116loPI   C6A 1852  12.171  14.979   7.892 -0.1126 -0.0920 -0.0249
  116loPI   C1B 1853  12.121  14.423   9.649 -0.1435 -0.2091  0.4897
  116loPI   C2B 1854  12.097  14.333   9.183 -0.0456  0.0211 -0.0768
  116loPI   C3B 1855  12.070  14.350   8.735 -0.2204 -0.1549 -0.1333
  116loPI   C4B 1856  12.029  14.123   8.315  0.2129 -0.2381 -0.0376
  117loPI    C1 1857  11.575   6.437  10.771 -0.1757 -0.2521 -0.2623
  117loPI    C2 1858  11.398   6.201  11.041 -0.0167  0.0063  0.0753
  117loPI    C3 1859  11.505   6.573  11.141 -0.0663  0.1499 -0.3850
  117loPI   PO4 1860  11.389   6.477  10.500 -0.1104  0.1184 -0.3902
  117loPI   GL1 1861  11.276   6.373  10.107 -0.0853 -0.2839 -0.3264
  117loPI   GL2 1862  11.471   6.558   9.963 -0.2253  0.1116 -0.1832
  117loPI   C1A 1863  11.100   6.310   9.744  0.2133 -0.2524 -0.0409
  117loPI   C2A 1864  11.171   6.266   9.342  0.0018  0.2026 -0.1598
  117loPI   C3A 1865  11.121   6.315   8.930  0.1577  0.1040 -0.2264
  117loPI   C4A 1866  10.985   6.275   8.490 -0.2003  0.2893  0.1551
  117loPI   C5A 1867  11.173   6.344   8.106 -0.0683  0.2611  0.1685
  117loPI   C6A 1868  11.355   6.586   7.825 -0.2183 -0.0779 -0.4601
  117loPI   C1B 1869  11.361   6.735   9.487 -0.2173 -0.0825 -0.1483
  117loPI   C2B 1870  11.335   6.763   9.025  0.0540  0.1195 -0.1373
  117loPI   C3B 1871  11.276   6.724   8.650  0.0493  0.1727 -0.2496
  117loPI   C4B 1872  11.264   6.795   8.265 -0.1235  0.0189 -0.0910
  118loPI    C1 1873   0.219  13.927  10.671  0.0387 -0.0968  0.1013
  118loPI    C2 1874   0.312  13.785  11.034 -0.0350 -0.0281  0.1472
  118loPI    C3 1875   0.595  13.952  10.806  0.0225 -0.1200  0.1511
  118loPI   PO4 1876   0.133  13.721  10.563  0.2400  0.0641 -0.0987
  118loPI   GL1 1877  -0.003  13.549  10.168 -0.1543  0.0530 -0.2558
  118loPI   GL2 1878  -0.076  13.732   9.881 -0.2506  0.2776  0.0251
  118loPI   C1A 1879   0.145  13.315   9.739 -0.0264 -0.0753 -0.1311
  118loPI   C2A 1880   0.138  13.176   9.297  0.0650 -0.1533 -0.0774
  118loPI   C3A 1881   0.235  13.188   8.916 -0.1539  0.4463  0.0864
  118loPI   C4A 1882   0.433  13.287   8.504  0.1210 -0.0411 -0.0132
  118loPI   C5A 1883   0.460  13.484   8.061 -0.1237 -0.0284 -0.0242
  118loPI   C6A 1884   0.506  13.623   7.610  0.1094 -0.1332  0.0879
  118loPI   C1B 1885   0.096  13.724   9.362 -0.1837 -0.0872  0.0019
  118loPI   C2B 1886   0.223  13.652   8.964  0.4117 -0.0335  0.1249
  118loPI   C3B 1887   0.317  13.801   8.586  0.2238  0.0720  0.0823
  118loPI   C4B 1888   0.351  13.990   8.235 -0.0182 -0.0407  0.1053
  119loPI    C1 1889  18.033   1.001  10.447  0.4086 -0.2838  0.2313
  119loPI    C2 1890  18.056   1.170  10.809 -0.0255  0.1419  0.0730
  119loPI    C3 1891  17.838   0.839  10.756  0.0542  0.0679  0.2015
  119loPI   PO4 1892  17.902   1.213  10.261 -0.1330  0.0070 -0.0011
  119loPI   GL1 1893  17.793   1.204   9.828  0.0652  0.1494  0.1866
  119loPI   GL2 1894  17.500   1.049   9.796 -0.1408  0.1635 -0.0780
  119loPI   C1A 1895  17.757   1.227   9.368 -0.0297  0.2721 -0.4595
  119loPI   C2A 1896  17.766   1.307   8.862  0.0070 -0.1180 -0.2656
  119loPI   C3A 1897  17.859   1.270   8.355  0.0343  0.1767  0.0629
  119loPI   C4A 1898  17.957   1.197   7.973 -0.1214  0.1225 -0.1130
  119loPI   C5A 1899  18.409   1.208   7.948 -0.1190 -0.0321  0.3968
  119loPI   C6A 1900  18.723   1.274   7.785  0.0113 -0.0070 -0.1808
  119loPI   C1B 1901  17.399   0.861   9.536  0.0625  0.0029 -0.1085
  119loPI   C2B 1902  17.416   0.877   9.103  0.0109 -0.0590  0.0071
  119loPI   C3B 1903  17.536   0.906   8.658  0.4031 -0.1685  0.2199
  119loPI   C4B 1904  17.623   0.802   8.123 -0.0386  0.2416  0.1747
  120loPI    C1 1905   8.361   2.216  10.170 -0.1653 -0.1398 -0.0764
  120loPI    C2 1906   8.349   1.899  10.413  0.0119 -0.0085  0.1071
  120loPI    C3 1907   8.130   2.222  10.496 -0.1901 -0.0909 -0.0949
  120loPI   PO4 1908   8.356   2.134   9.988  0.1746 -0.1618  0.0951
  120loPI   GL1 1909   8.499   2.145   9.579 -0.0017  0.2895  0.0333
  120loPI   GL2 1910   8.370   1.888   9.585 -0.0052 -0.0668  0.0435
  120loPI   C1A 1911   8.449   2.389   9.241  0.2604  0.1218  0.1597
  120loPI   C2A 1912   8.558   2.446   8.758 -0.2556  0.4669  0.0383
  120loPI   C3A 1913   8.512   2.672   8.428 -0.0775 -0.1883 -0.2246
  120loPI   C4A 1914   8.709   2.622   8.032  0.0578 -0.0421 -0.1732
  120loPI   C5A 1915   8.934   2.498   7.773 -0.3610  0.0879  0.0147
  120loPI   C6A 1916   8.798   2.384   7.406  0.0552 -0.2420  0.2939
  120loPI   C1B 1917   8.462   1.847   9.120  0.3255 -0.0087  0.0422
  120loPI   C2B 1918   8.513   1.929   8.694  0.1917 -0.0827 -0.0377
  120loPI   C3B 1919   8.664   2.145   8.413 -0.1352  0.1932 -0.0255
  120loPI   C4B 1920   8.831   2.182   8.115  0.0203 -0.1468  0.0781
  121loPI    C1 1921   6.935   6.182  11.235  0.2515  0.2272 -0.2920
  121loPI    C2 1922   6.950   6.553  11.384 -0.1265  0.0596  0.1892
  121loPI    C3 1923   7.252   6.299  11.449  0.0506  0.2215  0.0137
  121loPI   PO4 1924   6.712   6.119  11.083  0.0010 -0.0087  0.2691
  121loPI   GL1 1925   6.728   6.164  10.595 -0.0706  0.1628  0.2285
  121loPI   GL2 1926   7.035   6.005  10.479 -0.1184 -0.1689 -0.0833
  121loPI   C1A 1927   6.779   6.185  10.050 -0.0151  0.2019 -0.3146
  121loPI   C2A 1928   6.888   6.181   9.680 -0.1320 -0.1525  0.0590
  121loPI   C3A 1929   6.898   6.235   9.233  0.2987 -0.0253  0.3041
  121loPI   C4A 1930   7.051   6.191   8.756  0.0364  0.1579 -0.0336
  121loPI   C5A 1931   7.173   6.302   8.426 -0.1749 -0.0248  0.4098
  121loPI   C6A 1932   7.543   6.257   8.155 -0.0514 -0.3509 -0.0554
  121loPI   C1B 1933   7.158   6.426  10.318  0.0863  0.0003 -0.3645
  121loPI   C2B 1934   7.068   6.638   9.945 -0.1562 -0.0205 -0.2442
  121loPI   C3B 1935   7.199   6.685   9.449 -0.0421 -0.2211 -0.0819
  121loPI   C4B 1936   7.264   6.572   9.050 -0.0239  0.0312  0.1309
  122loPI    C1 1937  10.974   7.702  10.663 -0.0851  0.0560  0.0072
  122loPI    C2 1938  11.373   7.688  10.665 -0.0797  0.2022  0.0749
  122loPI    C3 1939  11.173   7.735  11.008 -0.1521  0.1985  0.0335
  122loPI   PO4 1940  10.910   7.919  10.545  0.3515  0.1556  0.1623
  122loPI   GL1 1941  10.755   7.959  10.237 -0.1190 -0.1222  0.3831
  122loPI   GL2 1942  10.789   7.662  10.078  0.0498  0.2606  0.0717
  122loPI   C1A 1943  10.566   8.079   9.842  0.0720 -0.1839 -0.2175
  122loPI   C2A 1944  10.506   8.093   9.491  0.1241  0.1649 -0.1473
  122loPI   C3A 1945  10.588   8.034   9.033  0.2383 -0.0471  0.1206
  122loPI   C4A 1946  10.496   8.105   8.601 -0.2233 -0.0032 -0.2929
  122loPI   C5A 1947  10.542   8.303   8.210 -0.1817  0.2174 -0.0360
  122loPI   C6A 1948  10.523   8.480   7.845  0.1453 -0.0346  0.0194
  122loPI   C1B 1949  10.856   7.683   9.685 -0.1649 -0.0547 -0.2817
  122loPI   C2B 1950  10.807   7.618   9.313 -0.4264  0.3178 -0.0552
  122loPI   C3B 1951  10.840   7.660   8.869 -0.0895  0.1539  0.1542
  122loPI   C4B 1952  10.802   7.650   8.481 -0.0097 -0.2081  0.0013
  123loPI    C1 1953   8.946   8.989  11.197 -0.1057 -0.2117  0.1502
  123loPI    C2 1954   9.179   9.312  11.158 -0.1519 -0.2237 -0.2785
  123loPI    C3 1955   9.008   9.230  11.510 -0.0523  0.1571 -0.1361
  123loPI   PO4 1956   8.876   9.028  10.841 -0.2247 -0.3326  0.0422
  123loPI   GL1 1957   8.847   8.903  10.401  0.1023 -0.0725  0.0801
  123loPI   GL2 1958   8.513   8.912  10.514 -0.1389 -0.0598 -0.1163
  123loPI   C1A 1959   9.010   8.967   9.924 -0.2617 -0.0820 -0.1529
  123loPI   C2A 1960   9.050   8.978   9.445 -0.0800 -0.0650 -0.4427
  123loPI   C3A 1961   9.078   8.917   9.054  0.2453 -0.0049  0.0396
  123loPI   C4A 1962   8.989   8.922   8.668 -0.2061 -0.2976  0.2746
  123loPI   C5A 1963   8.913   9.117   8.214  0.0487  0.0278  0.1074
  123loPI   C6A 1964   9.113   9.378   8.138 -0.1406 -0.4803 -0.0155
  123loPI   C1B 1965   8.414   8.953  10.078 -0.0282  0.0953  0.0343
  123loPI   C2B 1966   8.610   8.918   9.653 -0.1282 -0.1893 -0.1667
  123loPI   C3B 1967   8.473   8.924   9.287 -0.1769  0.0200 -0.4561
  123loPI   C4B 1968   8.485   8.962   8.909 -0.0375 -0.0574  0.0463
  124loPI    C1 1969   3.536   1.883  10.671  0.2326  0.2314 -0.2892
  124loPI    C2 1970   3.621   1.779  11.048 -0.1317  0.3814 -0.1620
  124loPI    C3 1971   3.880   2.000  10.839  0.1704  0.1154 -0.0773
  124loPI   PO4 1972   3.424   1.610  10.563 -0.3250  0.1158 -0.0682
  124loPI   GL1 1973   3.601   1.506  10.119  0.0272 -0.1390 -0.2220
  124loPI   GL2 1974   3.397   1.346   9.913  0.3443 -0.0272 -0.1346
  124loPI   C1A 1975   3.776   1.638   9.651 -0.2629  0.2994  0.0079
  124loPI   C2A 1976   3.750   1.634   9.181  0.0727 -0.0170  0.0017
  124loPI   C3A 1977   3.822   1.546   8.698 -0.3010 -0.0215  0.0121
  124loPI   C4A 1978   3.907   1.712   8.267 -0.0691 -0.1419 -0.1706
  124loPI   C5A 1979   3.666   1.722   7.930 -0.0810  0.1110 -0.0399
  124loPI   C6A 1980   3.288   1.908   7.877 -0.1073 -0.0665 -0.0740
  124loPI   C1B 1981   3.362   1.550   9.489 -0.0521  0.1489  0.1327
  124loPI   C2B 1982   3.213   1.547   9.161 -0.0855  0.0412 -0.2716
  124loPI   C3B 1983   3.345   1.590   8.784 -0.1095  0.1273  0.1098
  124loPI   C4B 1984   3.457   1.814   8.354  0.0580  0.2436 -0.2215
  125loPI    C1 1985   9.127  18.288  10.508 -0.0679  0.2576 -0.2219
  125loPI    C2 1986   9.376  18.601  10.529 -0.1495  0.2966  0.3077
  125loPI    C3 1987   9.236  18.434  10.865 -0.3056 -0.1547  0.0273
  125loPI   PO4 1988   9.062  18.289  10.313 -0.2332 -0.2677 -0.0274
  125loPI   GL1 1989   8.934  18.265   9.889  0.0646 -0.3902 -0.0322
  125loPI   GL2 1990   8.781  18.212   9.671 -0.3480 -0.2019  0.0026
  125loPI   C1A 1991   9.218  18.422   9.437  0.1012 -0.0136 -0.0405
  125loPI   C2A 1992   9.317  18.419   9.003  0.0243  0.4221 -0.4049
  125loPI   C3A 1993   9.305  18.468   8.636 -0.1062 -0.2415 -0.1356
  125loPI   C4A 1994   9.305  18.522   8.173  0.1517  0.1578 -0.3525
  125loPI   C5A 1995   9.044  18.665   7.767 -0.0038 -0.1535  0.2263
  125loPI   C6A 1996   8.894  18.468   7.410  0.2612 -0.1046 -0.1545
  125loPI   C1B 1997   8.777  18.149   9.189 -0.0386  0.5962 -0.2689
  125loPI   C2B 1998   8.793  18.133   8.799  0.3217  0.1398 -0.1069
  125loPI   C3B 1999   8.917  18.205   8.317  0.0739  0.0117  0.1682
  125loPI   C4B 2000   8.820  18.191   7.890  0.1709 -0.0093  0.0847
  126loPI    C1 2001   8.828   7.663  11.315  0.1188 -0.0714 -0.2591
  126loPI    C2 2002   9.025   7.324  11.396  0.1152 -0.0325 -0.0838
  126loPI    C3 2003   9.099   7.654  11.610 -0.0084  0.0307 -0.1379
  126loPI   PO4 2004   8.953   7.676  11.058 -0.0203  0.2449 -0.0076
  126loPI   GL1 2005   8.868   7.664  10.620 -0.1040 -0.0985  0.0192
  126loPI   GL2 2006   9.026   7.871  10.337 -0.3493 -0.0983  0.1846
  126loPI   C1A 2007   8.666   7.641  10.133 -0.3024  0.0894  0.0073
  126loPI   C2A 2008   8.750   7.632   9.648  0.1967 -0.0138 -0.1087
  126loPI   C3A 2009   8.699   7.632   9.205  0.1038 -0.0353  0.0387
  126loPI   C4A 2010   8.726   7.679   8.738 -0.0298 -0.1371  0.2580
  126loPI   C5A 2011   8.593   7.504   8.358 -0.0052  0.1300 -0.0023
  126loPI   C6A 2012   8.684   7.725   7.888 -0.1725 -0.2342 -0.3750
  126loPI   C1B 2013   8.910   8.021   9.966 -0.0650 -0.0761  0.1126
  126loPI   C2B 2014   9.076   8.073   9.486 -0.1252  0.0253 -0.2736
  126loPI   C3B 2015   9.048   8.092   9.058  0.1303  0.0460  0.1143
  126loPI   C4B 2016   9.019   8.146   8.602 -0.4472 -0.0749  0.0128
  127loPI    C1 2017   7.976   6.259  10.812  0.1027 -0.0374 -0.0538
  127loPI    C2 2018   8.093   6.594  10.998  0.0286 -0.0156 -0.0462
  127loPI    C3 2019   8.273   6.246  11.080  0.0271  0.0020  0.0325
  127loPI   PO4 2020   7.950   6.403  10.551 -0.3323 -0.3256  0.0215
  127loPI   GL1 2021   8.102   6.658  10.215 -0.1229 -0.2596  0.0766
  127loPI   GL2 2022   8.123   6.901  10.306  0.1391  0.1727  0.3046
  127loPI   C1A 2023   8.117   6.748   9.814  0.3339 -0.0770  0.4229
  127loPI   C2A 2024   8.205   6.819   9.427 -0.0698  0.1296  0.4197
  127loPI   C3A 2025   8.287   6.728   9.005  0.0311 -0.1943  0.2221
  127loPI   C4A 2026   8.268   6.583   8.569  0.0250  0.0594  0.1566
  127loPI   C5A 2027   8.495   6.228   8.305 -0.1895 -0.2379 -0.3642
  127loPI   C6A 2028   8.847   6.227   7.996 -0.0833  0.0735  0.1243
  127loPI   C1B 2029   7.855   7.110   9.976 -0.1949  0.1487 -0.1817
  127loPI   C2B 2030   7.932   7.184   9.475 -0.2156  0.0427  0.0530
  127loPI   C3B 2031   7.899   7.131   9.027 -0.2337  0.0405 -0.3966
  127loPI   C4B 2032   8.014   7.079   8.573  0.0943  0.2151 -0.0272
  128loPI    C1 2033  10.391  18.090  10.514  0.4317 -0.1730  0.1933
  128loPI    C2 2034  10.586  18.404  10.360  0.0026 -0.0164 -0.0481
  128loPI    C3 2035  10.635  18.307  10.745  0.1635  0.3273  0.0216
  128loPI   PO4 2036  10.164  18.063  10.489  0.1596 -0.2145  0.1014
  128loPI   GL1 2037  10.048  18.176  10.112 -0.0968  0.0413 -0.0586
  128loPI   GL2 2038   9.947  18.423   9.918  0.2358 -0.0819 -0.1918
  128loPI   C1A 2039  10.199  18.063   9.650  0.0578 -0.0894  0.0238
  128loPI   C2A 2040  10.237  17.995   9.270  0.0593 -0.2464  0.0058
  128loPI   C3A 2041  10.311  18.100   8.852 -0.1444 -0.0088  0.0849
  128loPI   C4A 2042  10.311  17.969   8.491 -0.1969  0.0060 -0.1438
  128loPI   C5A 2043  10.063  18.011   8.175  0.0075 -0.0468  0.1316
  128loPI   C6A 2044   9.851  17.789   7.785 -0.0720 -0.1402 -0.1822
  128loPI   C1B 2045  10.116  18.527   9.495  0.1700 -0.2667  0.0627
  128loPI   C2B 2046  10.247  18.665   9.090  0.2363  0.1556  0.4788
  128loPI   C3B 2047  10.264  18.585   8.614  0.1315  0.4938 -0.0792
  128loPI   C4B 2048  10.090  18.458   8.277 -0.0734 -0.0505  0.3426
  129loPI    C1 2049   1.140  17.348  10.415 -0.1456 -0.1007  0.0873
  129loPI    C2 2050   0.811  17.380  10.191  0.0397 -0.0487 -0.1822
  129loPI    C3 2051   0.782  17.266  10.573 -0.2840 -0.0980 -0.2183
  129loPI   PO4 2052   1.317  17.361  10.246  0.0802 -0.1365  0.0514
  129loPI   GL1 2053   1.189  17.557   9.942 -0.1809  0.2392  0.0894
  129loPI   GL2 2054   1.163  17.836   9.798  0.3962  0.1577  0.1158
  129loPI   C1A 2055   1.252  17.412   9.535  0.2300  0.2852  0.2894
  129loPI   C2A 2056   1.213  17.355   9.125  0.1779  0.2099  0.0849
  129loPI   C3A 2057   1.192  17.399   8.654 -0.0318  0.3399 -0.0663
  129loPI   C4A 2058   0.985  17.338   8.307 -0.1947 -0.0420  0.0205
  129loPI   C5A 2059   1.104  17.296   7.942  0.3351 -0.2628 -0.0100
  129loPI   C6A 2060   1.319  17.213   7.514  0.0812 -0.0430 -0.2439
  129loPI   C1B 2061   1.277  17.841   9.330 -0.2195 -0.0249 -0.2539
  129loPI   C2B 2062   1.141  17.890   8.877 -0.2593  0.1922 -0.1454
  129loPI   C3B 2063   1.035  17.909   8.412  0.0925  0.0319 -0.4803
  129loPI   C4B 2064   1.026  17.837   8.010 -0.2936 -0.0700 -0.0808
  130loPI    C1 2065  11.607   8.863  11.198 -0.0696  0.0497  0.1965
  130loPI    C2 2066  11.611   9.026  11.563 -0.3323 -0.0984  0.2687
  130loPI    C3 2067  11.307   8.792  11.453 -0.2973  0.0135 -0.0766
  130loPI   PO4 2068  11.737   9.043  11.072  0.1824 -0.1957 -0.1685
  130loPI   GL1 2069  11.614   9.222  10.679  0.1194  0.2708 -0.2023
  130loPI   GL2 2070  11.746   9.487  10.617  0.1208  0.0873 -0.2371
  130loPI   C1A 2071  11.598   9.037  10.220  0.2054 -0.0319 -0.3715
  130loPI   C2A 2072  11.543   8.973   9.837 -0.2572 -0.0865  0.1669
  130loPI   C3A 2073  11.598   8.931   9.507  0.1561 -0.0992 -0.0871
  130loPI   C4A 2074  11.640   9.040   9.030  0.1604  0.2307 -0.2472
  130loPI   C5A 2075  11.576   9.013   8.545  0.0593 -0.3493 -0.3498
  130loPI   C6A 2076  11.484   8.724   8.233  0.0610 -0.3014  0.1101
  130loPI   C1B 2077  11.910   9.481  10.163 -0.1853 -0.1756  0.1188
  130loPI   C2B 2078  11.818   9.340   9.689 -0.1415  0.1140 -0.0125
  130loPI   C3B 2079  11.840   9.439   9.240 -0.3843  0.1839  0.0306
  130loPI   C4B 2080  11.932   9.361   8.721 -0.0448 -0.0246 -0.1518
  131loPI    C1 2081   6.908   1.490  10.371  0.1031  0.0654 -0.0492
  131loPI    C2 2082   7.157   1.209  10.508 -0.0176 -0.0055  0.0261
  131loPI    C3 2083   6.882   1.368  10.751  0.1189  0.2548  0.0135
  131loPI   PO4 2084   6.936   1.407  10.114 -0.0073 -0.2296  0.1124
  131loPI   GL1 2085   7.263   1.573   9.772 -0.3688 -0.1564 -0.0879
  131loPI   GL2 2086   7.046   1.255   9.613 -0.0781 -0.0035  0.0362
  131loPI   C1A 2087   7.214   1.648   9.368  0.0208 -0.2660 -0.0183
  131loPI   C2A 2088   7.140   1.652   8.865  0.0690 -0.2109 -0.0079
  131loPI   C3A 2089   7.289   1.680   8.390 -0.1170 -0.1138 -0.0428
  131loPI   C4A 2090   7.356   1.878   8.091  0.1664 -0.0574 -0.0674
  131loPI   C5A 2091   7.331   1.962   7.688  0.0752 -0.0617 -0.0505
  131loPI   C6A 2092   6.981   2.205   7.421  0.0538  0.1276  0.0449
  131loPI   C1B 2093   6.973   1.178   9.151 -0.4075  0.0150 -0.0810
  131loPI   C2B 2094   6.916   1.234   8.817  0.1374  0.0932  0.0343
  131loPI   C3B 2095   6.837   1.439   8.455 -0.2426  0.0384 -0.0083
  131loPI   C4B 2096   6.843   1.863   8.255  0.2788  0.1297  0.1371
  132loPI    C1 2097  16.416  14.747  10.489 -0.0003  0.1009  0.1175
  132loPI    C2 2098  16.553  14.493  10.767  0.2302  0.0750 -0.0169
  132loPI    C3 2099  16.193  14.434  10.601  0.1706 -0.0133  0.1423
  132loPI   PO4 2100  16.555  14.758  10.316  0.2028  0.3108  0.0915
  132loPI   GL1 2101  16.545  15.034   9.950 -0.1845 -0.0483 -0.0672
  132loPI   GL2 2102  16.229  15.121  10.138 -0.0640  0.2240 -0.2627
  132loPI   C1A 2103  16.508  15.181   9.475  0.0370  0.0972 -0.0786
  132loPI   C2A 2104  16.574  15.310   9.065 -0.0434 -0.1964  0.0076
  132loPI   C3A 2105  16.469  15.242   8.658  0.0053 -0.0770  0.1019
  132loPI   C4A 2106  16.212  15.329   8.256 -0.0763 -0.0366 -0.2303
  132loPI   C5A 2107  16.369  15.223   7.883 -0.4152 -0.0061  0.2571
  132loPI   C6A 2108  16.741  15.192   7.617  0.1410  0.0140  0.1599
  132loPI   C1B 2109  16.123  15.015   9.721  0.3351  0.0907  0.3716
  132loPI   C2B 2110  16.052  14.884   9.314  0.0647  0.2090 -0.0464
  132loPI   C3B 2111  16.089  15.015   8.901 -0.0492  0.0293  0.1836
  132loPI   C4B 2112  16.002  15.006   8.572  0.1530 -0.0606  0.2432
  133loPI    C1 2113   2.167   5.389  10.627 -0.1275 -0.1940  0.0908
  133loPI    C2 2114   2.005   5.287  10.978  0.0074 -0.0315  0.2023
  133loPI    C3 2115   2.397   5.361  10.954 -0.0563  0.2834  0.0887
  133loPI   PO4 2116   2.029   5.205  10.470  0.0119 -0.0073  0.2669
  133loPI   GL1 2117   1.753   5.264  10.019 -0.0540 -0.2479  0.2704
  133loPI   GL2 2118   1.325   5.281  10.043  0.0772  0.2912 -0.1004
  133loPI   C1A 2119   1.536   5.179   9.599 -0.1653  0.1931 -0.3623
  133loPI   C2A 2120   1.507   5.281   9.143  0.1066 -0.0557  0.1456
  133loPI   C3A 2121   1.591   5.293   8.744  0.2211  0.1269 -0.0400
  133loPI   C4A 2122   1.530   5.313   8.253  0.0754 -0.0355 -0.0594
  133loPI   C5A 2123   1.410   5.568   7.867  0.0086  0.0578  0.2782
  133loPI   C6A 2124   1.448   5.883   7.628 -0.3547  0.1901 -0.1665
  133loPI   C1B 2125   1.056   5.366   9.707 -0.0366  0.0987  0.0583
  133loPI   C2B 2126   1.044   5.221   9.269  0.1887 -0.1452 -0.1052
  133loPI   C3B 2127   1.091   5.279   8.707 -0.1326  0.3880  0.0555
  133loPI   C4B 2128   1.018   5.376   8.239 -0.0401 -0.2408  0.0636
  134loPI    C1 2129   8.866  13.399  10.745 -0.0289  0.1217 -0.2322
  134loPI    C2 2130   8.602  13.395  11.045  0.0863  0.1317 -0.1299
  134loPI    C3 2131   8.972  13.534  11.106  0.1001  0.1657 -0.2858
  134loPI   PO4 2132   8.729  13.530  10.550  0.0492 -0.0306  0.1016
  134loPI   GL1 2133   9.055  13.713  10.218 -0.1495 -0.1850  0.0859
  134loPI   GL2 2134   9.051  13.375  10.189  0.0536  0.0730 -0.1539
  134loPI   C1A 2135   9.019  13.736   9.705  0.0407 -0.1818  0.0835
  134loPI   C2A 2136   8.882  13.607   9.319  0.2829 -0.0650 -0.4687
  134loPI   C3A 2137   9.030  13.648   8.933  0.2668  0.4321 -0.0531
  134loPI   C4A 2138   8.989  13.624   8.505  0.1006  0.0013  0.1197
  134loPI   C5A 2139   9.063  13.409   8.119  0.0337 -0.1667  0.3910
  134loPI   C6A 2140   9.249  13.655   7.775 -0.1682 -0.0212 -0.0241
  134loPI   C1B 2141   9.078  13.253   9.741 -0.2959 -0.1864  0.0608
  134loPI   C2B 2142   9.018  13.138   9.409 -0.3186  0.1572 -0.0067
  134loPI   C3B 2143   9.043  13.134   9.060  0.1105 -0.1365 -0.1074
  134loPI   C4B 2144   9.070  13.112   8.549 -0.3343 -0.1594 -0.0975
  135loPI    C1 2145  13.118   9.525  11.095 -0.0310 -0.2244 -0.1736
  135loPI    C2 2146  12.796   9.685  11.269  0.0734 -0.2115  0.0101
  135loPI    C3 2147  13.082   9.518  11.493  0.1949 -0.2231 -0.1519
  135loPI   PO4 2148  13.030   9.327  10.943  0.2644 -0.1380 -0.0385
  135loPI   GL1 2149  13.021   9.371  10.506 -0.2688 -0.2317 -0.0119
  135loPI   GL2 2150  13.161   9.044  10.432 -0.0788  0.0800  0.2464
  135loPI   C1A 2151  12.928   9.516  10.138 -0.0043 -0.0181  0.0893
  135loPI   C2A 2152  12.838   9.501   9.711  0.1640 -0.4259  0.0233
  135loPI   C3A 2153  12.905   9.435   9.359  0.2655  0.0795 -0.2336
  135loPI   C4A 2154  12.897   9.333   8.897  0.1029 -0.0884 -0.2172
  135loPI   C5A 2155  12.750   9.457   8.403 -0.0722  0.0458  0.1618
  135loPI   C6A 2156  12.662   9.560   7.973  0.0259 -0.0108  0.2785
  135loPI   C1B 2157  13.233   9.084  10.000  0.1678  0.1967  0.0468
  135loPI   C2B 2158  13.102   9.069   9.618  0.0123 -0.1014  0.1301
  135loPI   C3B 2159  13.146   8.949   9.125 -0.0377 -0.2881  0.1208
  135loPI   C4B 2160  13.206   8.970   8.708 -0.1429 -0.1694  0.0916
  136loPI    C1 2161   3.792   7.951  10.932  0.1248  0.2063  0.0251
  136loPI    C2 2162   4.160   7.912  11.083  0.0288  0.0378  0.2200
  136loPI    C3 2163   3.930   8.220  11.193  0.1155  0.1518  0.0864
  136loPI   PO4 2164   3.769   7.931  10.749 -0.1777  0.3503  0.3979
  136loPI   GL1 2165   3.768   8.006  10.276  0.2691 -0.0973 -0.0135
  136loPI   GL2 2166   3.477   8.043  10.181 -0.0911  0.2735 -0.1910
  136loPI   C1A 2167   4.150   7.899   9.968  0.0253  0.0790 -0.4660
  136loPI   C2A 2168   4.158   7.908   9.543 -0.0812 -0.1878 -0.0603
  136loPI   C3A 2169   4.215   7.981   9.201 -0.1994 -0.0398  0.0393
  136loPI   C4A 2170   4.236   7.842   8.781 -0.3362 -0.3715 -0.0197
  136loPI   C5A 2171   4.135   7.629   8.430  0.3038 -0.1568 -0.0666
  136loPI   C6A 2172   3.893   7.869   8.128 -0.3510 -0.2658  0.1203
  136loPI   C1B 2173   3.597   7.940   9.807 -0.0390  0.1013  0.1259
  136loPI   C2B 2174   3.662   7.982   9.385  0.0189 -0.0401  0.1512
  136loPI   C3B 2175   3.756   7.990   8.955  0.1920  0.1221 -0.0050
  136loPI   C4B 2176   3.642   7.783   8.553 -0.0413 -0.3440  0.1313
  137loPI    C1 2177   9.999   5.251  10.858 -0.1447 -0.1525  0.0847
  137loPI    C2 2178  10.119   5.499  11.148 -0.0758  0.0341 -0.1013
  137loPI    C3 2179  10.230   5.115  11.155 -0.2260 -0.0070  0.2163
  137loPI   PO4 2180  10.022   5.255  10.646 -0.0237  0.1567  0.0829
  137loPI   GL1 2181   9.912   5.421  10.302  0.1247 -0.1040  0.2531
  137loPI   GL2 2182   9.813   5.124  10.144 -0.1301  0.1547  0.0588
  137loPI   C1A 2183   9.902   5.774  10.032  0.0101  0.2932  0.2847
  137loPI   C2A 2184   9.777   5.805   9.601 -0.0477 -0.2999  0.2228
  137loPI   C3A 2185   9.866   5.778   9.135  0.4435  0.0101  0.2099
  137loPI   C4A 2186   9.825   5.819   8.676 -0.4253  0.1404  0.0422
  137loPI   C5A 2187   9.769   5.946   8.199 -0.1035 -0.0373  0.3270
  137loPI   C6A 2188   9.778   5.992   7.720 -0.2259 -0.1614  0.0939
  137loPI   C1B 2189  10.023   5.334   9.831 -0.2436  0.3297  0.1345
  137loPI   C2B 2190  10.170   5.441   9.346  0.0973 -0.2071 -0.0903
  137loPI   C3B 2191  10.070   5.391   8.968 -0.0714 -0.3287  0.3214
  137loPI   C4B 2192  10.058   5.362   8.539 -0.0736  0.1772 -0.1541
  138loPI    C1 2193  14.875  17.882  10.784  0.0636  0.5377  0.3210
  138loPI    C2 2194  14.531  18.066  10.698 -0.0657  0.1452 -0.0373
  138loPI    C3 2195  14.527  17.704  10.868  0.1761  0.2177  0.1286
  138loPI   PO4 2196  14.997  17.915  10.510 -0.0734 -0.1029  0.1716
  138loPI   GL1 2197  15.077  17.843  10.101 -0.1052 -0.1885  0.1906
  138loPI   GL2 2198  15.396  17.769   9.967 -0.0596 -0.3460 -0.1762
  138loPI   C1A 2199  14.841  17.927   9.731  0.2240 -0.1073  0.1664
  138loPI   C2A 2200  14.857  17.987   9.332  0.1309 -0.2888 -0.2374
  138loPI   C3A 2201  14.782  18.020   8.839 -0.1170 -0.1327  0.2409
  138loPI   C4A 2202  14.758  18.069   8.343 -0.1187 -0.2541  0.2800
  138loPI   C5A 2203  14.565  18.067   8.075  0.0523  0.1465  0.3956
  138loPI   C6A 2204  14.278  17.837   7.938 -0.1005  0.1786 -0.2229
  138loPI   C1B 2205  15.328  17.820   9.438  0.1853  0.1976  0.1638
  138loPI   C2B 2206  15.217  17.827   9.010  0.2645 -0.0456 -0.0437
  138loPI   C3B 2207  15.194  17.832   8.560  0.0773 -0.3103  0.2098
  138loPI   C4B 2208  15.342  17.729   8.168  0.1330 -0.2112  0.0674
  139loPI    C1 2209   2.587   3.674  10.763 -0.1574  0.2456 -0.0165
  139loPI    C2 2210   2.634   3.926  11.071 -0.0843  0.1375  0.0615
  139loPI    C3 2211   2.949   3.727  10.924 -0.1547  0.0323  0.0513
  139loPI   PO4 2212   2.561   3.863  10.416  0.1268 -0.0251  0.1058
  139loPI   GL1 2213   2.614   3.759   9.982  0.2062  0.0865 -0.0480
  139loPI   GL2 2214   2.502   3.986   9.770  0.4028  0.1735  0.1035
  139loPI   C1A 2215   2.863   3.644   9.649  0.2752 -0.0787  0.0300
  139loPI   C2A 2216   2.991   3.761   9.262  0.0448 -0.0929 -0.2840
  139loPI   C3A 2217   2.925   3.944   8.960  0.2048  0.2573  0.0766
  139loPI   C4A 2218   2.979   3.949   8.549 -0.1490  0.1932 -0.2671
  139loPI   C5A 2219   2.968   3.789   8.103 -0.1322 -0.1622 -0.0557
  139loPI   C6A 2220   2.963   3.772   7.585 -0.0383 -0.2809 -0.0497
  139loPI   C1B 2221   2.595   4.111   9.403 -0.0993  0.1672  0.2953
  139loPI   C2B 2222   2.582   4.421   8.993 -0.1111 -0.1985 -0.0418
  139loPI   C3B 2223   2.644   4.447   8.565 -0.0675  0.1659 -0.0495
  139loPI   C4B 2224   2.655   4.211   8.116 -0.2612  0.0156 -0.1102
  140loPI    C1 2225  10.597  14.418  10.795  0.0269 -0.1223 -0.1733
  140loPI    C2 2226  10.467  14.517  11.160  0.0690 -0.2835 -0.1138
  140loPI    C3 2227  10.810  14.670  11.022 -0.1752  0.1413 -0.2707
  140loPI   PO4 2228  10.400  14.470  10.637 -0.3417  0.4336  0.0470
  140loPI   GL1 2229  10.291  14.314  10.275 -0.1724  0.0531 -0.1191
  140loPI   GL2 2230  10.329  14.664  10.197  0.1591  0.2555  0.1411
  140loPI   C1A 2231  10.316  14.116   9.884  0.0191  0.0709 -0.0697
  140loPI   C2A 2232  10.198  14.120   9.435 -0.0048  0.4849 -0.2994
  140loPI   C3A 2233  10.285  14.122   9.081  0.3466  0.3189 -0.0107
  140loPI   C4A 2234  10.219  14.068   8.659 -0.0895 -0.0195 -0.2180
  140loPI   C5A 2235  10.284  14.223   8.222 -0.0353 -0.0379 -0.2040
  140loPI   C6A 2236   9.953  14.112   7.950  0.0378  0.0178 -0.0686
  140loPI   C1B 2237  10.246  14.651   9.757  0.1551 -0.0696  0.1126
  140loPI   C2B 2238  10.287  14.650   9.353  0.1302  0.0922  0.0411
  140loPI   C3B 2239  10.235  14.601   8.981  0.0432 -0.2011 -0.4897
  140loPI   C4B 2240  10.235  14.608   8.510  0.1138  0.0645  0.0088
  141loPI    C1 2241   3.670   4.672  10.425 -0.1812 -0.1160 -0.3690
  141loPI    C2 2242   3.368   4.887  10.574 -0.0333 -0.1220 -0.0521
  141loPI    C3 2243   3.374   4.490  10.623  0.1599 -0.0922  0.1849
  141loPI   PO4 2244   3.746   4.676  10.118 -0.0615 -0.2161 -0.1668
  141loPI   GL1 2245   3.747   4.957   9.831 -0.2907 -0.3077 -0.4870
  141loPI   GL2 2246   4.036   4.954   9.782 -0.0215  0.1171 -0.0833
  141loPI   C1A 2247   3.651   5.205   9.547  0.1985  0.1123 -0.0474
  141loPI   C2A 2248   3.783   5.301   9.109  0.0858  0.3184 -0.1522
  141loPI   C3A 2249   3.689   5.318   8.757 -0.0256  0.1983 -0.0645
  141loPI   C4A 2250   3.800   5.275   8.288  0.1863 -0.2505  0.3694
  141loPI   C5A 2251   3.615   5.382   7.795  0.0625 -0.2151  0.1751
  141loPI   C6A 2252   3.800   5.508   7.446 -0.1757 -0.0538  0.1421
  141loPI   C1B 2253   4.120   4.812   9.373  0.2902 -0.3481  0.4459
  141loPI   C2B 2254   4.061   4.857   8.978 -0.1287 -0.0860 -0.3308
  141loPI   C3B 2255   3.916   4.873   8.641  0.1350  0.2300  0.0707
  141loPI   C4B 2256   4.024   4.775   8.271  0.4289  0.1052  0.2660
  142loPI    C1 2257  15.112  15.440  10.816  0.0259 -0.1638 -0.1424
  142loPI    C2 2258  15.147  15.130  10.566 -0.0277 -0.1552 -0.1606
  142loPI    C3 2259  15.101  15.066  10.958 -0.0300 -0.1702 -0.1634
  142loPI   PO4 2260  14.973  15.671  10.596 -0.2045  0.0597 -0.1198
  142loPI   GL1 2261  15.009  15.793  10.161 -0.2662 -0.0834 -0.0502
  142loPI   GL2 2262  15.182  15.586  10.146  0.2981 -0.3595  0.1363
  142loPI   C1A 2263  15.028  15.950   9.773 -0.0484 -0.0276 -0.0407
  142loPI   C2A 2264  15.025  15.886   9.345  0.0249  0.0959 -0.2251
  142loPI   C3A 2265  15.161  15.911   8.929  0.2501  0.2658 -0.0301
  142loPI   C4A 2266  15.026  15.895   8.487 -0.0820  0.0810  0.4083
  142loPI   C5A 2267  14.867  16.080   8.067 -0.2418  0.0703 -0.1060
  142loPI   C6A 2268  15.108  16.264   7.787 -0.2522  0.0502 -0.0261
  142loPI   C1B 2269  15.129  15.434   9.657  0.1473  0.0019 -0.0321
  142loPI   C2B 2270  15.089  15.353   9.176  0.3211  0.0504  0.0602
  142loPI   C3B 2271  15.059  15.398   8.761  0.0591  0.1185  0.0657
  142loPI   C4B 2272  15.234  15.458   8.296  0.0422  0.0277 -0.1021
  143loPI    C1 2273  15.952  11.100  10.745 -0.0597 -0.1507 -0.0219
  143loPI    C2 2274  15.805  11.233  11.093  0.0700 -0.1496  0.0327
  143loPI    C3 2275  16.161  11.362  10.963 -0.0546 -0.0179 -0.1843
  143loPI   PO4 2276  15.740  11.125  10.456 -0.2233  0.1288 -0.0813
  143loPI   GL1 2277  15.585  11.148  10.001  0.4189 -0.1540 -0.0865
  143loPI   GL2 2278  15.412  10.932   9.942  0.1117 -0.1140  0.3552
  143loPI   C1A 2279  15.468  11.320   9.630  0.1193  0.1617 -0.0379
  143loPI   C2A 2280  15.459  11.245   9.225 -0.0960 -0.0309 -0.0232
  143loPI   C3A 2281  15.470  11.172   8.878  0.0404  0.0867 -0.0242
  143loPI   C4A 2282  15.532  11.064   8.516 -0.1230  0.0284  0.2463
  143loPI   C5A 2283  15.371  11.167   8.112  0.3466  0.1475 -0.1362
  143loPI   C6A 2284  15.248  11.114   7.715  0.0172  0.0245  0.0301
  143loPI   C1B 2285  15.361  10.839   9.561 -0.2518  0.1467  0.0831
  143loPI   C2B 2286  15.197  10.841   9.196  0.1136 -0.0631 -0.1093
  143loPI   C3B 2287  15.213  10.727   8.716 -0.2603  0.0343 -0.5835
  143loPI   C4B 2288  15.180  10.635   8.352  0.0730 -0.1835  0.0794
  144loPI    C1 2289   4.816  11.759  10.675  0.1311 -0.0393  0.0134
  144loPI    C2 2290   4.955  11.971  10.985 -0.0425  0.0996 -0.0026
  144loPI    C3 2291   4.576  11.843  10.983 -0.0021 -0.0216 -0.0945
  144loPI   PO4 2292   4.815  11.837  10.487 -0.1718 -0.0068 -0.2256
  144loPI   GL1 2293   4.617  12.051  10.191 -0.1563  0.0986  0.1083
  144loPI   GL2 2294   4.991  12.176  10.141  0.0356 -0.2136  0.3869
  144loPI   C1A 2295   4.692  11.900   9.717 -0.0332 -0.3895 -0.0256
  144loPI   C2A 2296   4.662  12.010   9.255 -0.0438  0.0677  0.0391
  144loPI   C3A 2297   4.615  12.003   8.768  0.2417  0.0446  0.0761
  144loPI   C4A 2298   4.460  12.117   8.361  0.1392 -0.2305 -0.1210
  144loPI   C5A 2299   4.303  11.902   7.962 -0.0502  0.2998  0.0709
  144loPI   C6A 2300   4.178  11.862   7.574 -0.0196 -0.1936  0.0478
  144loPI   C1B 2301   5.022  12.252   9.663  0.2541  0.3422  0.3316
  144loPI   C2B 2302   4.985  12.379   9.205  0.1735  0.2398  0.1572
  144loPI   C3B 2303   4.990  12.331   8.747 -0.0754  0.1893 -0.0063
  144loPI   C4B 2304   4.952  12.359   8.451 -0.0577  0.2055  0.3245
  145loPI    C1 2305  17.139  14.309  10.242 -0.0326 -0.4491  0.2695
  145loPI    C2 2306  16.947  14.559  10.488  0.0030 -0.1713  0.0201
  145loPI    C3 2307  17.290  14.389  10.603  0.1291  0.1211  0.0858
  145loPI   PO4 2308  16.997  14.197  10.109 -0.0703 -0.0619  0.0234
  145loPI   GL1 2309  16.799  14.010   9.863  0.0439  0.1111 -0.0150
  145loPI   GL2 2310  16.851  13.719   9.913 -0.0521  0.2793  0.2309
  145loPI   C1A 2311  17.009  14.191   9.495 -0.1161  0.4022 -0.3937
  145loPI   C2A 2312  17.168  14.425   9.147 -0.1173  0.1727 -0.0321
  145loPI   C3A 2313  17.080  14.516   8.710  0.0173 -0.1300 -0.0276
  145loPI   C4A 2314  16.938  14.728   8.329 -0.0576 -0.4178  0.0351
  145loPI   C5A 2315  16.753  15.142   8.240  0.1200  0.1830  0.0256
  145loPI   C6A 2316  16.727  15.516   8.034  0.2876 -0.1742  0.3319
  145loPI   C1B 2317  16.716  13.717   9.524  0.1084 -0.1926  0.2761
  145loPI   C2B 2318  16.545  13.742   9.104  0.2825  0.2403  0.0672
  145loPI   C3B 2319  16.638  13.751   8.729  0.0709  0.1256  0.0459
  145loPI   C4B 2320  16.724  13.796   8.283 -0.3129  0.0883 -0.1665
  146loPI    C1 2321  14.454  10.785  10.891  0.4184 -0.3046 -0.1264
  146loPI    C2 2322  14.493  10.487  11.155  0.1047 -0.0489  0.2183
  146loPI    C3 2323  14.683  10.834  11.216  0.0643 -0.0027  0.0851
  146loPI   PO4 2324  14.190  10.785  10.809 -0.0476 -0.0445  0.0327
  146loPI   GL1 2325  14.117  10.850  10.395  0.1759  0.2808 -0.2494
  146loPI   GL2 2326  13.831  10.868  10.193  0.1047  0.0732 -0.2112
  146loPI   C1A 2327  14.264  10.874   9.871  0.0086  0.2794  0.1236
  146loPI   C2A 2328  14.137  10.707   9.494 -0.1543  0.1834 -0.1115
  146loPI   C3A 2329  14.256  10.701   9.079  0.0135 -0.3153  0.2082
  146loPI   C4A 2330  14.161  10.738   8.652 -0.1129 -0.1238 -0.1725
  146loPI   C5A 2331  14.153  10.858   8.298 -0.1888 -0.0621  0.3541
  146loPI   C6A 2332  14.447  10.643   8.022  0.0458  0.1390 -0.1380
  146loPI   C1B 2333  13.654  10.801   9.776 -0.0382 -0.0315  0.1257
  146loPI   C2B 2334  13.659  10.778   9.336 -0.0022  0.2571 -0.1069
  146loPI   C3B 2335  13.550  10.773   8.853  0.1038  0.2457 -0.1074
  146loPI   C4B 2336  13.694  10.693   8.466 -0.1188 -0.0065  0.0041
  147loPI    C1 2337  11.199   7.201  10.572 -0.1879 -0.0205  0.2116
  147loPI    C2 2338  10.967   7.260  10.892  0.2909 -0.0422  0.5729
  147loPI    C3 2339  11.365   7.281  10.927  0.3546 -0.1373 -0.0061
  147loPI   PO4 2340  11.070   7.330  10.317  0.0185 -0.2844 -0.0327
  147loPI   GL1 2341  11.278   7.677  10.167  0.2698  0.0741 -0.0661
  147loPI   GL2 2342  11.593   7.501  10.192 -0.0124  0.1617  0.1483
  147loPI   C1A 2343  11.130   8.064   9.964  0.1238  0.1010  0.1523
  147loPI   C2A 2344  11.065   8.083   9.497  0.3042 -0.1192 -0.1357
  147loPI   C3A 2345  11.045   8.063   9.137 -0.1251 -0.1698 -0.1540
  147loPI   C4A 2346  11.026   8.075   8.690 -0.2138 -0.2034 -0.0503
  147loPI   C5A 2347  10.964   8.093   8.318 -0.1276  0.1723  0.1548
  147loPI   C6A 2348  11.014   8.208   7.973 -0.1396  0.2863  0.0366
  147loPI   C1B 2349  11.390   7.581   9.696  0.0758 -0.0022  0.0516
  147loPI   C2B 2350  11.420   7.677   9.256 -0.2421  0.0113 -0.0117
  147loPI   C3B 2351  11.388   7.673   8.865  0.3362  0.3523 -0.1188
  147loPI   C4B 2352  11.274   7.715   8.516 -0.2870  0.1871 -0.0502
  148loPI    C1 2353   7.778   3.027  10.087 -0.1023  0.0339  0.0116
  148loPI    C2 2354   7.747   3.121  10.474 -0.1252  0.0154  0.0143
  148loPI    C3 2355   7.685   3.400  10.195  0.0722  0.0738  0.0272
  148loPI   PO4 2356   7.932   2.935  10.040  0.0814 -0.0777  0.2527
  148loPI   GL1 2357   7.893   2.761   9.643 -0.1004 -0.0067  0.1554
  148loPI   GL2 2358   7.802   3.000   9.461  0.0750 -0.0504 -0.1767
  148loPI   C1A 2359   8.000   2.618   9.181  0.0053  0.3637  0.3012
  148loPI   C2A 2360   8.004   2.706   8.786 -0.0331  0.2154 -0.1788
  148loPI   C3A 2361   7.931   2.666   8.298 -0.1475  0.0973  0.2272
  148loPI   C4A 2362   7.731   2.726   7.931  0.0064 -0.1594 -0.0205
  148loPI   C5A 2363   7.948   2.991   7.665  0.2729 -0.0697 -0.1048
  148loPI   C6A 2364   7.802   3.218   7.406  0.0242 -0.1978  0.3719
  148loPI   C1B 2365   7.791   3.146   9.050 -0.0138  0.0080  0.4019
  148loPI   C2B 2366   7.741   3.145   8.626 -0.0846  0.0556 -0.0111
  148loPI   C3B 2367   7.599   3.126   8.228  0.1607 -0.2435  0.0645
  148loPI   C4B 2368   7.558   3.219   7.827  0.0445 -0.1617 -0.0301
  149loPI    C1 2369  15.607   0.048  10.672  0.1115 -0.0395  0.0507
  149loPI    C2 2370  15.483  -0.266  10.457 -0.1600 -0.0350  0.1960
  149loPI    C3 2371  15.263  -0.134  10.763  0.0068  0.2310  0.2048
  149loPI   PO4 2372  15.846   0.078  10.621 -0.0027 -0.2605  0.0942
  149loPI   GL1 2373  16.014  -0.102  10.356 -0.2129  0.2593 -0.1128
  149loPI   GL2 2374  16.359  -0.120  10.253 -0.0964  0.0981 -0.1320
  149loPI   C1A 2375  15.851  -0.207   9.993 -0.1522 -0.2088  0.1962
  149loPI   C2A 2376  15.824  -0.223   9.575 -0.2169  0.2192 -0.2343
  149loPI   C3A 2377  15.698  -0.237   9.050  0.0619  0.4415 -0.2156
  149loPI   C4A 2378  15.672  -0.323   8.664 -0.1604  0.2078 -0.0660
  149loPI   C5A 2379  15.578  -0.172   8.347  0.0014  0.1758  0.4786
  149loPI   C6A 2380  15.537   0.078   7.916  0.0231  0.2793 -0.0773
  149loPI   C1B 2381  16.252   0.088   9.948  0.1575 -0.1591  0.0853
  149loPI   C2B 2382  16.294   0.115   9.507 -0.0813  0.0175 -0.4341
  149loPI   C3B 2383  16.214   0.038   9.063 -0.1313 -0.0814 -0.0442
  149loPI   C4B 2384  16.105   0.112   8.646  0.1220  0.0282  0.2263
  150loPI    C1 2385  17.183  16.900  10.466 -0.0250  0.0975 -0.0396
  150loPI    C2 2386  17.298  17.229  10.664  0.0938  0.0722 -0.0654
  150loPI    C3 2387  17.564  17.022  10.448  0.0685 -0.1611  0.1222
  150loPI   PO4 2388  16.996  16.887  10.298 -0.5188  0.2121 -0.1773
  150loPI   GL1 2389  16.854  16.676   9.811  0.1453 -0.3361 -0.0207
  150loPI   GL2 2390  17.099  16.622   9.881  0.3828  0.1741 -0.0909
  150loPI   C1A 2391  16.868  16.552   9.355 -0.1406 -0.3528  0.4824
  150loPI   C2A 2392  16.854  16.652   8.920  0.1646 -0.1456  0.2496
  150loPI   C3A 2393  16.749  16.653   8.456  0.1692  0.0204 -0.0286
  150loPI   C4A 2394  16.862  16.834   8.034 -0.0722  0.0020  0.0216
  150loPI   C5A 2395  17.042  17.290   7.957 -0.0903 -0.2778 -0.0697
  150loPI   C6A 2396  16.884  17.659   7.856 -0.4025 -0.0929 -0.0198
  150loPI   C1B 2397  17.321  16.467   9.563  0.2536 -0.0828 -0.2265
  150loPI   C2B 2398  17.367  16.356   9.199  0.1734 -0.0112  0.5940
  150loPI   C3B 2399  17.290  16.451   8.681  0.4119  0.0450 -0.0632
  150loPI   C4B 2400  17.208  16.480   8.209  0.0315  0.0191 -0.0444
  151loPI    C1 2401  17.653  10.296  10.502  0.0862 -0.1418  0.2422
  151loPI    C2 2402  17.396  10.600  10.543  0.1146 -0.0969  0.0924
  151loPI    C3 2403  17.736  10.595  10.755  0.1439  0.0078  0.0488
  151loPI   PO4 2404  17.664  10.253  10.255 -0.0750 -0.2280 -0.2303
  151loPI   GL1 2405  17.582  10.557   9.995 -0.3071  0.0408 -0.1128
  151loPI   GL2 2406  17.740  10.762   9.844  0.1776  0.0153 -0.2299
  151loPI   C1A 2407  17.682  10.242   9.603  0.2951 -0.0744 -0.1645
  151loPI   C2A 2408  17.795  10.222   9.194 -0.2943  0.0949 -0.1228
  151loPI   C3A 2409  17.750  10.285   8.794 -0.4290  0.1884  0.3427
  151loPI   C4A 2410  17.731  10.326   8.303 -0.2834  0.1255 -0.2241
  151loPI   C5A 2411  17.472  10.158   8.030 -0.4216 -0.0144 -0.1683
  151loPI   C6A 2412  17.383  10.134   7.563  0.1296 -0.3494 -0.1798
  151loPI   C1B 2413  17.596  10.673   9.393  0.0277  0.2718 -0.2397
  151loPI   C2B 2414  17.521  10.698   8.976  0.0756 -0.3784  0.4927
  151loPI   C3B 2415  17.471  10.752   8.523  0.1544  0.1531 -0.0812
  151loPI   C4B 2416  17.456  10.700   8.092  0.0390 -0.0437 -0.2706
  152loPI    C1 2417  14.032  17.073  10.969  0.1047 -0.1271 -0.0957
  152loPI    C2 2418  13.881  17.005  10.605 -0.1227  0.0977 -0.0461
  152loPI    C3 2419  13.875  16.716  10.881  0.1091 -0.0946 -0.2376
  152loPI   PO4 2420  14.284  17.199  10.821  0.2206 -0.1070 -0.1628
  152loPI   GL1 2421  14.348  17.407  10.375 -0.0448  0.2951 -0.1454
  152loPI   GL2 2422  14.591  17.680  10.333  0.0986  0.1565 -0.0601
  152loPI   C1A 2423  14.307  17.178  10.039 -0.0838  0.1147 -0.2284
  152loPI   C2A 2424  14.404  17.160   9.626  0.0086 -0.0148  0.0922
  152loPI   C3A 2425  14.476  17.097   9.213 -0.2474  0.3801  0.1457
  152loPI   C4A 2426  14.493  17.168   8.783 -0.2994  0.3273 -0.0881
  152loPI   C5A 2427  14.298  17.022   8.485  0.1360  0.3269  0.0886
  152loPI   C6A 2428  13.823  16.926   8.422 -0.1045 -0.2235 -0.3001
  152loPI   C1B 2429  14.384  17.658   9.942 -0.0395 -0.0283  0.0342
  152loPI   C2B 2430  14.319  17.622   9.501 -0.3967  0.0987 -0.0774
  152loPI   C3B 2431  14.450  17.697   9.078 -0.0725  0.2585 -0.2409
  152loPI   C4B 2432  14.451  17.693   8.654  0.1315 -0.1425  0.2402
  153loPI    C1 2433   1.684  17.808  10.678 -0.2546 -0.1289 -0.0714
  153loPI    C2 2434   1.982  17.559  10.774  0.1849  0.4825  0.2225
  153loPI    C3 2435   1.715  17.668  11.051 -0.2678  0.0200 -0.0135
  153loPI   PO4 2436   1.598  17.709  10.473  0.1825  0.3747 -0.2179
  153loPI   GL1 2437   1.710  17.679  10.061  0.0847  0.5517 -0.1102
  153loPI   GL2 2438   1.803  17.357   9.967 -0.0203  0.0828 -0.0959
  153loPI   C1A 2439   1.647  17.760   9.656 -0.2883  0.0271 -0.2911
  153loPI   C2A 2440   1.718  17.649   9.252  0.0457 -0.0401  0.1981
  153loPI   C3A 2441   1.698  17.636   8.789  0.0592  0.3426 -0.3367
  153loPI   C4A 2442   1.507  17.691   8.394  0.3293  0.2851 -0.2454
  153loPI   C5A 2443   1.471  17.594   8.027  0.1673  0.0720 -0.0518
  153loPI   C6A 2444   1.405  17.980   7.782  0.0240  0.2806  0.1689
  153loPI   C1B 2445   1.742  17.237   9.571 -0.3926 -0.0745 -0.0163
  153loPI   C2B 2446   1.706  17.146   9.168  0.0841  0.4425  0.4538
  153loPI   C3B 2447   1.706  17.142   8.838  0.0905 -0.1100  0.0193
  153loPI   C4B 2448   1.632  17.209   8.407 -0.0794  0.0386  0.0434
  154loPI    C1 2449   8.364  12.216  11.037  0.2614 -0.3502  0.1024
  154loPI    C2 2450   8.568  12.462  11.278  0.1366 -0.0893 -0.0551
  154loPI    C3 2451   8.253  12.259  11.419  0.3464 -0.2973  0.1212
  154loPI   PO4 2452   8.358  12.333  10.736  0.0805  0.2155 -0.2364
  154loPI   GL1 2453   8.259  12.241  10.332 -0.0974  0.0417  0.1175
  154loPI   GL2 2454   7.925  12.316  10.319  0.1479  0.0205 -0.2563
  154loPI   C1A 2455   8.222  12.103   9.912 -0.0298  0.1223  0.0254
  154loPI   C2A 2456   8.354  12.097   9.458  0.1144 -0.1318 -0.0638
  154loPI   C3A 2457   8.276  11.995   9.083 -0.1137 -0.1034 -0.0490
  154loPI   C4A 2458   8.245  12.021   8.732  0.4223 -0.0581  0.0216
  154loPI   C5A 2459   8.166  11.972   8.273 -0.0261  0.1118  0.2499
  154loPI   C6A 2460   7.977  12.124   7.903  0.3669 -0.2603  0.3591
  154loPI   C1B 2461   7.810  12.400   9.950  0.1565  0.4466 -0.1401
  154loPI   C2B 2462   7.722  12.710   9.745  0.0408 -0.0451 -0.1842
  154loPI   C3B 2463   7.672  12.688   9.332 -0.3267  0.0359  0.1838
  154loPI   C4B 2464   7.771  12.677   8.961  0.1936 -0.1253 -0.0264
  155loPI    C1 2465  12.052   6.608  10.909 -0.1181  0.0470  0.0216
  155loPI    C2 2466  12.355   6.705  11.152  0.0188 -0.2563 -0.0233
  155loPI    C3 2467  11.980   6.802  11.252  0.1160  0.0120  0.0924
  155loPI   PO4 2468  12.169   6.741  10.589  0.0948  0.0480 -0.1701
  155loPI   GL1 2469  12.118   6.836  10.113 -0.3379  0.1220  0.0238
  155loPI   GL2 2470  11.962   7.132  10.025  0.0895 -0.0926 -0.1399
  155loPI   C1A 2471  11.927   6.706   9.711 -0.1847  0.0283  0.0772
  155loPI   C2A 2472  11.899   6.702   9.279 -0.0475 -0.2861  0.2226
  155loPI   C3A 2473  11.778   6.780   8.876  0.0628 -0.0606 -0.2676
  155loPI   C4A 2474  11.832   6.713   8.447 -0.0178 -0.0641 -0.0476
  155loPI   C5A 2475  11.710   6.832   8.051 -0.1269 -0.6948  0.1888
  155loPI   C6A 2476  11.645   6.912   7.619  0.1967 -0.1242 -0.1885
  155loPI   C1B 2477  12.180   7.120   9.565 -0.1174  0.3742 -0.1621
  155loPI   C2B 2478  12.154   7.172   9.206  0.1108  0.1327  0.1516
  155loPI   C3B 2479  12.059   7.194   8.796 -0.3813 -0.0072  0.1287
  155loPI   C4B 2480  12.083   7.241   8.327  0.2043 -0.2023 -0.3690
  156loPI    C1 2481  12.418   1.583  10.519 -0.1249 -0.0160  0.0455
  156loPI    C2 2482  12.434   1.495  10.909  0.2069 -0.0612  0.0249
  156loPI    C3 2483  12.746   1.671  10.731 -0.0835  0.2988 -0.1426
  156loPI   PO4 2484  12.264   1.306  10.447  0.2932 -0.3020  0.0106
  156loPI   GL1 2485  11.928   1.428  10.076 -0.1359  0.1009  0.1180
  156loPI   GL2 2486  12.163   1.656   9.966 -0.1685 -0.1277  0.0821
  156loPI   C1A 2487  11.879   1.455   9.652 -0.1145  0.0209 -0.1543
  156loPI   C2A 2488  11.831   1.496   9.260 -0.0755  0.2809 -0.1335
  156loPI   C3A 2489  11.852   1.449   8.812 -0.1842 -0.2483 -0.0473
  156loPI   C4A 2490  11.818   1.419   8.422 -0.1505 -0.1590  0.2252
  156loPI   C5A 2491  11.841   1.509   8.019  0.1405  0.1034 -0.0035
  156loPI   C6A 2492  11.708   1.801   7.552 -0.1996  0.3552 -0.0233
  156loPI   C1B 2493  12.279   1.648   9.493  0.0923 -0.2230  0.0489
  156loPI   C2B 2494  12.281   1.691   9.087 -0.1918 -0.3197  0.1125
  156loPI   C3B 2495  12.339   1.747   8.693 -0.2420 -0.1769 -0.0653
  156loPI   C4B 2496  12.188   1.716   8.317 -0.1533  0.0087  0.1895
  157loPI    C1 2497  16.578   5.879  10.770  0.3974  0.1095 -0.1035
  157loPI    C2 2498  16.491   5.538  10.961  0.1373  0.2141 -0.0302
  157loPI    C3 2499  16.863   5.686  10.974  0.3132 -0.1912 -0.2651
  157loPI   PO4 2500  16.391   5.825  10.543 -0.2163  0.1210  0.1512
  157loPI   GL1 2501  16.453   5.966  10.060 -0.0824  0.3112 -0.0411
  157loPI   GL2 2502  16.709   5.785   9.942 -0.3358  0.1515  0.0324
  157loPI   C1A 2503  16.767   6.251   9.909  0.1783  0.1667 -0.0483
  157loPI   C2A 2504  16.805   6.275   9.442  0.2996 -0.2361 -0.2354
  157loPI   C3A 2505  16.740   6.239   9.044 -0.0497 -0.1055  0.1364
  157loPI   C4A 2506  16.755   6.239   8.602  0.0607  0.1841  0.0359
  157loPI   C5A 2507  16.783   6.233   8.179  0.0469  0.1423 -0.0821
  157loPI   C6A 2508  16.868   6.542   7.837 -0.2180  0.0565  0.3157
  157loPI   C1B 2509  16.513   5.837   9.501  0.0519  0.1544 -0.0573
  157loPI   C2B 2510  16.466   5.786   9.065 -0.2764  0.2221  0.2423
  157loPI   C3B 2511  16.518   5.777   8.621 -0.1300 -0.0041  0.0789
  157loPI   C4B 2512  16.516   5.753   8.203  0.0340  0.3056 -0.0261
  158loPI    C1 2513   2.095  14.715  10.956  0.1379 -0.1024 -0.2051
  158loPI    C2 2514   2.417  14.506  11.068  0.0434 -0.0099  0.2585
  158loPI    C3 2515   2.416  14.904  11.099  0.0495  0.0287 -0.1786
  158loPI   PO4 2516   2.031  14.580  10.602  0.2019  0.1072 -0.3482
  158loPI   GL1 2517   2.156  14.702  10.139 -0.2595  0.1300 -0.3061
  158loPI   GL2 2518   2.467  14.564  10.078 -0.0432  0.1542  0.0441
  158loPI   C1A 2519   2.092  14.709   9.743  0.2368  0.1604  0.0801
  158loPI   C2A 2520   2.078  14.625   9.343 -0.3986 -0.0619 -0.2048
  158loPI   C3A 2521   2.033  14.583   8.906  0.3032  0.2301  0.1312
  158loPI   C4A 2522   1.925  14.625   8.502 -0.1227  0.0803  0.1674
  158loPI   C5A 2523   1.961  14.718   8.064  0.1225  0.1275 -0.1655
  158loPI   C6A 2524   2.318  14.921   7.851 -0.0261 -0.1612 -0.2330
  158loPI   C1B 2525   2.532  14.499   9.575  0.0222 -0.0889  0.2786
  158loPI   C2B 2526   2.527  14.389   9.150 -0.1193 -0.0074  0.3526
  158loPI   C3B 2527   2.460  14.410   8.680  0.3421 -0.0319 -0.0742
  158loPI   C4B 2528   2.450  14.435   8.179 -0.1233  0.0372  0.1020
  159loPI    C1 2529   9.153  12.334  10.410  0.0377 -0.1054 -0.1748
  159loPI    C2 2530   9.144  12.066  10.707 -0.0821  0.0432 -0.0428
  159loPI    C3 2531   9.205  11.946  10.331  0.1653 -0.1364  0.0521
  159loPI   PO4 2532   9.291  12.550  10.474  0.2494 -0.0871 -0.0534
  159loPI   GL1 2533   9.490  12.871  10.191  0.0019 -0.2019 -0.2280
  159loPI   GL2 2534   9.158  12.822  10.105  0.0402 -0.0892  0.3605
  159loPI   C1A 2535   9.538  12.890   9.803 -0.2719  0.0790 -0.1999
  159loPI   C2A 2536   9.546  12.924   9.317 -0.1328 -0.0318 -0.1357
  159loPI   C3A 2537   9.419  12.919   8.844  0.2479 -0.2380 -0.1223
  159loPI   C4A 2538   9.639  12.851   8.412  0.0657 -0.2504  0.2172
  159loPI   C5A 2539   9.501  12.552   8.088 -0.0744 -0.3978 -0.0977
  159loPI   C6A 2540   9.576  12.107   7.951  0.2704 -0.0426  0.0960
  159loPI   C1B 2541   9.175  12.591   9.664  0.0335  0.3373  0.1406
  159loPI   C2B 2542   9.147  12.661   9.263 -0.2236  0.0950  0.0616
  159loPI   C3B 2543   9.070  12.571   8.792  0.0370  0.0707 -0.0119
  159loPI   C4B 2544   9.033  12.696   8.294 -0.3381 -0.1440 -0.2353
  160loPI    C1 2545  15.329   9.523  10.757 -0.2511 -0.0333 -0.2024
  160loPI    C2 2546  15.282   9.910  10.848 -0.1402 -0.0946  0.1314
  160loPI    C3 2547  15.449   9.661  11.113 -0.2642 -0.3848 -0.0573
  160loPI   PO4 2548  15.339   9.601  10.441  0.1694  0.1510  0.0691
  160loPI   GL1 2549  15.561   9.537  10.058 -0.1415  0.0165 -0.1556
  160loPI   GL2 2550  15.845   9.640   9.997 -0.1517  0.0124 -0.0171
  160loPI   C1A 2551  15.536   9.502   9.629  0.1924  0.0832  0.0915
  160loPI   C2A 2552  15.511   9.307   9.265 -0.2584 -0.3355  0.4271
  160loPI   C3A 2553  15.559   9.495   8.804 -0.0663 -0.0713 -0.2668
  160loPI   C4A 2554  15.608   9.458   8.357 -0.1627  0.3336  0.2348
  160loPI   C5A 2555  15.480   9.694   8.088 -0.2189  0.2149 -0.0084
  160loPI   C6A 2556  15.559  10.071   7.902  0.7028 -0.1050  0.1068
  160loPI   C1B 2557  16.013   9.399   9.591  0.0072 -0.1363  0.2006
  160loPI   C2B 2558  16.034   9.332   9.223  0.1205  0.1473 -0.0359
  160loPI   C3B 2559  16.096   9.390   8.785  0.0160 -0.1902 -0.1552
  160loPI   C4B 2560  16.134   9.471   8.374 -0.1462  0.0238 -0.1533
  161loPI    C1 2561   4.512  11.279  10.978  0.0895  0.2198 -0.0683
  161loPI    C2 2562   4.886  11.419  11.005  0.0998  0.1552  0.1483
  161loPI    C3 2563   4.626  11.486  11.301 -0.0376  0.1316  0.0342
  161loPI   PO4 2564   4.439  11.370  10.696  0.1573 -0.0500 -0.3298
  161loPI   GL1 2565   4.511  11.426  10.264  0.2632  0.0277 -0.2341
  161loPI   GL2 2566   4.498  11.068  10.241  0.5454 -0.0685 -0.3108
  161loPI   C1A 2567   4.800  11.445   9.832 -0.0430  0.3469 -0.1058
  161loPI   C2A 2568   4.714  11.528   9.360 -0.0209  0.1815  0.2783
  161loPI   C3A 2569   4.643  11.455   8.950 -0.3212  0.1679  0.0393
  161loPI   C4A 2570   4.702  11.488   8.511  0.0758 -0.1695 -0.2057
  161loPI   C5A 2571   4.800  11.709   8.056  0.1827  0.0349  0.0928
  161loPI   C6A 2572   4.868  11.947   7.658  0.2264  0.1996 -0.0725
  161loPI   C1B 2573   4.343  11.136   9.866  0.0842 -0.0023 -0.1530
  161loPI   C2B 2574   4.215  11.165   9.510  0.0955  0.1357  0.2517
  161loPI   C3B 2575   4.196  11.231   9.128 -0.1637 -0.1131 -0.0148
  161loPI   C4B 2576   4.064  11.138   8.632  0.3037 -0.0184 -0.0920
  162loPI    C1 2577  12.853   0.732  11.079 -0.1671 -0.0890 -0.0188
  162loPI    C2 2578  13.057   0.446  11.271  0.0429  0.1402  0.1063
  162loPI    C3 2579  13.127   0.831  11.354 -0.2964  0.2283 -0.0000
  162loPI   PO4 2580  12.883   0.698  10.832  0.0794  0.0300  0.3074
  162loPI   GL1 2581  13.024   0.672  10.488 -0.0407  0.1584 -0.0296
  162loPI   GL2 2582  13.344   0.415  10.430  0.2996  0.0668  0.0800
  162loPI   C1A 2583  12.831   0.501  10.071 -0.2487  0.0858  0.0916
  162loPI   C2A 2584  12.839   0.473   9.635  0.0504  0.1131  0.0720
  162loPI   C3A 2585  12.929   0.454   9.235  0.1000 -0.1304 -0.0424
  162loPI   C4A 2586  13.036   0.492   8.793 -0.0099  0.1855 -0.1861
  162loPI   C5A 2587  13.071   0.384   8.387 -0.1388  0.0496  0.2058
  162loPI   C6A 2588  12.957   0.081   8.086 -0.0376 -0.4263 -0.1270
  162loPI   C1B 2589  13.352   0.280   9.991  0.2120  0.0176  0.0365
  162loPI   C2B 2590  13.341   0.232   9.544 -0.2389 -0.2250  0.0380
  162loPI   C3B 2591  13.457   0.286   9.114 -0.0451 -0.0025  0.1773
  162loPI   C4B 2592  13.492   0.280   8.705  0.2923  0.0647  0.2349
  163loPI    C1 2593  14.197   0.835  10.741  0.0231 -0.0231  0.0590
  163loPI    C2 2594  13.878   0.635  10.876  0.1167 -0.1563  0.0850
  163loPI    C3 2595  13.910   1.029  10.941  0.0242 -0.1677  0.2023
  163loPI   PO4 2596  14.171   0.712  10.511 -0.0039 -0.1506  0.0938
  163loPI   GL1 2597  13.935   0.987  10.109  0.3568  0.1463 -0.0319
  163loPI   GL2 2598  13.686   1.153   9.991 -0.0519 -0.1944  0.1231
  163loPI   C1A 2599  14.107   0.933   9.755  0.0865  0.2579  0.0056
  163loPI   C2A 2600  14.264   0.858   9.288  0.2091  0.0306  0.2077
  163loPI   C3A 2601  14.289   0.916   8.862  0.1484  0.1069  0.1190
  163loPI   C4A 2602  14.208   0.936   8.453  0.1498 -0.1811  0.1718
  163loPI   C5A 2603  14.070   0.973   8.030  0.2391  0.1158 -0.0071
  163loPI   C6A 2604  13.631   1.242   7.979  0.0841  0.1122  0.0153
  163loPI   C1B 2605  13.656   1.059   9.606  0.1139 -0.1421  0.1156
  163loPI   C2B 2606  13.821   1.010   9.294 -0.1351 -0.2542 -0.5108
  163loPI   C3B 2607  13.730   1.091   8.915 -0.3930  0.2800  0.1497
  163loPI   C4B 2608  13.771   1.151   8.463  0.0602 -0.2409  0.2819
  164loPI    C1 2609  17.349   0.524  10.367 -0.1121 -0.1017 -0.1670
  164loPI    C2 2610  17.344   0.806  10.650  0.0987 -0.2319 -0.0312
  164loPI    C3 2611  17.334   0.419  10.753 -0.0565 -0.2770 -0.2114
  164loPI   PO4 2612  17.576   0.655  10.237  0.1120  0.3238 -0.1530
  164loPI   GL1 2613  17.688   0.538   9.826 -0.2544 -0.3087  0.0858
  164loPI   GL2 2614  17.912   0.636   9.889  0.1495  0.0886 -0.3348
  164loPI   C1A 2615  17.765   0.618   9.372 -0.2824 -0.1295  0.0894
  164loPI   C2A 2616  17.784   0.597   8.895  0.0931 -0.1156 -0.0856
  164loPI   C3A 2617  17.599   0.438   8.467  0.1550 -0.2989 -0.0546
  164loPI   C4A 2618  17.611   0.358   8.047  0.0084 -0.1433 -0.0925
  164loPI   C5A 2619  17.246   0.250   7.945 -0.0509 -0.2750  0.0253
  164loPI   C6A 2620  16.798   0.142   7.996 -0.0496  0.3684  0.1751
  164loPI   C1B 2621  18.150   0.501   9.669 -0.2931  0.0819  0.4050
  164loPI   C2B 2622  18.139   0.326   9.175  0.1371 -0.0047  0.0731
  164loPI   C3B 2623  18.087   0.236   8.764  0.0132 -0.0999  0.5367
  164loPI   C4B 2624  18.004   0.185   8.349  0.2046 -0.0827 -0.2296
  165loPI    C1 2625  10.979   9.721  11.314  0.0300 -0.0276  0.0983
  165loPI    C2 2626  10.835  10.026  11.529 -0.2404 -0.0697 -0.0196
  165loPI    C3 2627  10.878   9.666  11.697 -0.2944 -0.0621  0.0108
  165loPI   PO4 2628  10.767   9.587  11.120  0.3162 -0.0778 -0.2573
  165loPI   GL1 2629  10.860   9.290  10.792 -0.3612 -0.0281 -0.1640
  165loPI   GL2 2630  10.744   9.202  10.511 -0.0028  0.1026 -0.0325
  165loPI   C1A 2631  11.177   9.404  10.445  0.5488 -0.2339 -0.0544
  165loPI   C2A 2632  11.348   9.427   9.993 -0.2083 -0.1095  0.2707
  165loPI   C3A 2633  11.378   9.424   9.486  0.4899  0.1597 -0.0516
  165loPI   C4A 2634  11.330   9.487   9.022 -0.1242  0.5681  0.0614
  165loPI   C5A 2635  11.312   9.448   8.586 -0.1543 -0.0595  0.1287
  165loPI   C6A 2636  11.218   9.748   8.324  0.3317  0.0484 -0.0581
  165loPI   C1B 2637  10.769   9.353  10.111  0.0492 -0.4682  0.0428
  165loPI   C2B 2638  10.751   9.444   9.683 -0.0315 -0.0651  0.1854
  165loPI   C3B 2639  10.809   9.482   9.282 -0.3236  0.1031  0.1155
  165loPI   C4B 2640  10.868   9.328   8.828 -0.0397 -0.2178 -0.0585
  166loPI    C1 2641   3.151  15.670  10.942 -0.0404  0.0187 -0.0468
  166loPI    C2 2642   3.507  15.852  10.952 -0.0877  0.1102 -0.0083
  166loPI    C3 2643   3.366  15.669  11.279 -0.0267 -0.0235 -0.0556
  166loPI   PO4 2644   3.197  15.501  10.779  0.5749  0.2004 -0.0657
  166loPI   GL1 2645   3.043  15.474  10.293  0.1864  0.1399 -0.2718
  166loPI   GL2 2646   3.296  15.613  10.121  0.0979  0.1007  0.0124
  166loPI   C1A 2647   2.908  15.344   9.935 -0.0743 -0.2608  0.1509
  166loPI   C2A 2648   2.844  15.323   9.497  0.0740  0.1340 -0.0675
  166loPI   C3A 2649   2.848  15.131   9.109  0.1266 -0.2142  0.0824
  166loPI   C4A 2650   2.792  15.121   8.700 -0.0238  0.0610  0.0157
  166loPI   C5A 2651   2.827  15.253   8.300 -0.1212  0.1550 -0.1103
  166loPI   C6A 2652   3.059  15.192   7.956  0.4099  0.0417  0.0102
  166loPI   C1B 2653   3.284  15.605   9.702  0.0656  0.1595 -0.2495
  166loPI   C2B 2654   3.257  15.558   9.202 -0.3782 -0.1182 -0.0394
  166loPI   C3B 2655   3.226  15.435   8.698 -0.1789  0.2055 -0.0477
  166loPI   C4B 2656   3.253  15.569   8.238  0.1016  0.0656 -0.3227
  167loPI    C1 2657  16.733  17.192  10.645 -0.0530  0.3257  0.0516
  167loPI    C2 2658  16.638  16.810  10.717  0.2885  0.2094 -0.0895
  167loPI    C3 2659  16.510  17.099  10.964 -0.0640  0.0191 -0.0425
  167loPI   PO4 2660  16.659  17.208  10.436  0.0629 -0.2495 -0.1352
  167loPI   GL1 2661  16.753  17.190   9.954 -0.1099  0.0188 -0.1245
  167loPI   GL2 2662  17.211  17.172   9.951 -0.0374 -0.1585 -0.0510
  167loPI   C1A 2663  16.697  17.152   9.450 -0.2821 -0.3043 -0.0292
  167loPI   C2A 2664  16.703  17.200   8.993 -0.0010  0.1388  0.0868
  167loPI   C3A 2665  16.756  17.156   8.694 -0.0190 -0.0606 -0.3269
  167loPI   C4A 2666  16.717  17.199   8.307 -0.0865 -0.1716  0.0813
  167loPI   C5A 2667  16.426  17.372   7.977  0.0267  0.1717 -0.1867
  167loPI   C6A 2668  16.158  17.585   7.695 -0.3784  0.2785 -0.0268
  167loPI   C1B 2669  17.100  17.452   9.517 -0.0823  0.0996 -0.0376
  167loPI   C2B 2670  17.194  17.547   9.212 -0.0736  0.6060  0.2177
  167loPI   C3B 2671  17.090  17.536   8.892 -0.0446  0.2802 -0.0410
  167loPI   C4B 2672  17.127  17.484   8.466  0.0973  0.2458  0.0695
  168loPI    C1 2673  11.230  15.861  11.174 -0.1142  0.0318 -0.0133
  168loPI    C2 2674  11.202  16.143  11.456  0.0042 -0.0720  0.1033
  168loPI    C3 2675  11.372  15.791  11.541  0.4371  0.0519 -0.2134
  168loPI   PO4 2676  11.224  16.047  10.933 -0.1149 -0.1084  0.2708
  168loPI   GL1 2677  11.166  16.095  10.416 -0.1048 -0.1425 -0.1261
  168loPI   GL2 2678  11.135  15.753  10.456 -0.0538  0.0183 -0.3037
  168loPI   C1A 2679  11.483  16.072  10.107  0.1541  0.0307  0.0915
  168loPI   C2A 2680  11.369  16.060   9.673 -0.0581 -0.2351  0.0007
  168loPI   C3A 2681  11.378  16.023   9.235  0.0034  0.0137  0.1716
  168loPI   C4A 2682  11.443  16.061   8.853 -0.1456  0.1503  0.1903
  168loPI   C5A 2683  11.470  16.204   8.394  0.1760 -0.0968  0.0355
  168loPI   C6A 2684  11.212  15.879   8.002 -0.0988  0.0330 -0.0168
  168loPI   C1B 2685  11.086  15.812   9.949  0.0449 -0.0187  0.3262
  168loPI   C2B 2686  11.054  15.731   9.466 -0.0618 -0.1471  0.0281
  168loPI   C3B 2687  11.057  15.719   9.016 -0.1872 -0.3403  0.0742
  168loPI   C4B 2688  11.140  15.790   8.635 -0.0094  0.1676  0.0363
  169loPI    C1 2689   3.384  16.750  10.557  0.1974  0.1479 -0.1943
  169loPI    C2 2690   3.339  17.110  10.724 -0.0313 -0.0871  0.2708
  169loPI    C3 2691   3.611  16.855  10.870  0.0027 -0.1724  0.0610
  169loPI   PO4 2692   3.329  16.764  10.333  0.3704 -0.1468  0.0966
  169loPI   GL1 2693   3.687  16.781  10.128 -0.0175  0.0334  0.0111
  169loPI   GL2 2694   3.940  16.757  10.028  0.1036  0.1317  0.0040
  169loPI   C1A 2695   3.487  16.895   9.728 -0.0791 -0.2441  0.2841
  169loPI   C2A 2696   3.428  16.974   9.301  0.1152 -0.0916 -0.1052
  169loPI   C3A 2697   3.562  16.909   8.901 -0.1047 -0.2090  0.2028
  169loPI   C4A 2698   3.387  16.892   8.418  0.4580 -0.3441 -0.1011
  169loPI   C5A 2699   3.455  16.871   8.014  0.3493 -0.2223 -0.1160
  169loPI   C6A 2700   3.953  16.818   8.004 -0.2507  0.0769  0.3902
  169loPI   C1B 2701   3.983  16.701   9.669  0.0930  0.0714 -0.0777
  169loPI   C2B 2702   3.964  16.726   9.206 -0.0198  0.1521  0.3401
  169loPI   C3B 2703   3.995  16.711   8.851  0.1122  0.0128 -0.0305
  169loPI   C4B 2704   3.909  16.770   8.491  0.1426  0.0146 -0.0855
  170loPI    C1 2705  15.229  17.045  10.702 -0.0509  0.0251 -0.0282
  170loPI    C2 2706  15.564  16.839  10.774 -0.2076 -0.2556 -0.0880
  170loPI    C3 2707  15.491  17.178  10.973  0.2790  0.0002 -0.3271
  170loPI   PO4 2708  15.190  17.022  10.452  0.0764  0.3822 -0.1365
  170loPI   GL1 2709  15.085  16.824  10.125 -0.1294  0.1415  0.0250
  170loPI   GL2 2710  14.868  16.666  10.229  0.1438 -0.0460  0.0500
  170loPI   C1A 2711  15.003  16.941   9.733 -0.1685  0.1363 -0.0102
  170loPI   C2A 2712  14.934  16.915   9.294  0.0774  0.1046  0.0237
  170loPI   C3A 2713  14.883  16.902   8.913 -0.1646  0.0531  0.1066
  170loPI   C4A 2714  15.010  16.961   8.471  0.0696 -0.1731 -0.0024
  170loPI   C5A 2715  14.720  16.967   8.055 -0.0363  0.0297  0.1071
  170loPI   C6A 2716  14.818  16.678   7.770  0.0798 -0.0234  0.4370
  170loPI   C1B 2717  14.547  16.717  10.045  0.1959  0.3393 -0.1854
  170loPI   C2B 2718  14.554  16.703   9.601  0.0626  0.4526 -0.1172
  170loPI   C3B 2719  14.546  16.604   9.146 -0.1887  0.0064  0.0239
  170loPI   C4B 2720  14.513  16.535   8.732 -0.1579  0.0069  0.0204
  171loPI    C1 2721   8.177  10.248  11.264 -0.0899 -0.0220 -0.1228
  171loPI    C2 2722   8.043  10.132  11.623  0.1473 -0.0319 -0.0356
  171loPI    C3 2723   8.429  10.086  11.529  0.0615 -0.1515 -0.3427
  171loPI   PO4 2724   8.014  10.065  11.034  0.0456  0.0097  0.0469
  171loPI   GL1 2725   7.910  10.209  10.568  0.0528  0.0044  0.3011
  171loPI   GL2 2726   7.684  10.167  10.349  0.0725 -0.0998  0.3185
  171loPI   C1A 2727   8.010   9.860  10.175 -0.1696  0.0545  0.1489
  171loPI   C2A 2728   8.014   9.772   9.800 -0.0925 -0.0663  0.2128
  171loPI   C3A 2729   7.846   9.807   9.315 -0.1338 -0.3498  0.1953
  171loPI   C4A 2730   7.888   9.840   8.902  0.1364 -0.2254  0.3021
  171loPI   C5A 2731   8.002  10.026   8.435 -0.2664  0.0397  0.0093
  171loPI   C6A 2732   8.019  10.316   7.927 -0.2541 -0.0371 -0.1720
  171loPI   C1B 2733   7.809  10.304   9.897  0.0306  0.1115 -0.1319
  171loPI   C2B 2734   7.985  10.518   9.529  0.1053  0.0676  0.1277
  171loPI   C3B 2735   7.965  10.604   9.059 -0.0931 -0.0433  0.2287
  171loPI   C4B 2736   7.949  10.578   8.565 -0.1450  0.0954  0.1193
  172loPI    C1 2737  10.580  15.746  10.933  0.1456  0.2497 -0.1675
  172loPI    C2 2738  10.728  15.966  11.233  0.1500 -0.0637  0.0655
  172loPI    C3 2739  10.524  15.631  11.312 -0.0209 -0.0453 -0.2780
  172loPI   PO4 2740  10.746  15.892  10.781  0.1373  0.0999  0.0379
  172loPI   GL1 2741  10.710  15.933  10.325  0.0919  0.1535  0.2447
  172loPI   GL2 2742  10.848  16.237  10.085  0.2005 -0.0794 -0.0426
  172loPI   C1A 2743  10.590  15.974   9.800 -0.1845  0.2791  0.1656
  172loPI   C2A 2744  10.550  15.930   9.315 -0.2868 -0.0882 -0.0568
  172loPI   C3A 2745  10.525  15.969   8.883 -0.2915  0.1130 -0.1996
  172loPI   C4A 2746  10.572  15.905   8.439  0.0796 -0.0395 -0.0799
  172loPI   C5A 2747  10.280  15.735   8.079 -0.2051  0.2964 -0.3206
  172loPI   C6A 2748   9.872  15.534   7.878 -0.1129 -0.1305 -0.1399
  172loPI   C1B 2749  10.928  16.286   9.632  0.1324 -0.0964 -0.0916
  172loPI   C2B 2750  10.949  16.250   9.218 -0.2138 -0.0985 -0.2953
  172loPI   C3B 2751  10.955  16.324   8.801 -0.3857 -0.0368 -0.3371
  172loPI   C4B 2752  10.962  16.237   8.350  0.1981  0.2732 -0.4872
  173loPI    C1 2753   7.668   0.508  10.105  0.0106  0.0302 -0.1626
  173loPI    C2 2754   7.772   0.122  10.103 -0.0286  0.0192 -0.1071
  173loPI    C3 2755   7.469   0.246  10.333  0.2734  0.1585  0.2255
  173loPI   PO4 2756   7.566   0.616   9.951  0.0741  0.0835  0.2299
  173loPI   GL1 2757   7.331   0.551   9.555 -0.0514  0.1169  0.1007
  173loPI   GL2 2758   7.278   0.323   9.371  0.1274 -0.0696  0.0341
  173loPI   C1A 2759   7.266   0.751   9.190 -0.1414 -0.1152 -0.1527
  173loPI   C2A 2760   7.136   0.791   8.784  0.1618 -0.0584 -0.1227
  173loPI   C3A 2761   6.869   0.891   8.449  0.1114 -0.2282 -0.5184
  173loPI   C4A 2762   6.681   0.991   8.097 -0.2128  0.1481  0.0110
  173loPI   C5A 2763   6.386   1.319   7.874 -0.1282  0.1434  0.0999
  173loPI   C6A 2764   5.962   1.584   7.740  0.1903  0.1333  0.1072
  173loPI   C1B 2765   7.259   0.332   8.890 -0.1604 -0.2672  0.0917
  173loPI   C2B 2766   7.394   0.496   8.507 -0.0329  0.2020 -0.0941
  173loPI   C3B 2767   7.411   0.450   8.117 -0.2212  0.0790 -0.1711
  173loPI   C4B 2768   7.476   0.412   7.592 -0.1475 -0.0497 -0.0665
  174loPI    C1 2769   2.960   7.363  10.957  0.0657 -0.1300 -0.0458
  174loPI    C2 2770   3.238   7.164  10.750  0.0092  0.0104 -0.2601
  174loPI    C3 2771   2.929   6.967  10.910  0.0828 -0.1067 -0.2609
  174loPI   PO4 2772   2.977   7.564  10.766 -0.2940 -0.4036 -0.1781
  174loPI   GL1 2773   2.920   7.783  10.300  0.2168  0.1815 -0.0119
  174loPI   GL2 2774   2.950   7.402  10.299  0.0806  0.1770 -0.0586
  174loPI   C1A 2775   3.058   8.004   9.876  0.3608 -0.2074  0.3187
  174loPI   C2A 2776   3.136   7.969   9.458  0.0814  0.1886  0.0666
  174loPI   C3A 2777   3.234   7.833   9.075 -0.1177  0.2056  0.1236
  174loPI   C4A 2778   3.123   7.845   8.657 -0.2887  0.1624  0.1535
  174loPI   C5A 2779   2.817   7.809   8.381  0.1641  0.0743  0.0820
  174loPI   C6A 2780   2.433   7.891   8.192 -0.2830 -0.2074  0.0673
  174loPI   C1B 2781   2.852   7.489   9.877 -0.0403 -0.4672 -0.2362
  174loPI   C2B 2782   2.872   7.535   9.495 -0.1274  0.2701 -0.1604
  174loPI   C3B 2783   2.895   7.454   9.109  0.1354  0.2449  0.3242
  174loPI   C4B 2784   2.820   7.465   8.749 -0.2829  0.1160  0.0054
  175loPI    C1 2785  16.240  11.790  10.250  0.1517  0.0292  0.1277
  175loPI    C2 2786  16.564  11.999  10.144  0.1044 -0.1274 -0.3521
  175loPI    C3 2787  16.550  11.605  10.078 -0.0506 -0.1820 -0.0161
  175loPI   PO4 2788  16.031  11.895  10.212  0.1657  0.1633  0.3849
  175loPI   GL1 2789  15.931  12.160  10.062  0.0401  0.1669 -0.0842
  175loPI   GL2 2790  15.582  12.284   9.971  0.2594 -0.1033 -0.0467
  175loPI   C1A 2791  15.811  12.112   9.575 -0.2722  0.1759 -0.0937
  175loPI   C2A 2792  15.921  11.943   9.206 -0.2135  0.0674  0.1548
  175loPI   C3A 2793  15.924  11.916   8.747 -0.1532  0.3842 -0.0243
  175loPI   C4A 2794  16.082  11.985   8.259 -0.2666  0.0481 -0.2024
  175loPI   C5A 2795  16.471  11.998   7.958  0.0800  0.0594  0.3429
  175loPI   C6A 2796  16.688  12.348   7.708 -0.0126  0.0434 -0.0496
  175loPI   C1B 2797  15.382  12.281   9.488  0.1480 -0.1546 -0.4705
  175loPI   C2B 2798  15.514  12.145   9.001  0.1138  0.1261 -0.1286
  175loPI   C3B 2799  15.440  12.163   8.504 -0.0650  0.1751  0.1219
  175loPI   C4B 2800  15.630  12.063   8.085  0.2482 -0.2089  0.0040
  176loPI    C1 2801  15.383  17.648  10.786 -0.0632  0.1531 -0.0207
  176loPI    C2 2802  15.774  17.580  10.834 -0.0903  0.0188  0.0145
  176loPI    C3 2803  15.619  17.936  10.933  0.0446  0.1169 -0.1225
  176loPI   PO4 2804  15.381  17.536  10.473 -0.1353 -0.3719  0.0615
  176loPI   GL1 2805  15.364  17.290  10.064  0.1104  0.0670  0.3083
  176loPI   GL2 2806  15.765  17.475   9.991 -0.2881 -0.2705 -0.0372
  176loPI   C1A 2807  15.398  17.314   9.616  0.0061 -0.0832 -0.0373
  176loPI   C2A 2808  15.366  17.259   9.132 -0.0109  0.1180  0.0252
  176loPI   C3A 2809  15.403  17.260   8.795 -0.0943  0.1801 -0.0325
  176loPI   C4A 2810  15.384  17.251   8.334 -0.0435  0.0446  0.0812
  176loPI   C5A 2811  15.083  17.316   7.915  0.2886  0.2377  0.0475
  176loPI   C6A 2812  14.926  17.050   7.500  0.0596  0.2413 -0.0582
  176loPI   C1B 2813  15.818  17.571   9.579 -0.2736  0.0376  0.0046
  176loPI   C2B 2814  15.756  17.575   9.091  0.0460 -0.1257  0.0220
  176loPI   C3B 2815  15.851  17.485   8.640  0.0942  0.0932  0.1182
  176loPI   C4B 2816  15.894  17.379   8.199 -0.1949 -0.3432 -0.0859
  177loPI    C1 2817  17.433  11.065  10.189  0.2680  0.0020  0.0117
  177loPI    C2 2818  17.166  11.362  10.178 -0.2249 -0.4174  0.2592
  177loPI    C3 2819  17.515  11.415  10.365 -0.2218  0.0629  0.1316
  177loPI   PO4 2820  17.235  10.846  10.136  0.2048  0.0136 -0.1915
  177loPI   GL1 2821  17.094  10.728   9.833 -0.0104  0.0360 -0.0247
  177loPI   GL2 2822  17.020  11.003   9.734  0.1564  0.1998  0.0210
  177loPI   C1A 2823  17.231  10.334   9.666  0.1313  0.5065 -0.0610
  177loPI   C2A 2824  17.265  10.281   9.182  0.0929  0.0016 -0.0108
  177loPI   C3A 2825  17.244  10.304   8.737 -0.3843  0.0559 -0.0003
  177loPI   C4A 2826  17.115  10.320   8.362 -0.1280 -0.4290 -0.0148
  177loPI   C5A 2827  17.029  10.449   7.976 -0.1558 -0.3570  0.1480
  177loPI   C6A 2828  16.609  10.406   7.700  0.1381  0.0418 -0.0596
  177loPI   C1B 2829  17.020  10.789   9.379 -0.1323  0.1344  0.1994
  177loPI   C2B 2830  16.974  10.657   9.093  0.0004  0.3289 -0.3535
  177loPI   C3B 2831  17.014  10.761   8.726  0.0012 -0.1335 -0.1604
  177loPI   C4B 2832  16.991  10.810   8.281  0.0325  0.3375  0.2894
  178loPI    C1 2833  15.131   7.103  10.592  0.3339  0.0606  0.1868
  178loPI    C2 2834  15.010   7.402  10.828 -0.1035  0.1010 -0.0771
  178loPI    C3 2835  14.918   7.024  10.922 -0.0878  0.0993 -0.0689
  178loPI   PO4 2836  15.056   7.133  10.386 -0.2746  0.1082 -0.0509
  178loPI   GL1 2837  14.855   7.231  10.034 -0.2425 -0.2378 -0.1844
  178loPI   GL2 2838  14.607   7.093   9.878  0.0358  0.0706  0.1276
  178loPI   C1A 2839  14.993   7.611   9.771  0.0499 -0.0306 -0.3298
  178loPI   C2A 2840  14.938   7.637   9.304 -0.0803  0.1702  0.0326
  178loPI   C3A 2841  14.960   7.737   8.818  0.3084  0.1803  0.0822
  178loPI   C4A 2842  14.893   7.757   8.384 -0.3555 -0.0495  0.1847
  178loPI   C5A 2843  14.920   7.634   8.014  0.3445  0.0521  0.0085
  178loPI   C6A 2844  14.863   7.951   7.629 -0.0191 -0.1505 -0.0742
  178loPI   C1B 2845  14.715   7.202   9.455  0.0122 -0.1481 -0.0621
  178loPI   C2B 2846  14.769   7.194   9.117 -0.0540  0.0936  0.0205
  178loPI   C3B 2847  14.792   7.287   8.658  0.1100  0.1729  0.2550
  178loPI   C4B 2848  14.625   7.220   8.220  0.1855 -0.1106 -0.0393
  179loPI    C1 2849   1.444  15.458  10.595 -0.1563  0.3660 -0.0921
  179loPI    C2 2850   1.659  15.556  10.917  0.0071  0.0514 -0.1019
  179loPI    C3 2851   1.322  15.345  10.959 -0.0638  0.1595 -0.1238
  179loPI   PO4 2852   1.701  15.382  10.463 -0.2388  0.1710  0.1163
  179loPI   GL1 2853   1.625  15.586  10.073  0.2166 -0.2202  0.1057
  179loPI   GL2 2854   1.523  15.318   9.874 -0.0008 -0.1113  0.0388
  179loPI   C1A 2855   1.856  15.669   9.736  0.2098  0.1325  0.1059
  179loPI   C2A 2856   1.876  15.684   9.315 -0.0434 -0.0458 -0.1144
  179loPI   C3A 2857   1.877  15.583   8.885 -0.2105  0.1208  0.1170
  179loPI   C4A 2858   1.803  15.639   8.406  0.1211  0.0642  0.3920
  179loPI   C5A 2859   1.893  15.459   7.996  0.0135  0.2602  0.2119
  179loPI   C6A 2860   1.871  15.108   7.782 -0.0219  0.0368 -0.2539
  179loPI   C1B 2861   1.547  15.340   9.432 -0.1603 -0.0542 -0.2340
  179loPI   C2B 2862   1.477  15.332   8.968  0.0573  0.0771 -0.1095
  179loPI   C3B 2863   1.536  15.252   8.527 -0.1080 -0.1777  0.1049
  179loPI   C4B 2864   1.450  15.226   8.107 -0.0144 -0.4232  0.3420
  180loPI    C1 2865   9.918   4.116  10.374 -0.1218 -0.1130  0.3576
  180loPI    C2 2866   9.746   3.765  10.461 -0.0286 -0.3247 -0.2602
  180loPI    C3 2867  10.144   3.794  10.447 -0.0347 -0.1730 -0.1419
  180loPI   PO4 2868   9.815   4.185  10.149  0.0217 -0.1486 -0.0659
  180loPI   GL1 2869   9.802   4.042   9.690 -0.2201  0.0180 -0.2194
  180loPI   GL2 2870   9.534   4.269   9.727 -0.0816  0.1439 -0.1471
  180loPI   C1A 2871   9.899   3.974   9.258 -0.0497 -0.1937  0.1532
  180loPI   C2A 2872   9.870   4.001   8.884  0.0389 -0.0918 -0.1792
  180loPI   C3A 2873   9.795   3.960   8.506 -0.0514 -0.0697  0.0634
  180loPI   C4A 2874   9.719   4.066   8.147 -0.2043 -0.1575  0.3347
  180loPI   C5A 2875   9.696   4.059   7.681 -0.0547  0.1133  0.0504
  180loPI   C6A 2876   9.522   3.787   7.335 -0.1882 -0.1110 -0.1464
  180loPI   C1B 2877   9.611   4.458   9.334  0.0308  0.2044  0.0257
  180loPI   C2B 2878   9.557   4.458   8.922  0.0834 -0.1835 -0.1328
  180loPI   C3B 2879   9.538   4.378   8.498 -0.2486 -0.2162 -0.2519
  180loPI   C4B 2880   9.517   4.557   8.106 -0.1754 -0.3183 -0.1656
  181loPI    C1 2881   3.697   9.241  10.815  0.2032 -0.3952  0.0119
  181loPI    C2 2882   3.462   8.948  10.954 -0.1941  0.0210  0.2454
  181loPI    C3 2883   3.632   9.205  11.209 -0.0469  0.1409  0.0292
  181loPI   PO4 2884   3.595   9.445  10.590  0.0581 -0.1050  0.2471
  181loPI   GL1 2885   3.458   9.362  10.122 -0.1571 -0.2680 -0.1494
  181loPI   GL2 2886   3.345   9.578   9.902 -0.0057 -0.1853 -0.2177
  181loPI   C1A 2887   3.756   9.317   9.827 -0.1822  0.1253  0.0543
  181loPI   C2A 2888   3.842   9.304   9.396  0.0808 -0.0302  0.0025
  181loPI   C3A 2889   4.025   9.335   9.040  0.0827  0.1002 -0.1495
  181loPI   C4A 2890   4.085   9.285   8.519  0.4090  0.2690  0.0900
  181loPI   C5A 2891   3.847   9.504   8.174 -0.2965  0.1607 -0.1372
  181loPI   C6A 2892   3.533   9.645   7.999  0.0027 -0.0559 -0.0467
  181loPI   C1B 2893   3.448   9.537   9.485  0.1954  0.0885  0.1553
  181loPI   C2B 2894   3.498   9.428   9.051 -0.0783  0.1282  0.2434
  181loPI   C3B 2895   3.491   9.213   8.627 -0.0251  0.1031 -0.3149
  181loPI   C4B 2896   3.502   9.089   8.160  0.0276  0.1600 -0.2383
  182loPI    C1 2897  12.668  14.345  11.100 -0.1808 -0.0932 -0.3474
  182loPI    C2 2898  12.284  14.323  11.210 -0.0441  0.0187  0.1814
  182loPI    C3 2899  12.516  14.614  11.354  0.2752 -0.1270 -0.0275
  182loPI   PO4 2900  12.673  14.226  10.887  0.0375 -0.2139 -0.0591
  182loPI   GL1 2901  12.723  14.395  10.469 -0.2825  0.0788  0.1245
  182loPI   GL2 2902  12.572  14.268  10.297  0.0977  0.1386  0.0962
  182loPI   C1A 2903  12.932  14.499  10.049 -0.1386  0.0319 -0.0973
  182loPI   C2A 2904  13.016  14.511   9.648 -0.0146 -0.1147 -0.0785
  182loPI   C3A 2905  12.985  14.403   9.191  0.1941  0.0865 -0.0365
  182loPI   C4A 2906  12.958  14.316   8.768 -0.0816  0.2560 -0.1416
  182loPI   C5A 2907  13.053  14.327   8.282  0.0413 -0.0839  0.0621
  182loPI   C6A 2908  12.693  14.348   7.984 -0.3400 -0.1866 -0.1461
  182loPI   C1B 2909  12.565  14.191   9.802  0.0806  0.2028 -0.1478
  182loPI   C2B 2910  12.556  14.123   9.360 -0.0945 -0.0323  0.1081
  182loPI   C3B 2911  12.522  14.162   8.991 -0.0857 -0.0640  0.0266
  182loPI   C4B 2912  12.625  14.077   8.501 -0.1063  0.0530  0.0482
  183loPI    C1 2913   4.446   2.299  10.368 -0.1495 -0.1976 -0.0272
  183loPI    C2 2914   4.080   2.142  10.407 -0.1947 -0.0284  0.2659
  183loPI    C3 2915   4.379   2.014  10.640 -0.1261  0.0091  0.1992
  183loPI   PO4 2916   4.545   2.238  10.143 -0.1438  0.0974 -0.1376
  183loPI   GL1 2917   4.702   1.947   9.848 -0.1418 -0.1530 -0.3944
  183loPI   GL2 2918   4.592   2.021   9.691 -0.0595  0.1763  0.1913
  183loPI   C1A 2919   5.036   1.886   9.455  0.1370  0.2279 -0.2908
  183loPI   C2A 2920   4.962   1.845   9.017 -0.2761 -0.0587 -0.1475
  183loPI   C3A 2921   4.844   1.737   8.610 -0.0326 -0.1006 -0.0080
  183loPI   C4A 2922   4.852   1.724   8.215 -0.2195  0.0616  0.1965
  183loPI   C5A 2923   4.739   1.638   7.717 -0.1112  0.0343 -0.0839
  183loPI   C6A 2924   4.511   1.302   7.410 -0.0924 -0.3074 -0.3510
  183loPI   C1B 2925   4.639   2.112   9.287  0.0909 -0.1872  0.2341
  183loPI   C2B 2926   4.588   2.151   8.872  0.3854 -0.2251 -0.0250
  183loPI   C3B 2927   4.608   2.184   8.426  0.1371 -0.0573  0.1227
  183loPI   C4B 2928   4.516   2.237   7.995  0.1486 -0.0892 -0.1464
  184loPI    C1 2929  17.799  14.223  10.405  0.2405 -0.1504  0.0691
  184loPI    C2 2930  18.124  14.211  10.639  0.1888  0.2862  0.1724
  184loPI    C3 2931  17.760  14.236  10.803  0.1315  0.2701  0.0492
  184loPI   PO4 2932  17.829  14.082  10.193 -0.2130  0.0805  0.2289
  184loPI   GL1 2933  17.457  13.937   9.952 -0.0016 -0.0602  0.0194
  184loPI   GL2 2934  17.458  14.259   9.855 -0.0237  0.1934  0.0065
  184loPI   C1A 2935  17.300  13.856   9.589 -0.1713 -0.0185  0.0381
  184loPI   C2A 2936  17.071  13.797   9.141  0.1643  0.1969  0.0508
  184loPI   C3A 2937  17.177  14.047   8.750  0.2897 -0.0920  0.2046
  184loPI   C4A 2938  17.247  13.944   8.352  0.3787 -0.0141 -0.2513
  184loPI   C5A 2939  17.265  13.910   7.882  0.1918 -0.0330 -0.3727
  184loPI   C6A 2940  17.592  14.260   7.585 -0.0312  0.1298 -0.1100
  184loPI   C1B 2941  17.556  14.200   9.376  0.4352 -0.0644 -0.0801
  184loPI   C2B 2942  17.717  14.213   9.018  0.2354 -0.0271  0.2552
  184loPI   C3B 2943  17.579  14.319   8.523  0.0054  0.1420  0.1748
  184loPI   C4B 2944  17.750  14.300   8.134 -0.0401 -0.4565 -0.1069
  185loPI    C1 2945  18.321   8.308  10.964 -0.1697 -0.0550  0.0817
  185loPI    C2 2946  18.660   8.170  11.127  0.0052  0.3378  0.0615
  185loPI    C3 2947  18.494   8.506  11.266 -0.2582  0.2669 -0.0750
  185loPI   PO4 2948  18.382   8.264  10.630 -0.0425  0.0852  0.2547
  185loPI   GL1 2949  18.247   8.067  10.230  0.1810  0.1172  0.0844
  185loPI   GL2 2950  18.346   8.359  10.198  0.2335 -0.1314  0.2935
  185loPI   C1A 2951  18.315   8.116   9.783 -0.1130 -0.0457  0.2632
  185loPI   C2A 2952  18.448   8.051   9.398 -0.3094 -0.1919 -0.0184
  185loPI   C3A 2953  18.435   8.012   8.883  0.0028 -0.2523 -0.0662
  185loPI   C4A 2954  18.451   8.012   8.467 -0.1843 -0.0266  0.1461
  185loPI   C5A 2955  18.529   7.878   8.066 -0.1409  0.1013  0.2289
  185loPI   C6A 2956  18.624   7.704   7.697  0.0769 -0.0191  0.0849
  185loPI   C1B 2957  18.636   8.461   9.887 -0.0536 -0.0686 -0.0207
  185loPI   C2B 2958  18.711   8.483   9.473  0.0585 -0.0307 -0.3264
  185loPI   C3B 2959  18.578   8.425   9.040 -0.2204  0.0148  0.3313
  185loPI   C4B 2960  18.677   8.408   8.608  0.1644  0.2941  0.2828
  186loPI    C1 2961   6.850   3.317  10.558  0.1776  0.3442  0.1385
  186loPI    C2 2962   6.547   3.574  10.517 -0.1299 -0.0030  0.1827
  186loPI    C3 2963   6.513   3.263  10.766  0.1454 -0.2189 -0.0428
  186loPI   PO4 2964   6.837   3.227  10.286  0.0904  0.1200 -0.0382
  186loPI   GL1 2965   7.263   3.310   9.984  0.0596 -0.1046  0.1925
  186loPI   GL2 2966   7.075   3.488   9.815 -0.1912 -0.0989  0.3827
  186loPI   C1A 2967   7.586   3.410   9.649  0.2103 -0.1405 -0.0192
  186loPI   C2A 2968   7.571   3.561   9.255 -0.0747  0.2306 -0.3117
  186loPI   C3A 2969   7.549   3.626   8.896 -0.1085 -0.4600 -0.3177
  186loPI   C4A 2970   7.475   3.573   8.460  0.0478 -0.0145 -0.1770
  186loPI   C5A 2971   7.297   3.571   8.074  0.0830 -0.2830 -0.1471
  186loPI   C6A 2972   7.442   3.749   7.704  0.0487 -0.1310 -0.0972
  186loPI   C1B 2973   7.073   3.535   9.326  0.1513 -0.1160  0.0889
  186loPI   C2B 2974   7.051   3.526   8.792 -0.1089 -0.2711  0.0136
  186loPI   C3B 2975   6.936   3.592   8.421  0.2911 -0.2348 -0.3697
  186loPI   C4B 2976   6.794   3.652   8.047 -0.0691 -0.2568  0.1271
  187loPI    C1 2977   2.571   4.811  10.301 -0.2480  0.1038  0.2367
  187loPI    C2 2978   2.893   4.949  10.494 -0.1336  0.2217 -0.0333
  187loPI    C3 2979   2.562   5.173  10.472 -0.2125  0.1295  0.1845
  187loPI   PO4 2980   2.652   4.778  10.121  0.1070  0.1100 -0.0588
  187loPI   GL1 2981   2.876   4.825   9.784  0.0574  0.1061 -0.0443
  187loPI   GL2 2982   3.134   5.008   9.750 -0.1258  0.0247 -0.0845
  187loPI   C1A 2983   2.735   5.153   9.469  0.0554 -0.0187 -0.2476
  187loPI   C2A 2984   2.573   5.294   9.047  0.0968 -0.0100 -0.0853
  187loPI   C3A 2985   2.581   5.299   8.542 -0.4659  0.2656  0.0792
  187loPI   C4A 2986   2.703   5.309   8.142  0.0909 -0.4434  0.2442
  187loPI   C5A 2987   2.787   5.437   7.738  0.0739  0.3474  0.1388
  187loPI   C6A 2988   2.921   5.547   7.319  0.0502 -0.0340 -0.0302
  187loPI   C1B 2989   3.214   5.245   9.412 -0.3622 -0.1204 -0.0519
  187loPI   C2B 2990   3.100   5.310   8.980 -0.1433 -0.1718 -0.3251
  187loPI   C3B 2991   3.189   5.255   8.561 -0.0312  0.0572  0.2798
  187loPI   C4B 2992   3.174   5.319   8.038 -0.1493 -0.3007  0.1033
  188loPI    C1 2993  18.172   2.472  10.518  0.0465  0.1606 -0.1028
  188loPI    C2 2994  18.185   2.752  10.804  0.1239  0.2091 -0.1536
  188loPI    C3 2995  18.463   2.464  10.793  0.1108  0.1969 -0.1694
  188loPI   PO4 2996  18.156   2.557  10.307  0.3488  0.3047  0.1628
  188loPI   GL1 2997  18.144   2.562   9.876 -0.1948 -0.1699 -0.0749
  188loPI   GL2 2998  18.257   2.867   9.821 -0.0387 -0.0792  0.0029
  188loPI   C1A 2999  18.142   2.547   9.441  0.1439 -0.1616  0.0048
  188loPI   C2A 3000  18.240   2.476   9.020  0.1429 -0.2518 -0.1516
  188loPI   C3A 3001  18.105   2.509   8.600 -0.0830  0.1294 -0.1464
  188loPI   C4A 3002  18.208   2.588   8.212  0.0422 -0.2235  0.0236
  188loPI   C5A 3003  17.927   2.700   7.854 -0.3877  0.1934 -0.0231
  188loPI   C6A 3004  17.574   2.327   7.789  0.0756  0.0603 -0.3827
  188loPI   C1B 3005  18.225   3.026   9.348  0.1005  0.2073  0.0468
  188loPI   C2B 3006  18.222   3.056   8.930 -0.0933  0.0278 -0.0612
  188loPI   C3B 3007  18.150   3.153   8.612 -0.0698  0.1140  0.1886
  188loPI   C4B 3008  18.113   3.099   8.179 -0.0546 -0.2687 -0.2159
  189loPI    C1 3009   8.838   3.215  10.441 -0.0895 -0.2119  0.0183
  189loPI    C2 3010   8.579   2.972  10.626 -0.0286 -0.2077  0.1100
  189loPI    C3 3011   8.784   3.243  10.836 -0.0885 -0.0836  0.0096
  189loPI   PO4 3012   8.670   3.241  10.123 -0.2138  0.0161  0.1255
  189loPI   GL1 3013   8.652   3.450   9.753 -0.2336  0.2514 -0.1592
  189loPI   GL2 3014   8.308   3.561   9.862 -0.1988  0.1245 -0.0433
  189loPI   C1A 3015   8.610   3.612   9.367 -0.1454  0.2973  0.3417
  189loPI   C2A 3016   8.577   3.574   8.876  0.0272 -0.0786  0.0300
  189loPI   C3A 3017   8.544   3.547   8.463  0.3580 -0.0136 -0.3593
  189loPI   C4A 3018   8.446   3.523   8.104 -0.1453  0.1117 -0.2296
  189loPI   C5A 3019   8.181   3.562   7.798 -0.0374  0.1804  0.0170
  189loPI   C6A 3020   8.103   3.578   7.285  0.1024  0.0967 -0.0898
  189loPI   C1B 3021   8.071   3.426   9.494 -0.2135 -0.1482 -0.2180
  189loPI   C2B 3022   8.179   3.553   9.151  0.1729 -0.1060  0.1086
  189loPI   C3B 3023   8.041   3.622   8.789 -0.2490  0.1460  0.1657
  189loPI   C4B 3024   8.002   3.578   8.424 -0.1178  0.0013  0.1389
  190loPI    C1 3025   9.924   8.028  10.729  0.0656 -0.0509  0.0321
  190loPI    C2 3026   9.583   7.931  10.914 -0.0609 -0.0322 -0.1877
  190loPI    C3 3027   9.934   7.835  11.079 -0.1724 -0.0982  0.0149
  190loPI   PO4 3028   9.957   8.244  10.572  0.2292  0.1130  0.0348
  190loPI   GL1 3029   9.829   8.379  10.172  0.2389 -0.0820 -0.0721
  190loPI   GL2 3030  10.249   8.452  10.102  0.2128 -0.0094  0.0759
  190loPI   C1A 3031   9.743   8.495   9.836 -0.0456 -0.1094  0.2805
  190loPI   C2A 3032   9.866   8.470   9.475 -0.0259  0.0754 -0.1091
  190loPI   C3A 3033   9.775   8.388   9.029  0.1152 -0.2131  0.2613
  190loPI   C4A 3034   9.638   8.536   8.517  0.1563 -0.3995  0.0366
  190loPI   C5A 3035   9.473   8.944   8.344  0.2135 -0.0768 -0.0808
  190loPI   C6A 3036   9.437   9.010   7.925 -0.0878  0.1554 -0.0131
  190loPI   C1B 3037  10.315   8.561   9.678 -0.0901  0.1509 -0.0962
  190loPI   C2B 3038  10.282   8.550   9.200 -0.3939 -0.0803 -0.2026
  190loPI   C3B 3039  10.215   8.480   8.737  0.5945 -0.1293 -0.1186
  190loPI   C4B 3040  10.100   8.665   8.319  0.0427  0.1828 -0.0923
  191loPI    C1 3041   0.346   1.750  10.406 -0.0741 -0.0791  0.1311
  191loPI    C2 3042   0.746   1.745  10.402 -0.0707  0.1390  0.0366
  191loPI    C3 3043   0.551   1.864  10.730 -0.0574  0.0977  0.0595
  191loPI   PO4 3044   0.230   1.622  10.207 -0.1400  0.2541  0.0382
  191loPI   GL1 3045  -0.148   1.589   9.893 -0.0636 -0.0350  0.0757
  191loPI   GL2 3046  -0.058   1.264   9.864  0.0179 -0.1492 -0.0106
  191loPI   C1A 3047  -0.129   1.493   9.461 -0.1883  0.0635  0.0501
  191loPI   C2A 3048  -0.200   1.538   9.158  0.1367  0.5810  0.2667
  191loPI   C3A 3049  -0.102   1.457   8.741 -0.2831  0.0129 -0.0577
  191loPI   C4A 3050  -0.023   1.498   8.336  0.1600 -0.0769  0.0711
  191loPI   C5A 3051   0.140   1.782   8.079 -0.2726 -0.0855  0.0613
  191loPI   C6A 3052   0.504   1.826   7.914 -0.0501  0.0902  0.0081
  191loPI   C1B 3053  -0.164   1.010   9.611  0.0509 -0.0396  0.1904
  191loPI   C2B 3054  -0.194   0.961   9.118  0.0741  0.1498 -0.0207
  191loPI   C3B 3055  -0.269   0.933   8.722 -0.1241 -0.0524  0.1622
  191loPI   C4B 3056  -0.136   0.893   8.304  0.0636 -0.0303 -0.0473
  192loPI    C1 3057   5.907  10.601  11.006 -0.0826 -0.2175  0.0459
  192loPI    C2 3058   6.095  10.360  10.748 -0.0173 -0.2197  0.0953
  192loPI    C3 3059   6.254  10.430  11.108  0.0902  0.0923 -0.0089
  192loPI   PO4 3060   5.696  10.566  10.896  0.0333 -0.0102  0.5567
  192loPI   GL1 3061   5.677  10.546  10.427  0.2072 -0.1605 -0.2849
  192loPI   GL2 3062   5.633  10.750  10.197  0.1463 -0.1243 -0.0208
  192loPI   C1A 3063   6.016  10.416  10.231  0.0408 -0.2215  0.2764
  192loPI   C2A 3064   5.996  10.229   9.831  0.0083  0.3846  0.0190
  192loPI   C3A 3065   5.998  10.191   9.403 -0.2452  0.1033 -0.2377
  192loPI   C4A 3066   6.036  10.255   9.018 -0.1243 -0.1736 -0.2117
  192loPI   C5A 3067   6.086  10.272   8.590 -0.1043 -0.0802  0.3751
  192loPI   C6A 3068   5.954  10.415   8.099 -0.1863  0.1674 -0.2216
  192loPI   C1B 3069   5.710  10.665   9.701 -0.3610  0.0328  0.0245
  192loPI   C2B 3070   5.738  10.620   9.206 -0.4142  0.1242 -0.1134
  192loPI   C3B 3071   5.662  10.522   8.689  0.2265 -0.2541 -0.0864
  192loPI   C4B 3072   5.536  10.290   8.393  0.1388  0.0660 -0.1259
  193loPI    C1 3073   0.497   0.959  10.469  0.0783 -0.0500 -0.0964
  193loPI    C2 3074   0.181   1.203  10.495  0.0310 -0.1391  0.2041
  193loPI    C3 3075   0.538   1.322  10.632  0.1352 -0.0327 -0.1487
  193loPI   PO4 3076   0.503   0.725  10.238  0.0331  0.1085 -0.0420
  193loPI   GL1 3077   0.745   0.403  10.002  0.1534  0.0489 -0.0632
  193loPI   GL2 3078   1.044   0.262   9.998  0.2534  0.0305 -0.0010
  193loPI   C1A 3079   0.640   0.346   9.609  0.1699 -0.2762  0.1889
  193loPI   C2A 3080   0.689   0.366   9.168 -0.0671  0.1285 -0.1160
  193loPI   C3A 3081   0.679   0.213   8.718 -0.1123 -0.0544 -0.2189
  193loPI   C4A 3082   0.999   0.129   8.418  0.3683 -0.1392 -0.0964
  193loPI   C5A 3083   0.891   0.035   7.978 -0.1856 -0.2205  0.1082
  193loPI   C6A 3084   0.937  -0.154   7.611 -0.2783 -0.0835 -0.0125
  193loPI   C1B 3085   1.241   0.423   9.641 -0.0408 -0.3778 -0.0416
  193loPI   C2B 3086   1.214   0.342   9.279 -0.1327  0.1183 -0.0276
  193loPI   C3B 3087   1.126   0.358   8.963 -0.1350  0.2741  0.1690
  193loPI   C4B 3088   1.398   0.391   8.532  0.0763  0.1803 -0.2873
  194loPI    C1 3089   9.597  11.758  11.006 -0.0457  0.0905  0.0080
  194loPI    C2 3090   9.203  11.696  11.043  0.0002 -0.2124  0.0096
  194loPI    C3 3091   9.444  11.647  11.359  0.0333  0.0350  0.0248
  194loPI   PO4 3092   9.550  11.743  10.643 -0.0728 -0.1298 -0.2102
  194loPI   GL1 3093   9.512  11.586  10.178 -0.1347  0.0181  0.1366
  194loPI   GL2 3094   9.981  11.641  10.109  0.0457 -0.0368 -0.1259
  194loPI   C1A 3095   9.341  11.593   9.810  0.0344 -0.2850 -0.2483
  194loPI   C2A 3096   9.262  11.583   9.368 -0.0410  0.0536  0.2633
  194loPI   C3A 3097   9.393  11.525   8.900 -0.2747  0.1954  0.1452
  194loPI   C4A 3098   9.211  11.616   8.425 -0.2081 -0.2065 -0.1333
  194loPI   C5A 3099   9.206  11.753   8.042  0.0217  0.1856 -0.1849
  194loPI   C6A 3100   9.373  11.699   7.719  0.0157  0.0139  0.0335
  194loPI   C1B 3101   9.845  11.762   9.785 -0.2893  0.1298 -0.0911
  194loPI   C2B 3102   9.674  11.860   9.446  0.3048  0.0842 -0.0409
  194loPI   C3B 3103   9.692  11.928   9.046  0.0313 -0.1486 -0.1141
  194loPI   C4B 3104   9.619  11.899   8.611 -0.2803 -0.4437  0.2345
  195loPI    C1 3105   5.707   1.372  10.396  0.1778  0.1071  0.0904
  195loPI    C2 3106   5.856   1.047  10.576  0.1570  0.0415 -0.0097
  195loPI    C3 3107   5.558   1.252  10.747  0.1441 -0.0144  0.0349
  195loPI   PO4 3108   5.778   1.317  10.116 -0.0453 -0.1755 -0.1984
  195loPI   GL1 3109   5.589   1.463   9.720  0.0351 -0.0692  0.2210
  195loPI   GL2 3110   5.501   1.164   9.657  0.2740  0.3177  0.2547
  195loPI   C1A 3111   5.507   1.625   9.390  0.3430  0.1766  0.2557
  195loPI   C2A 3112   5.450   1.657   8.958  0.1071  0.1043 -0.1410
  195loPI   C3A 3113   5.403   1.708   8.501 -0.1615  0.0482 -0.0307
  195loPI   C4A 3114   5.516   1.817   8.132  0.0206  0.1290  0.2358
  195loPI   C5A 3115   5.169   1.766   7.868 -0.3227 -0.0029  0.1045
  195loPI   C6A 3116   4.982   2.066   7.616  0.0833 -0.1579 -0.0703
  195loPI   C1B 3117   5.495   1.112   9.191  0.0026  0.0638 -0.3274
  195loPI   C2B 3118   5.500   1.151   8.848 -0.2371 -0.0170 -0.0325
  195loPI   C3B 3119   5.420   1.137   8.443 -0.0658  0.1329 -0.1166
  195loPI   C4B 3120   5.264   1.191   8.008  0.0236  0.0276 -0.1461
  196loPI    C1 3121   2.648   2.823  10.418 -0.0553 -0.2440 -0.2056
  196loPI    C2 3122   2.420   3.008  10.147 -0.0201  0.0878 -0.0136
  196loPI    C3 3123   2.271   2.921  10.507  0.0495 -0.0103 -0.0083
  196loPI   PO4 3124   2.844   2.747  10.282  0.0715 -0.1368 -0.3530
  196loPI   GL1 3125   2.924   2.607   9.891  0.1174  0.2148  0.0245
  196loPI   GL2 3126   2.606   2.618   9.670  0.4676 -0.0570 -0.3738
  196loPI   C1A 3127   3.042   2.867   9.544 -0.1362  0.1589  0.0583
  196loPI   C2A 3128   3.035   2.904   9.083  0.1232 -0.1805 -0.1823
  196loPI   C3A 3129   2.867   3.005   8.699 -0.0901 -0.1066  0.0771
  196loPI   C4A 3130   3.021   3.061   8.321 -0.3853  0.1934  0.2381
  196loPI   C5A 3131   3.260   3.017   7.877  0.3032  0.0212  0.2983
  196loPI   C6A 3132   3.567   3.155   7.591 -0.0102 -0.2804 -0.0263
  196loPI   C1B 3133   2.733   2.548   9.287  0.1758  0.0186 -0.0268
  196loPI   C2B 3134   2.811   2.487   8.860  0.0211  0.0124 -0.0502
  196loPI   C3B 3135   2.774   2.619   8.389 -0.1769 -0.3349 -0.1251
  196loPI   C4B 3136   2.511   2.518   8.012  0.3571  0.3315 -0.3443
  197loPI    C1 3137  13.289  12.865  10.758  0.1331  0.0695  0.1004
  197loPI    C2 3138  13.552  12.763  11.042  0.0269  0.2682  0.2722
  197loPI    C3 3139  13.161  12.701  11.099  0.0010  0.3517  0.1896
  197loPI   PO4 3140  13.333  13.020  10.598 -0.1714 -0.1716 -0.1555
  197loPI   GL1 3141  13.387  13.316  10.269  0.2356  0.0970  0.0376
  197loPI   GL2 3142  13.063  13.453  10.194 -0.1886  0.3481  0.3046
  197loPI   C1A 3143  13.543  13.186   9.879  0.0512 -0.2179  0.1465
  197loPI   C2A 3144  13.504  13.163   9.422  0.1583  0.0731  0.2120
  197loPI   C3A 3145  13.526  13.227   9.005 -0.0080  0.1118 -0.0605
  197loPI   C4A 3146  13.615  13.182   8.537  0.0119  0.2062 -0.0182
  197loPI   C5A 3147  13.505  13.235   8.168 -0.1610 -0.1677  0.1011
  197loPI   C6A 3148  13.093  13.341   7.915  0.1177 -0.1496 -0.2208
  197loPI   C1B 3149  13.107  13.414   9.806 -0.0756 -0.4622 -0.3259
  197loPI   C2B 3150  13.003  13.447   9.361 -0.0032  0.0195 -0.3044
  197loPI   C3B 3151  13.054  13.405   8.965  0.5097  0.0697  0.1092
  197loPI   C4B 3152  13.163  13.364   8.481  0.0382 -0.0636 -0.0400
  198loPI    C1 3153  11.692   5.820  10.516  0.0487  0.1339 -0.1350
  198loPI    C2 3154  11.881   6.039  10.792  0.2293 -0.0829 -0.0838
  198loPI    C3 3155  11.618   5.759  10.904  0.1367 -0.0195 -0.1416
  198loPI   PO4 3156  11.619   5.999  10.333  0.2478  0.0040 -0.0619
  198loPI   GL1 3157  11.733   6.137   9.918  0.1755  0.0311  0.4235
  198loPI   GL2 3158  12.098   6.218   9.875 -0.1892 -0.2885 -0.0075
  198loPI   C1A 3159  11.555   6.250   9.616 -0.0934 -0.4427 -0.0738
  198loPI   C2A 3160  11.658   6.267   9.191 -0.1306 -0.1058  0.0652
  198loPI   C3A 3161  11.616   6.334   8.813 -0.0410 -0.0470 -0.2692
  198loPI   C4A 3162  11.534   6.317   8.423  0.0762  0.0245 -0.1122
  198loPI   C5A 3163  11.742   6.268   7.962  0.0637 -0.1201  0.0434
  198loPI   C6A 3164  11.613   6.271   7.574 -0.0061  0.3518 -0.2912
  198loPI   C1B 3165  12.184   6.226   9.454 -0.0109 -0.0121 -0.0668
  198loPI   C2B 3166  12.113   6.365   8.974  0.0452 -0.2158  0.2250
  198loPI   C3B 3167  12.089   6.350   8.599  0.2085 -0.0151  0.0750
  198loPI   C4B 3168  12.184   6.429   8.224  0.2689  0.0641 -0.3405
  199loPI    C1 3169   0.521  17.744  10.593  0.0684  0.2039 -0.1494
  199loPI    C2 3170   0.484  18.053  10.845 -0.1210 -0.0838  0.1851
  199loPI    C3 3171   0.736  17.754  10.930  0.1208  0.0095 -0.1761
  199loPI   PO4 3172   0.564  17.842  10.346  0.2375  0.0015 -0.2411
  199loPI   GL1 3173   0.457  17.723   9.933  0.0242 -0.3491  0.1498
  199loPI   GL2 3174   0.190  17.735   9.609 -0.1215 -0.0474 -0.1259
  199loPI   C1A 3175   0.718  17.601   9.706 -0.0456 -0.1285  0.2847
  199loPI   C2A 3176   0.779  17.614   9.274 -0.1762 -0.2602 -0.4602
  199loPI   C3A 3177   0.780  17.551   8.877  0.4038 -0.1685  0.1002
  199loPI   C4A 3178   0.610  17.559   8.531  0.1260 -0.1428 -0.2261
  199loPI   C5A 3179   0.619  17.551   7.940 -0.1005  0.0058 -0.0564
  199loPI   C6A 3180   0.517  17.656   7.567  0.2049  0.1969  0.3498
  199loPI   C1B 3181  -0.185  17.566   9.269 -0.1268  0.0374  0.0672
  199loPI   C2B 3182  -0.279  17.579   8.888 -0.0009 -0.1367 -0.1299
  199loPI   C3B 3183  -0.277  17.591   8.500 -0.1186  0.1698  0.1214
  199loPI   C4B 3184  -0.525  17.663   8.165 -0.0835  0.2823  0.0996
  200loPI    C1 3185   2.098  13.681  10.895 -0.2425 -0.0659  0.1608
  200loPI    C2 3186   1.704  13.725  10.843 -0.2475 -0.1383  0.1374
  200loPI    C3 3187   1.875  13.847  11.183 -0.2268  0.2686 -0.0141
  200loPI   PO4 3188   2.219  13.735  10.614  0.0642 -0.0260  0.1179
  200loPI   GL1 3189   1.973  13.657  10.190 -0.0025  0.1185  0.0690
  200loPI   GL2 3190   1.733  13.834  10.027  0.0906 -0.3069 -0.3345
  200loPI   C1A 3191   2.296  13.537   9.922  0.1029 -0.0397 -0.2477
  200loPI   C2A 3192   2.226  13.586   9.463 -0.3091 -0.3223 -0.0566
  200loPI   C3A 3193   2.083  13.522   9.075 -0.1362 -0.0590 -0.1741
  200loPI   C4A 3194   2.243  13.580   8.673  0.0843 -0.0510 -0.4040
  200loPI   C5A 3195   2.249  13.574   8.252  0.0305  0.0166  0.1910
  200loPI   C6A 3196   2.451  13.880   7.869 -0.0267 -0.1683  0.0786
  200loPI   C1B 3197   1.792  13.833   9.606  0.0333 -0.1546  0.4481
  200loPI   C2B 3198   1.723  13.834   9.093 -0.2205 -0.2291 -0.2910
  200loPI   C3B 3199   1.664  13.792   8.757  0.0967  0.0545  0.0811
  200loPI   C4B 3200   1.774  13.579   8.306  0.0297 -0.1044 -0.0315
  201loPI    C1 3201  14.904   5.037  10.315  0.1321 -0.0645 -0.0192
  201loPI    C2 3202  14.807   4.652  10.365  0.0228 -0.0311  0.0284
  201loPI    C3 3203  14.620   4.935  10.577  0.1354  0.0449  0.0274
  201loPI   PO4 3204  14.821   5.116  10.095 -0.0948 -0.2431 -0.2337
  201loPI   GL1 3205  14.731   4.848   9.730 -0.1045 -0.1169  0.1210
  201loPI   GL2 3206  14.956   4.782   9.631 -0.0509  0.0574  0.1046
  201loPI   C1A 3207  14.435   4.912   9.445 -0.0253  0.3913 -0.0440
  201loPI   C2A 3208  14.278   4.972   9.040 -0.1865  0.1200  0.4634
  201loPI   C3A 3209  14.333   5.082   8.617 -0.2943 -0.1188 -0.1385
  201loPI   C4A 3210  14.449   5.094   8.287  0.1048 -0.2081  0.1916
  201loPI   C5A 3211  14.464   5.151   7.947 -0.1672 -0.1973  0.3935
  201loPI   C6A 3212  14.366   4.726   7.734  0.0964  0.1946  0.1497
  201loPI   C1B 3213  14.859   4.987   9.219 -0.0330  0.0207 -0.1652
  201loPI   C2B 3214  14.858   5.040   8.764  0.1185  0.2818 -0.2354
  201loPI   C3B 3215  14.943   5.157   8.298  0.1264  0.1536  0.0730
  201loPI   C4B 3216  14.929   5.054   7.815 -0.1670 -0.1746 -0.1478
  202loPI    C1 3217  12.266  16.371  10.783 -0.0352 -0.3882 -0.0888
  202loPI    C2 3218  11.993  16.575  10.994  0.0598 -0.2557 -0.0921
  202loPI    C3 3219  12.382  16.629  11.066  0.0847 -0.5251 -0.0120
  202loPI   PO4 3220  12.180  16.366  10.535  0.1195 -0.0613  0.0457
  202loPI   GL1 3221  11.963  16.213  10.249  0.0746 -0.0140 -0.3665
  202loPI   GL2 3222  12.242  16.134   9.960  0.1556  0.2742  0.2750
  202loPI   C1A 3223  11.787  16.353   9.842 -0.1967  0.2535 -0.2095
  202loPI   C2A 3224  11.697  16.335   9.464  0.0115  0.1168 -0.3217
  202loPI   C3A 3225  11.884  16.338   9.114  0.0524  0.2455  0.1270
  202loPI   C4A 3226  11.804  16.363   8.693 -0.0007 -0.0757 -0.1651
  202loPI   C5A 3227  11.839  16.517   8.183 -0.0165 -0.1598 -0.1105
  202loPI   C6A 3228  11.735  16.211   7.839 -0.0619  0.0624  0.1582
  202loPI   C1B 3229  12.234  16.186   9.504  0.0893  0.1449  0.0301
  202loPI   C2B 3230  12.303  16.079   9.023 -0.0793  0.3882 -0.5044
  202loPI   C3B 3231  12.305  16.162   8.634  0.0968  0.3446 -0.1133
  202loPI   C4B 3232  12.178  16.081   8.236 -0.0044 -0.2585  0.3299
  203loPI    C1 3233  11.524  13.481  10.867 -0.1393 -0.0016 -0.0232
  203loPI    C2 3234  11.290  13.703  11.104 -0.3691 -0.0957 -0.1589
  203loPI    C3 3235  11.493  13.394  11.256 -0.3470 -0.0249 -0.0435
  203loPI   PO4 3236  11.434  13.365  10.581 -0.0937  0.1778  0.0344
  203loPI   GL1 3237  11.631  13.556  10.190  0.1041 -0.0297  0.0550
  203loPI   GL2 3238  11.613  13.964  10.059 -0.1514 -0.0036 -0.0774
  203loPI   C1A 3239  11.748  13.589   9.764  0.0432  0.0801 -0.1028
  203loPI   C2A 3240  11.718  13.563   9.371 -0.2966 -0.1155 -0.0357
  203loPI   C3A 3241  11.689  13.564   8.889 -0.4590  0.0083 -0.1676
  203loPI   C4A 3242  11.804  13.476   8.424 -0.0274  0.0606 -0.2502
  203loPI   C5A 3243  11.939  13.623   8.133 -0.0581 -0.5278 -0.1157
  203loPI   C6A 3244  12.082  13.609   7.785 -0.0117 -0.3869  0.2827
  203loPI   C1B 3245  11.595  14.103   9.575 -0.2497 -0.1272  0.0071
  203loPI   C2B 3246  11.696  13.997   9.132  0.1293  0.2955  0.2257
  203loPI   C3B 3247  11.696  14.037   8.650  0.0942  0.1071  0.1154
  203loPI   C4B 3248  11.599  14.010   8.220  0.1011  0.2624 -0.0274
  204loPI    C1 3249  17.334   3.506  10.158 -0.0233  0.2630 -0.2492
  204loPI    C2 3250  17.063   3.216  10.113 -0.1115  0.3293 -0.1500
  204loPI    C3 3251  17.068   3.434  10.448  0.0682  0.3251 -0.1489
  204loPI   PO4 3252  17.348   3.656   9.959 -0.3336  0.1943  0.1703
  204loPI   GL1 3253  17.455   3.571   9.578 -0.0157 -0.0430 -0.1227
  204loPI   GL2 3254  17.547   3.902   9.634  0.2908  0.0224 -0.4108
  204loPI   C1A 3255  17.270   3.548   9.195 -0.0468 -0.2218  0.0561
  204loPI   C2A 3256  17.160   3.487   8.750 -0.1486 -0.1270 -0.3574
  204loPI   C3A 3257  17.304   3.416   8.332 -0.0298  0.1144  0.0622
  204loPI   C4A 3258  17.410   3.374   7.896 -0.0993  0.1481  0.2117
  204loPI   C5A 3259  17.427   3.246   7.397  0.0733 -0.0222  0.3951
  204loPI   C6A 3260  17.515   3.165   7.042 -0.1594  0.1410  0.3279
  204loPI   C1B 3261  17.579   4.000   9.199 -0.0566  0.1810  0.1810
  204loPI   C2B 3262  17.478   4.038   8.751  0.4437  0.1545  0.0545
  204loPI   C3B 3263  17.512   3.888   8.373 -0.1008  0.0740  0.1597
  204loPI   C4B 3264  17.447   3.864   7.933  0.0903 -0.0705  0.0951
  205loPI    C1 3265   1.514   7.884  10.963 -0.0672 -0.1190 -0.0605
  205loPI    C2 3266   1.268   8.197  11.004 -0.2346 -0.2682  0.0964
  205loPI    C3 3267   1.488   8.074  11.314  0.1707 -0.0320 -0.0880
  205loPI   PO4 3268   1.455   7.770  10.724 -0.2741  0.0715  0.0619
  205loPI   GL1 3269   1.387   7.746  10.319  0.0072 -0.1941 -0.2980
  205loPI   GL2 3270   1.666   8.004  10.248  0.2177 -0.1090 -0.1210
  205loPI   C1A 3271   1.395   7.574   9.964 -0.0741  0.3105 -0.1419
  205loPI   C2A 3272   1.351   7.499   9.561  0.0525 -0.1774 -0.2817
  205loPI   C3A 3273   1.365   7.526   9.163  0.0375 -0.0849  0.0136
  205loPI   C4A 3274   1.317   7.493   8.747 -0.2404  0.1034  0.0696
  205loPI   C5A 3275   1.349   7.318   8.349  0.1473 -0.0022  0.0655
  205loPI   C6A 3276   1.293   7.496   7.955  0.1856  0.2155  0.2145
  205loPI   C1B 3277   1.528   8.020   9.847 -0.0655  0.0644  0.1019
  205loPI   C2B 3278   1.588   7.970   9.333 -0.0146 -0.1168  0.1251
  205loPI   C3B 3279   1.559   7.904   8.925 -0.0429  0.0350  0.2206
  205loPI   C4B 3280   1.554   7.815   8.415 -0.0480  0.2132  0.0883
  206loPI    C1 3281   2.953   4.359  10.355  0.0600  0.2332  0.0746
  206loPI    C2 3282   2.911   4.156  10.697 -0.2332 -0.0270 -0.1095
  206loPI    C3 3283   2.694   4.486  10.632 -0.1197  0.0673 -0.0140
  206loPI   PO4 3284   2.938   4.228  10.136 -0.1474 -0.1386 -0.0540
  206loPI   GL1 3285   2.958   4.279   9.759  0.0092 -0.0089  0.0665
  206loPI   GL2 3286   3.076   4.071   9.696  0.3036 -0.2509  0.0919
  206loPI   C1A 3287   2.893   4.476   9.340 -0.2276 -0.1572  0.0381
  206loPI   C2A 3288   2.903   4.832   9.102  0.1199 -0.1042 -0.0947
  206loPI   C3A 3289   2.896   4.903   8.713 -0.0071 -0.0198  0.1190
  206loPI   C4A 3290   2.998   4.877   8.304  0.1062 -0.0610 -0.1451
  206loPI   C5A 3291   2.879   4.588   7.946 -0.1677  0.5409  0.4603
  206loPI   C6A 3292   2.967   4.252   7.641 -0.0535 -0.1218  0.0961
  206loPI   C1B 3293   3.305   4.220   9.295 -0.2805 -0.1277 -0.1540
  206loPI   C2B 3294   3.177   4.344   8.883  0.3504 -0.5172  0.1410
  206loPI   C3B 3295   3.183   4.430   8.537  0.0598  0.0845  0.1358
  206loPI   C4B 3296   3.195   4.284   8.113  0.0750  0.3515 -0.4803
  207loPI    C1 3297  12.419  10.705  10.856 -0.5089 -0.4172 -0.3273
  207loPI    C2 3298  12.642  10.378  10.797  0.0039 -0.1349 -0.0215
  207loPI    C3 3299  12.475  10.445  11.154  0.0739  0.0372 -0.0197
  207loPI   PO4 3300  12.282  10.741  10.708 -0.0701  0.1947  0.1839
  207loPI   GL1 3301  12.083  10.618  10.302  0.1413 -0.2022 -0.1500
  207loPI   GL2 3302  12.425  10.417  10.288 -0.1780  0.1933  0.1092
  207loPI   C1A 3303  12.094  10.773   9.810  0.3397 -0.1789 -0.1586
  207loPI   C2A 3304  12.104  10.737   9.337  0.0243  0.0943  0.2431
  207loPI   C3A 3305  12.136  10.817   8.945  0.1875  0.3992  0.0792
  207loPI   C4A 3306  12.170  10.692   8.498 -0.1403  0.1345 -0.0349
  207loPI   C5A 3307  12.264  10.766   8.084 -0.0392 -0.2616  0.0395
  207loPI   C6A 3308  11.983  10.473   7.818  0.0293  0.2234 -0.3652
  207loPI   C1B 3309  12.339  10.298   9.872 -0.1814  0.1511 -0.0516
  207loPI   C2B 3310  12.406  10.362   9.420 -0.0544  0.0698 -0.2613
  207loPI   C3B 3311  12.443  10.235   9.033 -0.0162 -0.1777 -0.0369
  207loPI   C4B 3312  12.452  10.316   8.591 -0.2374  0.3602 -0.0446
  208loPI    C1 3313   3.708  15.211  10.596 -0.1050 -0.2819  0.2281
  208loPI    C2 3314   3.678  15.325  10.979  0.2589  0.0522  0.1644
  208loPI    C3 3315   4.005  15.132  10.853  0.1823  0.0280  0.0002
  208loPI   PO4 3316   3.555  15.397  10.471  0.0226  0.0130  0.0609
  208loPI   GL1 3317   3.818  15.585  10.148  0.1398  0.1606  0.0700
  208loPI   GL2 3318   4.140  15.815  10.137  0.0010 -0.0308  0.0458
  208loPI   C1A 3319   3.700  15.366   9.836  0.2321  0.2008 -0.1343
  208loPI   C2A 3320   3.744  15.444   9.393  0.1263 -0.2388 -0.1116
  208loPI   C3A 3321   3.602  15.236   9.019 -0.2798  0.1482  0.0326
  208loPI   C4A 3322   3.630  15.263   8.595 -0.0923  0.1573  0.0351
  208loPI   C5A 3323   3.615  15.218   8.129  0.0010  0.0323 -0.2181
  208loPI   C6A 3324   3.618  15.572   7.817 -0.0639 -0.0862 -0.1617
  208loPI   C1B 3325   4.168  15.666   9.719  0.1418  0.0685  0.2703
  208loPI   C2B 3326   4.098  15.695   9.202  0.0418  0.0836 -0.1011
  208loPI   C3B 3327   4.022  15.565   8.806  0.3184  0.1658  0.0575
  208loPI   C4B 3328   4.062  15.531   8.384 -0.0650 -0.2321  0.3074
  209loPI    C1 3329  15.185   4.001  10.471  0.0160  0.0097  0.1802
  209loPI    C2 3330  15.244   4.345  10.667 -0.1873  0.1426  0.0131
  209loPI    C3 3331  15.551   4.097  10.600 -0.0378  0.2948  0.1268
  209loPI   PO4 3332  15.061   4.066  10.214 -0.1933  0.0638 -0.0656
  209loPI   GL1 3333  14.986   4.317   9.808 -0.2791 -0.1917  0.0475
  209loPI   GL2 3334  14.758   4.038   9.848 -0.0702  0.3347  0.2850
  209loPI   C1A 3335  15.155   4.276   9.356  0.0027 -0.0697  0.1478
  209loPI   C2A 3336  15.120   4.286   8.879  0.0871  0.1450  0.0588
  209loPI   C3A 3337  15.218   4.382   8.482 -0.1951  0.1583 -0.0456
  209loPI   C4A 3338  15.414   4.448   8.128  0.2637  0.0381  0.1339
  209loPI   C5A 3339  15.722   4.714   7.877 -0.0641 -0.2071 -0.0607
  209loPI   C6A 3340  16.099   4.942   7.913  0.3030  0.0826  0.0607
  209loPI   C1B 3341  14.794   3.985   9.422 -0.1014 -0.0508 -0.2466
  209loPI   C2B 3342  14.703   3.966   9.012  0.0157  0.2857 -0.2318
  209loPI   C3B 3343  14.698   4.100   8.493  0.0096  0.1883  0.1888
  209loPI   C4B 3344  14.591   4.313   8.114 -0.1332 -0.0046  0.3051
  210loPI    C1 3345   8.585   4.484  10.661  0.0401  0.0260 -0.0762
  210loPI    C2 3346   8.564   4.085  10.642  0.0723  0.0179  0.0472
  210loPI    C3 3347   8.506   4.271  10.991  0.3807  0.1003  0.0574
  210loPI   PO4 3348   8.403   4.516  10.416 -0.0197  0.0051 -0.0190
  210loPI   GL1 3349   8.317   4.672  10.013 -0.0546 -0.1197  0.1951
  210loPI   GL2 3350   8.487   4.443   9.847 -0.1049 -0.5153  0.2277
  210loPI   C1A 3351   8.187   4.921   9.580  0.3911  0.0059 -0.1111
  210loPI   C2A 3352   8.295   4.898   9.212 -0.0847 -0.0154  0.1644
  210loPI   C3A 3353   8.174   4.806   8.755 -0.0823 -0.2849  0.1622
  210loPI   C4A 3354   8.172   4.838   8.346  0.1976  0.4496 -0.2450
  210loPI   C5A 3355   8.100   5.114   8.192  0.2824  0.4309  0.5671
  210loPI   C6A 3356   7.873   5.162   7.745  0.1900 -0.4058  0.0744
  210loPI   C1B 3357   8.508   4.487   9.470  0.0027  0.1252  0.1118
  210loPI   C2B 3358   8.539   4.529   8.969  0.1202  0.1109 -0.0350
  210loPI   C3B 3359   8.485   4.489   8.462  0.1527  0.1165 -0.0603
  210loPI   C4B 3360   8.455   4.546   8.066 -0.1940  0.0143  0.0731
  211loPI    C1 3361   1.456   3.262  10.518 -0.0279 -0.2728 -0.1558
  211loPI    C2 3362   1.143   3.115  10.720  0.1194  0.1731  0.4265
  211loPI    C3 3363   1.514   3.043  10.848  0.2549 -0.1189 -0.1007
  211loPI   PO4 3364   1.400   3.238  10.318 -0.2124 -0.1351  0.2341
  211loPI   GL1 3365   1.462   3.239   9.944  0.2024 -0.2341 -0.3567
  211loPI   GL2 3366   1.578   3.021   9.854 -0.2535 -0.2423  0.0820
  211loPI   C1A 3367   1.506   3.474   9.489  0.0291 -0.0698 -0.0280
  211loPI   C2A 3368   1.564   3.521   8.978  0.0639 -0.0491  0.1330
  211loPI   C3A 3369   1.559   3.553   8.533  0.0936  0.1286  0.3247
  211loPI   C4A 3370   1.438   3.517   8.071  0.0233  0.1848 -0.1002
  211loPI   C5A 3371   1.635   3.245   7.722  0.3894  0.1225 -0.0224
  211loPI   C6A 3372   1.814   2.843   7.657  0.1981 -0.0722 -0.0564
  211loPI   C1B 3373   1.775   2.991   9.453 -0.1506  0.0716  0.2000
  211loPI   C2B 3374   1.810   3.057   9.047 -0.2108  0.1895 -0.0798
  211loPI   C3B 3375   1.875   3.065   8.583 -0.0298  0.3777 -0.1022
  211loPI   C4B 3376   1.930   3.264   8.248  0.1116  0.1726 -0.1248
  212loPI    C1 3377   4.975  18.017  10.596  0.0759 -0.2871 -0.1449
  212loPI    C2 3378   4.740  18.077  10.915 -0.0272  0.0079 -0.2730
  212loPI    C3 3379   5.005  17.778  10.916 -0.0309  0.0013  0.0863
  212loPI   PO4 3380   4.852  18.012  10.408 -0.0305  0.0186  0.0624
  212loPI   GL1 3381   4.662  18.194   9.983 -0.0302  0.3573  0.0338
  212loPI   GL2 3382   4.640  18.476   9.891  0.1486  0.0652 -0.0108
  212loPI   C1A 3383   4.758  17.826   9.719 -0.0306 -0.3998 -0.0023
  212loPI   C2A 3384   4.737  17.901   9.327 -0.3413 -0.0354  0.0625
  212loPI   C3A 3385   4.722  17.830   8.963 -0.0847  0.0340 -0.3006
  212loPI   C4A 3386   4.687  17.819   8.522 -0.2155 -0.0246  0.1360
  212loPI   C5A 3387   4.969  17.715   8.140 -0.0425 -0.1000 -0.1013
  212loPI   C6A 3388   5.383  17.630   7.911  0.3468 -0.2967  0.1535
  212loPI   C1B 3389   4.707  18.456   9.421  0.0566  0.3944  0.1754
  212loPI   C2B 3390   4.670  18.333   9.024  0.3449  0.1885 -0.0951
  212loPI   C3B 3391   4.723  18.341   8.622  0.2238  0.2220  0.0951
  212loPI   C4B 3392   4.794  18.165   8.156  0.1043 -0.1692  0.1288
  213loPI    C1 3393  10.195   7.027  10.657  0.1546  0.0578 -0.0360
  213loPI    C2 3394   9.886   7.109  10.898  0.1466  0.2376 -0.1053
  213loPI    C3 3395  10.230   7.309  10.938  0.2789 -0.0080  0.0152
  213loPI   PO4 3396  10.092   7.090  10.402  0.0824 -0.2153 -0.3415
  213loPI   GL1 3397  10.083   7.237  10.049 -0.2115 -0.2323 -0.0262
  213loPI   GL2 3398  10.278   7.500  10.081 -0.1388  0.0482  0.3071
  213loPI   C1A 3399   9.990   7.181   9.632  0.0407  0.0698  0.0783
  213loPI   C2A 3400  10.040   7.162   9.215 -0.1560  0.0184  0.0027
  213loPI   C3A 3401  10.007   7.244   8.783 -0.3414 -0.0282 -0.0351
  213loPI   C4A 3402  10.021   7.216   8.374 -0.0373 -0.0805  0.0412
  213loPI   C5A 3403  10.159   7.268   7.958  0.0319 -0.0647  0.1918
  213loPI   C6A 3404  10.047   7.476   7.511  0.0496  0.0724  0.1657
  213loPI   C1B 3405  10.308   7.682   9.591  0.0010  0.1446  0.1274
  213loPI   C2B 3406  10.326   7.676   9.147  0.1263 -0.0089 -0.1794
  213loPI   C3B 3407  10.315   7.700   8.757  0.1119 -0.1626 -0.4314
  213loPI   C4B 3408  10.261   7.617   8.391 -0.2886  0.0632 -0.0011
  214loPI    C1 3409   4.792  14.911  10.670 -0.1173  0.0392 -0.3824
  214loPI    C2 3410   4.463  14.917  10.898  0.0545 -0.2226 -0.1202
  214loPI    C3 3411   4.814  15.035  11.049  0.0768  0.1063 -0.4144
  214loPI   PO4 3412   4.667  15.061  10.431  0.0788 -0.2807  0.0883
  214loPI   GL1 3413   4.467  15.056  10.088  0.3790 -0.1196  0.3781
  214loPI   GL2 3414   4.196  15.198   9.948  0.0301  0.1076  0.0297
  214loPI   C1A 3415   4.645  14.972   9.660  0.1986  0.1686  0.2227
  214loPI   C2A 3416   4.556  15.023   9.187  0.1817 -0.2572  0.2030
  214loPI   C3A 3417   4.667  14.816   8.793  0.1782  0.0631 -0.0858
  214loPI   C4A 3418   4.725  14.862   8.348  0.0740  0.0678 -0.1598
  214loPI   C5A 3419   4.838  14.770   7.888 -0.0916 -0.0520 -0.0870
  214loPI   C6A 3420   4.990  14.483   7.664 -0.1669  0.4050  0.0070
  214loPI   C1B 3421   4.154  15.201   9.490 -0.0519  0.1401 -0.1379
  214loPI   C2B 3422   4.147  15.163   9.056  0.1907  0.0472  0.0986
  214loPI   C3B 3423   4.110  15.100   8.656 -0.1032 -0.0636  0.3570
  214loPI   C4B 3424   4.271  15.070   8.277  0.0416  0.0550  0.3993
  215loPI    C1 3425   0.322   3.089  10.200 -0.0393  0.2492  0.1397
  215loPI    C2 3426  -0.050   3.023  10.333 -0.0302  0.1745  0.1285
  215loPI    C3 3427   0.261   2.846  10.512 -0.0084  0.1615  0.0776
  215loPI   PO4 3428   0.390   3.087   9.969 -0.3698  0.0511 -0.2581
  215loPI   GL1 3429   0.344   2.968   9.545 -0.0796 -0.3094 -0.1773
  215loPI   GL2 3430   0.329   2.712   9.592  0.0782 -0.1342 -0.0415
  215loPI   C1A 3431   0.297   2.808   9.110 -0.2984 -0.0241 -0.0339
  215loPI   C2A 3432   0.242   2.812   8.704 -0.1096 -0.2025 -0.0490
  215loPI   C3A 3433   0.297   3.200   8.477  0.0969 -0.1379 -0.3220
  215loPI   C4A 3434   0.314   3.257   8.037 -0.2055  0.2457 -0.0717
  215loPI   C5A 3435   0.115   3.214   7.642 -0.3274 -0.3965 -0.2485
  215loPI   C6A 3436  -0.387   3.344   7.610  0.1871 -0.2061 -0.2627
  215loPI   C1B 3437   0.710   2.576   9.354 -0.3005  0.0654  0.0973
  215loPI   C2B 3438   0.789   2.672   8.926  0.2595 -0.1371  0.1246
  215loPI   C3B 3439   0.705   2.644   8.523  0.0086  0.0873  0.3256
  215loPI   C4B 3440   0.353   2.758   8.219  0.1797  0.0028 -0.2440
  216loPI    C1 3441   8.880  10.617  10.443 -0.0818  0.2273 -0.1183
  216loPI    C2 3442   8.955  10.984  10.583 -0.0026  0.1347  0.0860
  216loPI    C3 3443   9.249  10.713  10.563 -0.1150  0.0051  0.1725
  216loPI   PO4 3444   8.690  10.550  10.610 -0.2754 -0.1165 -0.2301
  216loPI   GL1 3445   8.439  10.305  10.445 -0.2049  0.1800  0.1707
  216loPI   GL2 3446   8.235  10.321  10.162  0.2539 -0.1897 -0.1819
  216loPI   C1A 3447   8.682  10.209   9.994  0.1523 -0.0271 -0.1165
  216loPI   C2A 3448   8.738  10.229   9.478  0.2357  0.2918  0.1631
  216loPI   C3A 3449   8.805  10.286   9.002 -0.1578 -0.1723  0.2162
  216loPI   C4A 3450   8.833  10.336   8.592  0.0914  0.0297  0.0504
  216loPI   C5A 3451   8.900  10.319   8.173 -0.1903 -0.2537  0.2043
  216loPI   C6A 3452   8.700  10.486   7.769 -0.0123  0.3958 -0.4323
  216loPI   C1B 3453   8.291  10.190   9.740 -0.0042 -0.1616  0.1256
  216loPI   C2B 3454   8.289  10.251   9.170 -0.2758 -0.2528 -0.0611
  216loPI   C3B 3455   8.328  10.347   8.756  0.0161 -0.0976 -0.3293
  216loPI   C4B 3456   8.337  10.383   8.308 -0.0314  0.1769 -0.2884
  217loPI    C1 3457   9.480  17.596  10.911  0.0928  0.2282  0.0235
  217loPI    C2 3458   9.268  17.935  10.933 -0.0341  0.1610 -0.1454
  217loPI    C3 3459   9.097  17.586  11.025  0.0915  0.1395  0.0115
  217loPI   PO4 3460   9.635  17.502  10.799 -0.0437  0.1537 -0.0957
  217loPI   GL1 3461   9.778  17.434  10.329  0.4573 -0.1518 -0.0110
  217loPI   GL2 3462   9.815  17.730  10.354 -0.0278  0.0075 -0.0305
  217loPI   C1A 3463   9.927  17.223  10.054  0.2265  0.3816  0.0240
  217loPI   C2A 3464   9.949  17.167   9.616  0.3909 -0.0596  0.1274
  217loPI   C3A 3465   9.959  17.158   9.277  0.2755 -0.0740  0.0613
  217loPI   C4A 3466   9.967  17.199   8.849  0.0243  0.2299  0.0655
  217loPI   C5A 3467   9.878  17.125   8.461 -0.2558  0.5392  0.1885
  217loPI   C6A 3468  10.193  17.110   8.142 -0.1789 -0.0628  0.0877
  217loPI   C1B 3469   9.784  17.761   9.914  0.1027  0.0258 -0.3330
  217loPI   C2B 3470   9.883  17.654   9.503  0.2146  0.3089 -0.0400
  217loPI   C3B 3471   9.810  17.745   9.025 -0.0045  0.1559  0.1356
  217loPI   C4B 3472   9.889  17.645   8.625 -0.1032 -0.0311 -0.1052
  218loPI    C1 3473   9.278   4.011  10.269  0.0063 -0.0368 -0.1167
  218loPI    C2 3474   9.415   4.331  10.467 -0.1554  0.0972 -0.2184
  218loPI    C3 3475   9.084   4.144  10.593 -0.0464 -0.0474 -0.1438
  218loPI   PO4 3476   9.190   4.115  10.004 -0.3933 -0.1912 -0.0314
  218loPI   GL1 3477   8.830   4.137   9.699 -0.2053  0.0773 -0.3242
  218loPI   GL2 3478   8.646   3.958   9.858 -0.5060 -0.2630 -0.1875
  218loPI   C1A 3479   8.875   4.029   9.328  0.0206  0.1040  0.1878
  218loPI   C2A 3480   8.766   4.036   8.895  0.0534 -0.0894 -0.2907
  218loPI   C3A 3481   8.770   4.047   8.412  0.1713  0.1176 -0.0462
  218loPI   C4A 3482   8.673   4.074   7.939  0.0004 -0.0877  0.1872
  218loPI   C5A 3483   8.966   4.443   7.719 -0.0603 -0.2409  0.1972
  218loPI   C6A 3484   9.073   4.846   7.470 -0.1831 -0.0115 -0.0104
  218loPI   C1B 3485   8.413   4.019   9.469 -0.0276  0.0343 -0.0649
  218loPI   C2B 3486   8.329   4.028   9.101 -0.0593  0.0649 -0.0217
  218loPI   C3B 3487   8.304   3.983   8.671 -0.0154 -0.0450 -0.2230
  218loPI   C4B 3488   8.274   4.005   8.274 -0.0705  0.1146  0.1263
  219loPI    C1 3489   9.421   5.660  10.734  0.0026  0.0970  0.1806
  219loPI    C2 3490   9.630   5.575  11.065 -0.1193  0.1964  0.2846
  219loPI    C3 3491   9.594   5.954  10.944  0.0931  0.1428  0.0431
  219loPI   PO4 3492   9.468   5.516  10.594 -0.0937  0.0373 -0.0853
  219loPI   GL1 3493   9.437   5.497  10.169 -0.0252  0.3278  0.0007
  219loPI   GL2 3494   9.302   5.814   9.917  0.1428  0.0739 -0.0716
  219loPI   C1A 3495   9.528   5.294   9.772 -0.4006  0.1993  0.1436
  219loPI   C2A 3496   9.459   5.357   9.309  0.0037 -0.0321  0.0509
  219loPI   C3A 3497   9.582   5.289   8.933  0.2813  0.0256 -0.0803
  219loPI   C4A 3498   9.530   5.347   8.492 -0.4557  0.1237 -0.2327
  219loPI   C5A 3499   9.575   5.467   8.026 -0.0214 -0.5655  0.0213
  219loPI   C6A 3500   9.387   5.556   7.634  0.1016  0.0939  0.0883
  219loPI   C1B 3501   9.306   5.800   9.492 -0.2601 -0.2217  0.0239
  219loPI   C2B 3502   9.316   5.839   9.147  0.3232 -0.0247  0.0143
  219loPI   C3B 3503   9.208   5.759   8.729  0.1716 -0.0117  0.1004
  219loPI   C4B 3504   9.265   5.892   8.277 -0.2828 -0.2445 -0.0010
  220loPI    C1 3505   7.507   1.464  10.254 -0.0615  0.0321  0.0948
  220loPI    C2 3506   7.343   1.829  10.242 -0.0728  0.0221 -0.0909
  220loPI    C3 3507   7.395   1.644  10.593 -0.2683  0.1111 -0.0133
  220loPI   PO4 3508   7.728   1.511  10.046 -0.1645  0.2731 -0.1561
  220loPI   GL1 3509   7.762   1.744   9.668 -0.0908  0.0940  0.0481
  220loPI   GL2 3510   7.511   1.983   9.713  0.0153  0.2158  0.1191
  220loPI   C1A 3511   7.686   1.712   9.190  0.1609  0.3593 -0.3616
  220loPI   C2A 3512   7.644   1.706   8.773  0.1824  0.4774  0.0807
  220loPI   C3A 3513   7.757   1.861   8.372 -0.0993  0.0411  0.1288
  220loPI   C4A 3514   7.891   1.722   7.904 -0.0731  0.1443  0.0295
  220loPI   C5A 3515   7.902   2.134   7.745  0.2627  0.4820 -0.0382
  220loPI   C6A 3516   7.770   2.466   7.450 -0.1018  0.2021  0.0766
  220loPI   C1B 3517   7.371   2.110   9.387  0.1580  0.0624  0.1830
  220loPI   C2B 3518   7.353   2.073   8.976  0.0794  0.2478 -0.0895
  220loPI   C3B 3519   7.431   2.165   8.559 -0.1499  0.0196  0.1263
  220loPI   C4B 3520   7.619   2.280   8.129  0.0489  0.1503  0.0589
  221loPI    C1 3521  12.110   9.795  10.868  0.0319  0.1801 -0.1257
  221loPI    C2 3522  12.462   9.935  10.995 -0.0880  0.3427  0.0319
  221loPI    C3 3523  12.273   9.650  11.203  0.0831  0.0502 -0.2061
  221loPI   PO4 3524  12.171   9.761  10.659  0.2320  0.0645  0.0885
  221loPI   GL1 3525  12.174   9.956  10.255 -0.1496 -0.0576  0.2907
  221loPI   GL2 3526  12.587   9.975  10.443 -0.1719  0.1972  0.0481
  221loPI   C1A 3527  12.120   9.842   9.822  0.3556  0.1471  0.0923
  221loPI   C2A 3528  12.141   9.937   9.404  0.0402  0.1402 -0.1492
  221loPI   C3A 3529  12.159   9.840   9.017 -0.0021 -0.2531 -0.0705
  221loPI   C4A 3530  12.207   9.797   8.658  0.1924  0.0909 -0.1376
  221loPI   C5A 3531  12.211   9.544   8.296  0.3158  0.0590  0.0912
  221loPI   C6A 3532  12.435   9.061   8.319 -0.0190  0.0228 -0.0561
  221loPI   C1B 3533  12.595   9.903  10.020 -0.0077 -0.0321 -0.2210
  221loPI   C2B 3534  12.604   9.932   9.642  0.2404 -0.0779  0.2864
  221loPI   C3B 3535  12.692   9.853   9.260  0.3946  0.1720  0.0409
  221loPI   C4B 3536  12.648   9.785   8.837 -0.0592  0.1064  0.1428
  222loPI    C1 3537  10.680  16.376  10.787  0.0514  0.1825  0.2202
  222loPI    C2 3538  10.319  16.206  10.805 -0.0608  0.3688 -0.1710
  222loPI    C3 3539  10.463  16.402  11.122 -0.0924 -0.1165  0.1535
  222loPI   PO4 3540  10.676  16.414  10.501  0.3522  0.0256 -0.0421
  222loPI   GL1 3541  10.368  16.295  10.310 -0.2836  0.0084  0.2646
  222loPI   GL2 3542   9.968  16.155  10.349  0.1896  0.1908  0.2108
  222loPI   C1A 3543  10.424  16.416   9.835 -0.0899  0.1229 -0.1911
  222loPI   C2A 3544  10.491  16.447   9.335  0.2101 -0.0492  0.2185
  222loPI   C3A 3545  10.503  16.603   8.981  0.1451 -0.2074 -0.1148
  222loPI   C4A 3546  10.541  16.513   8.593 -0.1374 -0.2604  0.1119
  222loPI   C5A 3547  10.329  16.593   8.208  0.2260 -0.1451  0.2856
  222loPI   C6A 3548  10.059  16.786   7.806 -0.0833  0.3987 -0.1328
  222loPI   C1B 3549  10.023  16.076   9.851 -0.2960 -0.1422  0.1457
  222loPI   C2B 3550  10.105  16.075   9.445  0.1460 -0.1538 -0.1884
  222loPI   C3B 3551  10.105  16.185   9.014  0.3060 -0.0924 -0.2474
  222loPI   C4B 3552  10.174  16.250   8.566  0.3393  0.0552  0.0310
  223loPI    C1 3553   3.390   7.576  11.166  0.1764 -0.0190 -0.2519
  223loPI    C2 3554   3.111   7.857  11.222  0.0851 -0.1755  0.1014
  223loPI    C3 3555   3.081   7.505  11.409  0.3384 -0.3238 -0.1305
  223loPI   PO4 3556   3.456   7.595  10.875 -0.0961  0.1373  0.1536
  223loPI   GL1 3557   3.463   7.575  10.387  0.2405 -0.2635 -0.1120
  223loPI   GL2 3558   3.746   7.414  10.456  0.1922 -0.2496 -0.0596
  223loPI   C1A 3559   3.374   7.517   9.875  0.3020 -0.1514 -0.2437
  223loPI   C2A 3560   3.387   7.515   9.441  0.4250  0.5285 -0.0178
  223loPI   C3A 3561   3.446   7.419   8.994  0.0218 -0.0750 -0.0371
  223loPI   C4A 3562   3.352   7.392   8.614 -0.0372 -0.2278 -0.0870
  223loPI   C5A 3563   3.374   7.010   8.372 -0.0686 -0.2346  0.3772
  223loPI   C6A 3564   3.653   6.959   7.972  0.2047 -0.3076 -0.0801
  223loPI   C1B 3565   3.852   7.492  10.032  0.2014 -0.0802 -0.0380
  223loPI   C2B 3566   3.936   7.481   9.690 -0.0741  0.0666  0.2692
  223loPI   C3B 3567   3.918   7.569   9.283  0.1027 -0.2555  0.2389
  223loPI   C4B 3568   3.955   7.396   8.885  0.1368  0.0248  0.0094
  224loPI    C1 3569  12.409   3.030  10.450 -0.0578  0.0619  0.1754
  224loPI    C2 3570  12.231   3.229  10.748 -0.0590  0.0572  0.1777
  224loPI    C3 3571  12.628   3.250  10.702 -0.1024  0.4162 -0.0859
  224loPI   PO4 3572  12.086   2.940  10.257 -0.0770 -0.1183  0.0234
  224loPI   GL1 3573  12.083   3.008   9.811 -0.0115  0.2616 -0.1895
  224loPI   GL2 3574  12.115   2.708   9.626  0.1079 -0.2567  0.1233
  224loPI   C1A 3575  12.165   3.257   9.422 -0.0315  0.0091  0.2575
  224loPI   C2A 3576  12.130   3.313   9.024 -0.1680 -0.1447  0.4476
  224loPI   C3A 3577  12.040   3.366   8.640 -0.2277 -0.1784 -0.1439
  224loPI   C4A 3578  12.078   3.537   8.283 -0.1121  0.2175 -0.3465
  224loPI   C5A 3579  12.201   3.360   7.889  0.1593 -0.1357 -0.1341
  224loPI   C6A 3580  12.668   3.531   7.707 -0.1333 -0.0366 -0.1530
  224loPI   C1B 3581  12.117   2.774   9.225 -0.1698  0.0264 -0.3269
  224loPI   C2B 3582  12.157   2.841   8.791  0.1054 -0.1624  0.0199
  224loPI   C3B 3583  12.229   2.776   8.373 -0.2048 -0.2842 -0.0729
  224loPI   C4B 3584  12.472   2.897   8.001  0.0566  0.1654 -0.4576
  225loPI    C1 3585  15.942  12.784  10.827 -0.4854 -0.1751  0.1817
  225loPI    C2 3586  16.009  12.433  11.006 -0.2457 -0.1110  0.2207
  225loPI    C3 3587  16.043  12.773  11.214 -0.1819 -0.0486  0.1092
  225loPI   PO4 3588  16.090  12.752  10.618  0.1134  0.2203 -0.0310
  225loPI   GL1 3589  15.963  12.859  10.188 -0.1139  0.0860  0.0074
  225loPI   GL2 3590  16.040  12.641  10.136  0.1931 -0.2207  0.1686
  225loPI   C1A 3591  15.853  13.149   9.773 -0.1353 -0.0360  0.0191
  225loPI   C2A 3592  15.842  13.174   9.406 -0.0049  0.0263  0.1828
  225loPI   C3A 3593  15.749  13.017   8.989  0.2330  0.1986  0.2887
  225loPI   C4A 3594  15.862  12.914   8.536 -0.1750 -0.2579 -0.1003
  225loPI   C5A 3595  15.955  12.879   8.014  0.2552  0.2090 -0.2316
  225loPI   C6A 3596  16.007  12.993   7.609  0.0420 -0.0936  0.0742
  225loPI   C1B 3597  15.895  12.569   9.713 -0.0160  0.3006 -0.2356
  225loPI   C2B 3598  15.740  12.512   9.226 -0.1475 -0.1347 -0.0719
  225loPI   C3B 3599  15.762  12.482   8.745  0.1805  0.0918  0.0637
  225loPI   C4B 3600  15.867  12.428   8.338 -0.1207  0.0898  0.0156
  226loPI    C1 3601  10.217   8.706  10.964  0.0700 -0.0570  0.0333
  226loPI    C2 3602  10.164   8.319  11.052 -0.1890  0.0170  0.2164
  226loPI    C3 3603  10.429   8.537  11.258 -0.1258 -0.0341  0.1896
  226loPI   PO4 3604  10.234   8.711  10.730  0.0108  0.3667  0.0433
  226loPI   GL1 3605  10.149   8.920  10.327 -0.2138 -0.0253  0.1817
  226loPI   GL2 3606  10.278   9.230  10.247  0.2991  0.1044 -0.0824
  226loPI   C1A 3607  10.032   8.886   9.948 -0.0624  0.1317  0.0339
  226loPI   C2A 3608  10.077   8.982   9.527  0.0658 -0.1049 -0.1517
  226loPI   C3A 3609  10.046   8.934   9.044 -0.2792  0.1103 -0.1565
  226loPI   C4A 3610  10.101   9.055   8.611  0.1286  0.0986  0.0754
  226loPI   C5A 3611   9.993   9.166   8.214 -0.2908  0.1088 -0.1413
  226loPI   C6A 3612   9.988   8.934   7.887 -0.2033 -0.1135 -0.1918
  226loPI   C1B 3613  10.268   9.319   9.859  0.0796 -0.1591  0.0098
  226loPI   C2B 3614  10.295   9.383   9.378 -0.2204 -0.0102 -0.1038
  226loPI   C3B 3615  10.319   9.439   8.924 -0.1553 -0.1899  0.0441
  226loPI   C4B 3616  10.440   9.413   8.524 -0.1758  0.1449  0.4164
  227loPI    C1 3617  15.880   5.930  10.632  0.0723 -0.1145 -0.1620
  227loPI    C2 3618  16.149   6.192  10.768 -0.0363 -0.1846  0.1986
  227loPI    C3 3619  16.095   5.844  10.958 -0.1856 -0.2911 -0.0347
  227loPI   PO4 3620  15.888   6.003  10.340  0.0755 -0.0519 -0.2431
  227loPI   GL1 3621  15.981   6.074  10.020  0.0861 -0.1101 -0.0412
  227loPI   GL2 3622  15.699   6.209   9.775  0.0791  0.0951  0.2099
  227loPI   C1A 3623  16.229   6.265   9.697 -0.2740  0.0996 -0.0538
  227loPI   C2A 3624  16.233   6.209   9.248  0.0933 -0.1526 -0.0301
  227loPI   C3A 3625  16.270   6.247   8.859 -0.1651  0.0235 -0.1146
  227loPI   C4A 3626  16.313   6.251   8.369  0.1994 -0.2559  0.0226
  227loPI   C5A 3627  16.277   6.241   7.932  0.1948 -0.2308  0.0019
  227loPI   C6A 3628  16.117   6.000   7.642  0.1487  0.0812  0.0480
  227loPI   C1B 3629  15.785   6.302   9.319  0.1048 -0.0149 -0.0885
  227loPI   C2B 3630  15.743   6.320   8.918  0.0255  0.1584  0.2066
  227loPI   C3B 3631  15.809   6.336   8.535 -0.0659  0.1520  0.1170
  227loPI   C4B 3632  15.733   6.363   8.094  0.1223  0.2724  0.5116
  228loPI    C1 3633   1.367   6.444  10.782 -0.0969  0.1179  0.0416
  228loPI    C2 3634   1.406   6.084  10.952  0.0956  0.0684 -0.1029
  228loPI    C3 3635   1.568   6.406  11.126  0.1187  0.0496 -0.0897
  228loPI   PO4 3636   1.396   6.438  10.553 -0.1611 -0.4519 -0.1161
  228loPI   GL1 3637   1.404   6.179  10.224 -0.2124 -0.2799  0.0473
  228loPI   GL2 3638   1.693   6.146  10.054  0.1118 -0.3425  0.2079
  228loPI   C1A 3639   1.338   6.422   9.894 -0.2602 -0.0559 -0.0904
  228loPI   C2A 3640   1.358   6.586   9.484 -0.1568  0.1887  0.4795
  228loPI   C3A 3641   1.361   6.605   9.017 -0.3226 -0.2043 -0.2172
  228loPI   C4A 3642   1.364   6.640   8.618 -0.1031  0.1603 -0.2417
  228loPI   C5A 3643   1.203   6.817   8.257  0.1948 -0.0376 -0.0848
  228loPI   C6A 3644   1.478   6.947   7.970  0.2652 -0.0563 -0.1275
  228loPI   C1B 3645   1.699   6.103   9.621  0.0668 -0.0766 -0.0426
  228loPI   C2B 3646   1.638   6.176   9.219 -0.3443 -0.1593 -0.1614
  228loPI   C3B 3647   1.548   6.201   8.844  0.2054 -0.1665  0.3298
  228loPI   C4B 3648   1.628   6.193   8.406 -0.0104  0.2448  0.1488
  229loPI    C1 3649   1.165   4.757  10.556  0.3069 -0.2003  0.1049
  229loPI    C2 3650   1.353   4.930  10.865 -0.2063  0.1696  0.2229
  229loPI    C3 3651   1.006   4.739  10.923 -0.1749  0.0126 -0.0846
  229loPI   PO4 3652   1.146   4.890  10.313 -0.0646 -0.2350 -0.0133
  229loPI   GL1 3653   1.054   4.821   9.865  0.5408 -0.0822  0.0948
  229loPI   GL2 3654   1.401   4.784   9.833 -0.1564 -0.0119 -0.0512
  229loPI   C1A 3655   0.748   4.834   9.428 -0.1503 -0.2168  0.1500
  229loPI   C2A 3656   0.732   4.877   8.982 -0.0171 -0.1624  0.0804
  229loPI   C3A 3657   0.820   4.904   8.543 -0.0372 -0.2221  0.0195
  229loPI   C4A 3658   0.672   4.985   8.115  0.0609  0.2993 -0.3174
  229loPI   C5A 3659   0.861   5.148   7.742  0.1892 -0.1124 -0.0378
  229loPI   C6A 3660   1.202   5.168   7.549  0.0130  0.0566  0.2063
  229loPI   C1B 3661   1.301   4.768   9.406  0.0062 -0.1034 -0.2432
  229loPI   C2B 3662   1.272   4.857   8.999  0.1926 -0.0899  0.2819
  229loPI   C3B 3663   1.319   4.870   8.555 -0.2568  0.0200  0.0372
  229loPI   C4B 3664   1.250   5.009   8.036 -0.0489 -0.0361  0.2874
  230loPI    C1 3665  15.278  16.371  10.722 -0.1274 -0.0508 -0.0728
  230loPI    C2 3666  15.517  16.194  10.990  0.0025  0.0908 -0.0937
  230loPI    C3 3667  15.161  16.034  10.902 -0.0351  0.0358  0.1528
  230loPI   PO4 3668  15.250  16.493  10.506 -0.1936 -0.3040 -0.1651
  230loPI   GL1 3669  15.265  16.349  10.165 -0.0138 -0.0861  0.1919
  230loPI   GL2 3670  15.593  16.253  10.100  0.2563 -0.1574  0.1817
  230loPI   C1A 3671  15.047  16.412   9.867 -0.1259 -0.2664 -0.0597
  230loPI   C2A 3672  14.974  16.429   9.452 -0.0981  0.0876 -0.0030
  230loPI   C3A 3673  15.060  16.468   9.013  0.1061 -0.0576 -0.1137
  230loPI   C4A 3674  14.998  16.411   8.577  0.2284 -0.1116 -0.2052
  230loPI   C5A 3675  15.059  16.571   8.162  0.0523  0.0177 -0.1715
  230loPI   C6A 3676  15.254  16.873   7.909  0.1756  0.2459  0.4075
  230loPI   C1B 3677  15.522  16.211   9.682  0.2139 -0.0731 -0.1325
  230loPI   C2B 3678  15.416  16.229   9.249 -0.0789 -0.0833 -0.0433
  230loPI   C3B 3679  15.517  16.241   8.798 -0.0970 -0.1034  0.1887
  230loPI   C4B 3680  15.447  16.222   8.316  0.2532 -0.2345 -0.0716
  231loPI    C1 3681  17.854   2.078  10.861  0.0300 -0.1603 -0.2570
  231loPI    C2 3682  17.796   2.468  10.929  0.0906 -0.2083  0.0904
  231loPI    C3 3683  18.107   2.279  11.096  0.0775 -0.4010 -0.0979
  231loPI   PO4 3684  17.853   2.029  10.574  0.1329  0.1682 -0.0535
  231loPI   GL1 3685  17.953   2.075  10.150  0.2792  0.3594  0.0962
  231loPI   GL2 3686  17.734   2.283  10.029  0.1439 -0.3502  0.1583
  231loPI   C1A 3687  18.130   2.061   9.708  0.0862  0.1947 -0.0935
  231loPI   C2A 3688  18.197   2.056   9.318 -0.2773  0.1742  0.0002
  231loPI   C3A 3689  18.234   2.006   8.827 -0.0971  0.0556  0.1576
  231loPI   C4A 3690  18.168   2.059   8.404 -0.4756  0.1732 -0.0722
  231loPI   C5A 3691  18.159   2.119   8.006  0.0939  0.1172  0.0636
  231loPI   C6A 3692  18.137   2.260   7.635  0.2701  0.0146 -0.3421
  231loPI   C1B 3693  17.706   2.258   9.625  0.1246 -0.0478 -0.0779
  231loPI   C2B 3694  17.752   2.359   9.142  0.0372 -0.2807 -0.0861
  231loPI   C3B 3695  17.719   2.267   8.738  0.0713 -0.0049 -0.0406
  231loPI   C4B 3696  17.673   2.335   8.270  0.1891  0.2734 -0.2962
  232loPI    C1 3697   2.637   7.974  10.674  0.2054 -0.0846  0.1073
  232loPI    C2 3698   2.598   8.135  11.038 -0.0395  0.0456  0.0260
  232loPI    C3 3699   2.713   8.363  10.730  0.1045 -0.0500  0.0083
  232loPI   PO4 3700   2.468   7.724  10.707 -0.3531 -0.3966 -0.1514
  232loPI   GL1 3701   2.356   7.673  10.321 -0.0061  0.0519  0.1160
  232loPI   GL2 3702   2.430   7.545  10.104 -0.0229  0.0506 -0.1977
  232loPI   C1A 3703   2.134   7.983   9.960  0.0310 -0.4368  0.0417
  232loPI   C2A 3704   2.057   7.972   9.498 -0.0526  0.3009  0.0471
  232loPI   C3A 3705   2.162   7.893   9.037 -0.0415 -0.2281 -0.1305
  232loPI   C4A 3706   2.102   7.992   8.572 -0.0580 -0.0585 -0.0462
  232loPI   C5A 3707   1.954   8.117   8.244  0.1300  0.4579  0.0597
  232loPI   C6A 3708   1.556   8.135   8.044 -0.1148  0.0259 -0.0912
  232loPI   C1B 3709   2.393   7.607   9.638  0.5501  0.1053 -0.0433
  232loPI   C2B 3710   2.398   7.538   9.259 -0.2970 -0.1493  0.1416
  232loPI   C3B 3711   2.382   7.475   8.944 -0.3353 -0.0559 -0.2459
  232loPI   C4B 3712   2.425   7.529   8.543  0.0915  0.0612  0.1178
  233loPI    C1 3713   3.571   5.318  10.428  0.2175  0.0702 -0.0469
  233loPI    C2 3714   3.406   5.676  10.364 -0.1247 -0.1056 -0.1749
  233loPI    C3 3715   3.503   5.564  10.735  0.2100  0.2115 -0.1608
  233loPI   PO4 3716   3.460   5.172  10.193 -0.0561  0.2089 -0.0519
  233loPI   GL1 3717   3.336   5.482   9.857 -0.0521 -0.2380 -0.1080
  233loPI   GL2 3718   2.934   5.621   9.823 -0.1327  0.1742 -0.2844
  233loPI   C1A 3719   3.414   5.713   9.502  0.1090  0.3377 -0.0880
  233loPI   C2A 3720   3.448   5.666   9.142 -0.3139  0.1188  0.1263
  233loPI   C3A 3721   3.389   5.702   8.773 -0.0518  0.0205  0.3426
  233loPI   C4A 3722   3.442   5.615   8.324 -0.0626 -0.1336 -0.1571
  233loPI   C5A 3723   3.342   5.817   8.004 -0.0974  0.0955  0.0621
  233loPI   C6A 3724   3.378   5.692   7.519  0.0017  0.2650 -0.0545
  233loPI   C1B 3725   2.945   5.602   9.315 -0.0770 -0.2576 -0.1022
  233loPI   C2B 3726   2.828   5.721   8.891  0.0083  0.1896 -0.4614
  233loPI   C3B 3727   2.883   5.682   8.498 -0.0366 -0.2273  0.0017
  233loPI   C4B 3728   2.849   5.813   8.074  0.1720  0.0329 -0.2366
  234loPI    C1 3729  12.235   4.931  10.624 -0.0932  0.0940 -0.0358
  234loPI    C2 3730  11.978   4.943  10.929 -0.0936 -0.0468 -0.0304
  234loPI    C3 3731  12.320   5.149  10.948 -0.1826  0.1014 -0.0172
  234loPI   PO4 3732  12.066   4.950  10.328 -0.0954 -0.1975 -0.0754
  234loPI   GL1 3733  12.193   4.869   9.877  0.2571  0.3234 -0.1732
  234loPI   GL2 3734  12.030   4.790   9.686 -0.6191  0.0163  0.0902
  234loPI   C1A 3735  12.439   4.897   9.373  0.0798 -0.3207  0.1573
  234loPI   C2A 3736  12.403   4.897   9.064  0.2862 -0.1229 -0.0266
  234loPI   C3A 3737  12.430   4.892   8.621 -0.2307  0.4173  0.0089
  234loPI   C4A 3738  12.419   4.666   8.268  0.2142  0.0423  0.2349
  234loPI   C5A 3739  12.229   4.495   7.870 -0.2019  0.0919 -0.1124
  234loPI   C6A 3740  12.316   4.497   7.340  0.4158  0.0148  0.2188
  234loPI   C1B 3741  11.938   4.878   9.274 -0.0905 -0.0690 -0.0455
  234loPI   C2B 3742  11.992   4.886   8.794 -0.2122  0.1089 -0.1552
  234loPI   C3B 3743  11.865   4.796   8.416  0.2781  0.0869  0.1498
  234loPI   C4B 3744  11.849   4.770   8.075 -0.1930 -0.1937 -0.0812
  235loPI    C1 3745   8.900   6.581  10.937 -0.1087 -0.0860  0.2694
  235loPI    C2 3746   9.175   6.659  11.216  0.1015 -0.0171  0.0461
  235loPI    C3 3747   9.076   6.281  11.134 -0.0164 -0.0350  0.2653
  235loPI   PO4 3748   8.961   6.732  10.732 -0.0064  0.1270 -0.1971
  235loPI   GL1 3749   9.113   6.963  10.313 -0.0514 -0.0083  0.1768
  235loPI   GL2 3750   8.974   7.252  10.361 -0.1121 -0.2402 -0.1158
  235loPI   C1A 3751   9.242   6.816   9.892 -0.1934 -0.0693  0.0293
  235loPI   C2A 3752   9.211   6.755   9.457  0.1157 -0.0002 -0.2352
  235loPI   C3A 3753   9.281   6.778   8.953 -0.0115  0.0355  0.2557
  235loPI   C4A 3754   9.286   6.747   8.596 -0.1725  0.2682  0.0676
  235loPI   C5A 3755   9.342   6.919   8.198 -0.1430 -0.0949 -0.1020
  235loPI   C6A 3756   9.572   6.698   7.649 -0.1186 -0.3097 -0.0389
  235loPI   C1B 3757   9.002   7.253   9.855 -0.2408  0.0470 -0.3231
  235loPI   C2B 3758   9.013   7.195   9.427  0.1703 -0.0365  0.0767
  235loPI   C3B 3759   8.960   7.179   8.994 -0.2966  0.1903  0.3489
  235loPI   C4B 3760   9.030   7.181   8.543 -0.0929  0.0772 -0.1527
  236loPI    C1 3761  17.907   4.247  10.334 -0.0383 -0.0260 -0.2161
  236loPI    C2 3762  18.274   4.214  10.490 -0.1386 -0.1376  0.0016
  236loPI    C3 3763  18.021   3.904  10.505 -0.3269  0.0176  0.0746
  236loPI   PO4 3764  17.969   4.361  10.121 -0.1930  0.1371  0.0901
  236loPI   GL1 3765  18.160   4.319   9.732 -0.0010 -0.1073  0.0495
  236loPI   GL2 3766  17.866   4.292   9.607 -0.0651  0.4772  0.0042
  236loPI   C1A 3767  18.336   4.440   9.396 -0.0208 -0.0238 -0.1987
  236loPI   C2A 3768  18.245   4.470   8.915  0.3868 -0.1676 -0.0823
  236loPI   C3A 3769  18.262   4.465   8.511 -0.0767  0.3138 -0.0605
  236loPI   C4A 3770  18.238   4.495   8.143  0.0684  0.0134  0.0151
  236loPI   C5A 3771  18.212   4.468   7.767 -0.2126  0.1318 -0.0716
  236loPI   C6A 3772  18.172   4.206   7.429 -0.0742 -0.0396 -0.0965
  236loPI   C1B 3773  17.822   4.446   9.175  0.0618  0.3156 -0.2523
  236loPI   C2B 3774  17.789   4.441   8.659 -0.0343  0.0464 -0.1673
  236loPI   C3B 3775  17.719   4.399   8.362 -0.1757  0.1108 -0.2646
  236loPI   C4B 3776  17.728   4.423   7.930  0.1874  0.0062 -0.2936
  237loPI    C1 3777   8.791  17.956  10.598  0.0123 -0.0939  0.1555
  237loPI    C2 3778   8.628  17.709  10.867 -0.0541 -0.0332  0.1717
  237loPI    C3 3779   8.778  18.061  10.984  0.2333 -0.1550  0.1809
  237loPI   PO4 3780   8.881  17.761  10.396 -0.0469 -0.0437 -0.3009
  237loPI   GL1 3781   8.981  17.750  10.039  0.1990  0.0987  0.1877
  237loPI   GL2 3782   9.348  17.492  10.067  0.0716  0.2359  0.1612
  237loPI   C1A 3783   8.954  17.721   9.558 -0.1598 -0.1586 -0.2017
  237loPI   C2A 3784   8.943  17.612   9.082 -0.0008 -0.2562  0.0442
  237loPI   C3A 3785   8.909  17.560   8.662  0.2182  0.2673  0.0800
  237loPI   C4A 3786   8.958  17.593   8.192 -0.3031  0.0117 -0.2503
  237loPI   C5A 3787   9.186  17.399   7.940 -0.0967 -0.0271  0.0013
  237loPI   C6A 3788   9.462  17.424   7.651 -0.0617  0.1727 -0.0888
  237loPI   C1B 3789   9.443  17.409   9.639 -0.0201 -0.1352  0.0036
  237loPI   C2B 3790   9.503  17.365   9.214 -0.0937 -0.2304  0.2128
  237loPI   C3B 3791   9.456  17.448   8.775 -0.1334 -0.1075  0.1451
  237loPI   C4B 3792   9.345  17.323   8.413  0.2881 -0.0879 -0.2075
  238loPI    C1 3793   6.722   4.019  10.722  0.0402 -0.1295 -0.1353
  238loPI    C2 3794   6.982   3.733  10.826  0.0955  0.0432  0.2176
  238loPI    C3 3795   6.614   3.737  10.984  0.0220  0.0460  0.0489
  238loPI   PO4 3796   6.781   4.018  10.428  0.2259  0.0585 -0.2497
  238loPI   GL1 3797   6.656   3.749  10.050 -0.1404 -0.2493  0.1793
  238loPI   GL2 3798   6.549   3.470   9.958 -0.1357 -0.0159 -0.0321
  238loPI   C1A 3799   6.772   3.805   9.667  0.0277  0.1568 -0.3119
  238loPI   C2A 3800   6.687   3.901   9.198  0.1121 -0.4291 -0.0230
  238loPI   C3A 3801   6.750   3.899   8.807  0.1835  0.0578  0.0790
  238loPI   C4A 3802   6.673   3.989   8.418  0.0704  0.2355 -0.1610
  238loPI   C5A 3803   6.388   4.090   8.148 -0.2005  0.2249  0.2018
  238loPI   C6A 3804   5.991   3.771   8.007  0.0891  0.1407  0.1419
  238loPI   C1B 3805   6.520   3.499   9.455 -0.0415 -0.0626  0.0577
  238loPI   C2B 3806   6.548   3.469   8.979 -0.3461 -0.2770  0.2305
  238loPI   C3B 3807   6.450   3.566   8.601  0.0565  0.2775  0.0898
  238loPI   C4B 3808   6.323   3.471   8.299  0.1776 -0.1049  0.1257
  239loPI    C1 3809  12.746  12.740  10.696  0.1502  0.1311 -0.3736
  239loPI    C2 3810  12.575  12.406  10.557 -0.1777  0.1786 -0.0950
  239loPI    C3 3811  12.773  12.400  10.904  0.0159  0.2236 -0.2034
  239loPI   PO4 3812  12.856  12.832  10.404  0.0279 -0.0156  0.3746
  239loPI   GL1 3813  13.079  12.950  10.083  0.1116  0.0626 -0.0802
  239loPI   GL2 3814  13.315  12.726  10.195 -0.0158 -0.0547 -0.3157
  239loPI   C1A 3815  12.999  12.940   9.583  0.1855  0.0049 -0.0520
  239loPI   C2A 3816  13.182  12.879   9.185 -0.0764 -0.0847  0.0755
  239loPI   C3A 3817  13.187  12.939   8.738 -0.1459 -0.1457  0.0709
  239loPI   C4A 3818  13.250  12.826   8.375  0.1229 -0.1168 -0.2674
  239loPI   C5A 3819  13.204  12.406   8.189  0.2334 -0.1281  0.2556
  239loPI   C6A 3820  13.306  12.239   7.894 -0.4381 -0.0235 -0.0484
  239loPI   C1B 3821  13.577  12.660   9.939  0.2274  0.0996 -0.0265
  239loPI   C2B 3822  13.539  12.684   9.403  0.0390  0.1312  0.3279
  239loPI   C3B 3823  13.625  12.644   9.092  0.0841  0.2657  0.0710
  239loPI   C4B 3824  13.630  12.539   8.693 -0.2534  0.1254  0.2328
  240loPI    C1 3825   2.839   8.986  10.736 -0.1193  0.1337  0.0292
  240loPI    C2 3826   2.996   8.861  11.082  0.0816  0.1172 -0.0659
  240loPI    C3 3827   2.617   8.771  10.989  0.0161  0.1493  0.1628
  240loPI   PO4 3828   2.913   8.873  10.516  0.1048 -0.0178 -0.3793
  240loPI   GL1 3829   2.729   8.656  10.137  0.2557 -0.2978  0.1539
  240loPI   GL2 3830   2.620   8.948   9.994 -0.0408  0.0558  0.0566
  240loPI   C1A 3831   2.918   8.461   9.802  0.0403  0.0628 -0.1519
  240loPI   C2A 3832   2.970   8.422   9.371 -0.0598 -0.1016  0.1326
  240loPI   C3A 3833   2.996   8.357   9.048 -0.1700  0.1623 -0.0141
  240loPI   C4A 3834   2.922   8.312   8.531  0.0300  0.0453 -0.0396
  240loPI   C5A 3835   2.830   8.190   8.080  0.2452  0.0032  0.1392
  240loPI   C6A 3836   2.681   8.148   7.705 -0.2144  0.2181  0.5669
  240loPI   C1B 3837   2.660   8.778   9.603  0.2021  0.3426  0.1213
  240loPI   C2B 3838   2.638   8.769   9.176  0.0549 -0.0902  0.4000
  240loPI   C3B 3839   2.750   8.894   8.728  0.0963  0.2303  0.0021
  240loPI   C4B 3840   2.708   8.772   8.303  0.1834 -0.1980  0.2321
  241loPI    C1 3841   7.718  17.492  10.554 -0.1086 -0.1811  0.0000
  241loPI    C2 3842   7.696  17.155  10.768  0.1009 -0.1463  0.0792
  241loPI    C3 3843   7.725  17.508  10.954 -0.0931 -0.0852 -0.0040
  241loPI   PO4 3844   7.748  17.465  10.403 -0.2435  0.0423  0.2684
  241loPI   GL1 3845   7.638  17.409   9.987  0.0196 -0.2129  0.3260
  241loPI   GL2 3846   7.629  17.657   9.837 -0.0384  0.0661 -0.1494
  241loPI   C1A 3847   8.037  17.513   9.626  0.0133 -0.1446 -0.2167
  241loPI   C2A 3848   8.044  17.447   9.202 -0.0410  0.3851  0.0591
  241loPI   C3A 3849   8.030  17.485   8.735 -0.4020  0.0238  0.0582
  241loPI   C4A 3850   8.057  17.513   8.260 -0.1267 -0.2955 -0.1403
  241loPI   C5A 3851   7.822  17.652   7.910 -0.0481 -0.0719  0.1149
  241loPI   C6A 3852   7.597  17.660   7.541  0.0080 -0.1410  0.1992
  241loPI   C1B 3853   7.570  17.598   9.400  0.0607 -0.2645  0.1252
  241loPI   C2B 3854   7.600  17.663   8.874 -0.1743 -0.2909 -0.0814
  241loPI   C3B 3855   7.585  17.694   8.434  0.0900 -0.1304 -0.2736
  241loPI   C4B 3856   7.432  17.915   8.024  0.0350 -0.2425 -0.1063
  242loPI    C1 3857  16.005  14.957  10.634 -0.2109 -0.0286 -0.2897
  242loPI    C2 3858  15.634  15.043  10.757 -0.1655  0.0145 -0.1821
  242loPI    C3 3859  15.949  15.214  10.936 -0.0743 -0.3460  0.0124
  242loPI   PO4 3860  15.914  14.770  10.398 -0.1128 -0.1097 -0.1861
  242loPI   GL1 3861  16.052  14.509  10.078  0.1385 -0.0748  0.0114
  242loPI   GL2 3862  15.835  14.415   9.978  0.0988  0.2491  0.2004
  242loPI   C1A 3863  16.177  14.521   9.654 -0.0849  0.0493 -0.0661
  242loPI   C2A 3864  16.090  14.373   9.372 -0.3868  0.0849  0.1933
  242loPI   C3A 3865  16.045  14.480   8.996  0.1399  0.0353 -0.3134
  242loPI   C4A 3866  16.093  14.340   8.571  0.1497 -0.1242  0.0476
  242loPI   C5A 3867  16.081  14.566   8.152  0.4192  0.0067  0.1665
  242loPI   C6A 3868  16.036  14.825   7.834 -0.1700  0.1174  0.1840
  242loPI   C1B 3869  15.657  14.237   9.601  0.0235 -0.1458  0.0465
  242loPI   C2B 3870  15.712  14.167   9.130  0.0702  0.1028 -0.1009
  242loPI   C3B 3871  15.690  14.099   8.652 -0.2690 -0.1711  0.1235
  242loPI   C4B 3872  15.777  14.180   8.203 -0.1376  0.1302  0.3947
  243loPI    C1 3873   2.347   6.754  10.751 -0.0366  0.1525  0.3758
  243loPI    C2 3874   2.267   6.364  10.797  0.0336  0.0680 -0.1525
  243loPI    C3 3875   1.997   6.606  10.627  0.1909  0.1449 -0.2956
  243loPI   PO4 3876   2.539   6.723  10.650  0.0430  0.2485  0.2710
  243loPI   GL1 3877   2.736   6.633  10.359  0.0156 -0.2852 -0.0163
  243loPI   GL2 3878   2.935   6.857  10.403  0.0717 -0.0489 -0.0232
  243loPI   C1A 3879   2.911   6.594   9.944  0.1338  0.0078  0.0285
  243loPI   C2A 3880   2.920   6.679   9.504  0.1779 -0.0377 -0.1328
  243loPI   C3A 3881   2.841   6.599   9.124  0.2208  0.0869  0.1360
  243loPI   C4A 3882   2.831   6.622   8.702  0.0247  0.3484 -0.0773
  243loPI   C5A 3883   2.839   6.668   8.282 -0.0176  0.1586 -0.0581
  243loPI   C6A 3884   2.875   6.407   7.908 -0.0233 -0.1495  0.1315
  243loPI   C1B 3885   3.139   6.971  10.067  0.1005  0.0488 -0.0228
  243loPI   C2B 3886   3.165   7.126   9.687 -0.0314 -0.0412 -0.2134
  243loPI   C3B 3887   3.160   6.999   9.213 -0.2554 -0.1280  0.3717
  243loPI   C4B 3888   3.073   7.045   8.760  0.1301 -0.0324  0.2085
  244loPI    C1 3889   6.080   3.508  10.827 -0.0049  0.0284  0.3219
  244loPI    C2 3890   5.732   3.680  10.923 -0.0420  0.1337  0.0074
  244loPI    C3 3891   6.074   3.823  11.073 -0.1111  0.1984  0.1047
  244loPI   PO4 3892   5.985   3.417  10.523 -0.1142 -0.0085 -0.0287
  244loPI   GL1 3893   6.129   3.610  10.196  0.1619 -0.1016 -0.2133
  244loPI   GL2 3894   5.939   3.311   9.991  0.1979  0.0923  0.0375
  244loPI   C1A 3895   5.771   3.817   9.924  0.0464 -0.0773  0.3776
  244loPI   C2A 3896   5.648   3.829   9.581  0.0279 -0.3449  0.1832
  244loPI   C3A 3897   5.645   3.898   9.063 -0.0191 -0.1795 -0.1323
  244loPI   C4A 3898   5.601   3.954   8.639  0.2195  0.2233  0.1759
  244loPI   C5A 3899   5.641   4.048   8.232 -0.0551 -0.0779  0.1140
  244loPI   C6A 3900   5.893   4.264   7.971  0.2833  0.3087 -0.1799
  244loPI   C1B 3901   6.082   3.545   9.664  0.2828 -0.1431  0.1391
  244loPI   C2B 3902   5.971   3.509   9.246 -0.0614 -0.2812  0.0666
  244loPI   C3B 3903   5.975   3.458   8.830 -0.3293 -0.0020 -0.0300
  244loPI   C4B 3904   5.794   3.482   8.400 -0.3108  0.0066  0.1670
  245loPI    C1 3905   3.523   8.340  10.622 -0.1143  0.0841 -0.0970
  245loPI    C2 3906   3.210   8.538  10.771 -0.0984 -0.0016  0.0524
  245loPI    C3 3907   3.454   8.337  11.016 -0.0520 -0.1156 -0.0862
  245loPI   PO4 3908   3.607   8.512  10.447 -0.0137 -0.0528  0.1855
  245loPI   GL1 3909   3.406   8.546  10.068 -0.1940  0.1030 -0.0714
  245loPI   GL2 3910   3.637   8.798  10.019  0.1999  0.1507 -0.2663
  245loPI   C1A 3911   3.430   8.389   9.676  0.3664 -0.3103 -0.2905
  245loPI   C2A 3912   3.519   8.449   9.295  0.0050  0.1689 -0.2128
  245loPI   C3A 3913   3.533   8.416   8.849  0.2740  0.0290 -0.0198
  245loPI   C4A 3914   3.431   8.260   8.454  0.1713 -0.1075 -0.0218
  245loPI   C5A 3915   3.167   8.601   8.143 -0.2085  0.1484  0.1367
  245loPI   C6A 3916   3.048   8.898   7.908  0.0495 -0.0025  0.0217
  245loPI   C1B 3917   3.733   8.824   9.688  0.0863 -0.0480  0.3110
  245loPI   C2B 3918   3.728   8.880   9.229 -0.0656 -0.0855 -0.0333
  245loPI   C3B 3919   3.821   8.850   8.797 -0.0232  0.3230 -0.1756
  245loPI   C4B 3920   3.636   8.759   8.452  0.2267  0.1635 -0.0538
  246loPI    C1 3921   6.850   2.313  10.297  0.1082  0.1731 -0.1528
  246loPI    C2 3922   7.187   2.376  10.504  0.0844  0.1452 -0.1056
  246loPI    C3 3923   6.995   2.026  10.535 -0.1827  0.3128  0.2012
  246loPI   PO4 3924   6.923   2.335  10.023  0.1567 -0.2430 -0.1370
  246loPI   GL1 3925   6.817   2.518   9.635 -0.1439 -0.2758  0.1316
  246loPI   GL2 3926   6.445   2.573   9.682 -0.2656  0.0363 -0.2240
  246loPI   C1A 3927   7.010   2.501   9.223 -0.3234 -0.1968 -0.1156
  246loPI   C2A 3928   7.054   2.579   8.767 -0.0891  0.0174 -0.0264
  246loPI   C3A 3929   7.023   2.373   8.388 -0.1380  0.0220 -0.1688
  246loPI   C4A 3930   6.931   2.277   7.952 -0.0816  0.0117  0.1126
  246loPI   C5A 3931   6.590   2.164   7.725 -0.2514 -0.3226 -0.0478
  246loPI   C6A 3932   6.477   1.807   7.615 -0.0158  0.1289 -0.1296
  246loPI   C1B 3933   6.537   2.433   9.249 -0.3365  0.0209 -0.0284
  246loPI   C2B 3934   6.429   2.589   8.825 -0.1679 -0.0734  0.2475
  246loPI   C3B 3935   6.607   2.700   8.459 -0.1561  0.0008 -0.0232
  246loPI   C4B 3936   6.698   2.738   8.073  0.1774 -0.1204  0.3956
  247loPI    C1 3937  13.069   4.554  10.525  0.1566  0.0066  0.2244
  247loPI    C2 3938  12.733   4.639  10.724  0.0195 -0.0408  0.0159
  247loPI    C3 3939  13.086   4.664  10.909 -0.0980  0.0063  0.2375
  247loPI   PO4 3940  13.049   4.716  10.317 -0.3442  0.1796  0.4472
  247loPI   GL1 3941  13.078   4.480   9.927  0.1381 -0.0495 -0.0022
  247loPI   GL2 3942  13.041   4.843   9.818 -0.1471  0.1220  0.2176
  247loPI   C1A 3943  13.179   4.375   9.586 -0.0763 -0.0095  0.2490
  247loPI   C2A 3944  13.129   4.284   9.131 -0.2538 -0.0195  0.1225
  247loPI   C3A 3945  13.164   4.261   8.703 -0.1471 -0.0814  0.1268
  247loPI   C4A 3946  13.146   4.451   8.282  0.2481 -0.2032  0.1854
  247loPI   C5A 3947  13.328   4.406   7.929  0.1288  0.0248  0.2914
  247loPI   C6A 3948  13.355   4.559   7.519  0.1847  0.1996 -0.0554
  247loPI   C1B 3949  13.033   4.966   9.406  0.0712  0.3377 -0.1106
  247loPI   C2B 3950  12.932   4.861   9.020  0.0607 -0.1520  0.3775
  247loPI   C3B 3951  12.922   4.805   8.610 -0.1357  0.1120 -0.1823
  247loPI   C4B 3952  12.903   4.932   8.141  0.0668  0.1006  0.0507
  248loPI    C1 3953   5.928   4.864  10.833 -0.2464  0.0285 -0.0248
  248loPI    C2 3954   5.792   5.052  11.159  0.0039  0.0210  0.0869
  248loPI    C3 3955   5.933   5.263  10.850 -0.1812  0.0266  0.0045
  248loPI   PO4 3956   5.788   4.700  10.713  0.2058 -0.1033 -0.0718
  248loPI   GL1 3957   5.973   4.449  10.292  0.0812 -0.4055 -0.1146
  248loPI   GL2 3958   5.829   4.328  10.069  0.1526 -0.0051 -0.0527
  248loPI   C1A 3959   6.200   4.723  10.023 -0.1518  0.1852  0.2990
  248loPI   C2A 3960   6.239   4.826   9.670  0.1403 -0.0400 -0.1229
  248loPI   C3A 3961   6.203   4.916   9.226 -0.3132  0.1917  0.3774
  248loPI   C4A 3962   6.236   4.822   8.822 -0.0738  0.2088  0.0691
  248loPI   C5A 3963   6.156   4.960   8.410 -0.0230 -0.3896 -0.2524
  248loPI   C6A 3964   5.868   5.294   8.306 -0.1185  0.1327  0.3615
  248loPI   C1B 3965   5.939   4.297   9.672 -0.0671 -0.6121  0.2088
  248loPI   C2B 3966   5.952   4.293   9.211 -0.0461  0.0463  0.2111
  248loPI   C3B 3967   5.915   4.322   8.818 -0.3303  0.0189 -0.0173
  248loPI   C4B 3968   5.921   4.478   8.428  0.1319 -0.0043  0.0066
  249loPI    C1 3969  15.349   5.237  10.605  0.2357 -0.1814 -0.2558
  249loPI    C2 3970  15.290   4.844  10.653  0.1760 -0.1301  0.1211
  249loPI    C3 3971  15.380   5.073  10.968 -0.3187  0.2476  0.0015
  249loPI   PO4 3972  15.279   5.313  10.394 -0.0659  0.0634  0.1572
  249loPI   GL1 3973  15.290   5.417   9.996  0.5266  0.0609  0.0217
  249loPI   GL2 3974  15.327   5.178   9.841  0.0297 -0.2008  0.2346
  249loPI   C1A 3975  15.474   5.661   9.696 -0.0387  0.0190  0.1628
  249loPI   C2A 3976  15.430   5.699   9.230 -0.4539 -0.2942 -0.0682
  249loPI   C3A 3977  15.466   5.870   8.833  0.0405 -0.0682 -0.0147
  249loPI   C4A 3978  15.530   5.892   8.417  0.1766  0.1311  0.1148
  249loPI   C5A 3979  15.321   6.134   8.001  0.4123  0.2617 -0.1413
  249loPI   C6A 3980  15.231   6.671   7.938 -0.1262 -0.2353 -0.0026
  249loPI   C1B 3981  15.238   5.251   9.462  0.2392  0.2658 -0.2414
  249loPI   C2B 3982  15.153   5.277   9.022  0.1589 -0.0142  0.1410
  249loPI   C3B 3983  15.190   5.539   8.592 -0.2087 -0.0097 -0.0307
  249loPI   C4B 3984  15.239   5.622   8.091  0.1674 -0.1144  0.0170
  250loPI    C1 3985   1.416  16.161  10.887  0.0961  0.0320 -0.0752
  250loPI    C2 3986   1.134  16.347  10.673 -0.0335 -0.0009  0.0653
  250loPI    C3 3987   1.146  16.393  11.071 -0.0361 -0.2520  0.0957
  250loPI   PO4 3988   1.387  15.922  10.783  0.1184  0.1183 -0.0559
  250loPI   GL1 3989   1.319  15.872  10.373  0.1005  0.2477 -0.2837
  250loPI   GL2 3990   1.130  15.555  10.244 -0.0310 -0.1854 -0.0669
  250loPI   C1A 3991   1.547  16.072  10.025 -0.3323 -0.0654  0.0124
  250loPI   C2A 3992   1.767  16.197   9.618  0.1496 -0.1900 -0.1219
  250loPI   C3A 3993   1.694  16.164   9.212 -0.0892 -0.0388  0.0167
  250loPI   C4A 3994   1.790  16.110   8.691  0.0711 -0.0382 -0.0057
  250loPI   C5A 3995   1.664  16.091   8.173 -0.3182 -0.0718  0.0457
  250loPI   C6A 3996   1.451  15.833   7.774  0.0331 -0.1507 -0.0589
  250loPI   C1B 3997   1.161  15.731   9.949  0.1860  0.0770 -0.1816
  250loPI   C2B 3998   1.355  15.817   9.627 -0.2201  0.2946 -0.1456
  250loPI   C3B 3999   1.336  15.835   9.166 -0.0369 -0.0230  0.2141
  250loPI   C4B 4000   1.366  15.808   8.782 -0.0598  0.2070  0.0818
  251loPI    C1 4001   8.857   9.726  11.088  0.2096 -0.2149  0.0525
  251loPI    C2 4002   8.718   9.689  11.461 -0.1453  0.0020 -0.0543
  251loPI    C3 4003   9.112   9.705  11.396 -0.0778 -0.1191  0.3020
  251loPI   PO4 4004   8.783   9.539  10.826  0.1060  0.0665 -0.1397
  251loPI   GL1 4005   8.730   9.412  10.423  0.1571 -0.0510 -0.1475
  251loPI   GL2 4006   8.533   9.723  10.225  0.1533 -0.0242  0.2386
  251loPI   C1A 4007   8.712   9.352   9.952  0.0083  0.2913 -0.0809
  251loPI   C2A 4008   8.746   9.370   9.459  0.1048  0.1337  0.0606
  251loPI   C3A 4009   8.699   9.360   9.063  0.0713 -0.4535 -0.0465
  251loPI   C4A 4010   8.649   9.333   8.618 -0.2842  0.0915 -0.2230
  251loPI   C5A 4011   8.330   9.154   8.407  0.3663  0.3868  0.1655
  251loPI   C6A 4012   8.031   9.013   8.107 -0.0300 -0.0588  0.0165
  251loPI   C1B 4013   8.497   9.748   9.716 -0.2337 -0.2614 -0.5434
  251loPI   C2B 4014   8.427   9.878   9.391  0.2034  0.3044  0.2085
  251loPI   C3B 4015   8.414   9.810   8.925 -0.0655  0.0483  0.2101
  251loPI   C4B 4016   8.504   9.935   8.461  0.0897  0.0067 -0.0233
  252loPI    C1 4017   3.886   8.665  10.894 -0.2677 -0.3230  0.1246
  252loPI    C2 4018   4.210   8.595  11.118 -0.0530  0.1420 -0.0267
  252loPI    C3 4019   3.882   8.755  11.284 -0.0526  0.0737  0.0406
  252loPI   PO4 4020   3.951   8.809  10.662 -0.1348  0.1101  0.0027
  252loPI   GL1 4021   4.149   8.684  10.214  0.0893 -0.1512  0.1855
  252loPI   GL2 4022   3.950   8.427  10.076 -0.0233 -0.1346 -0.3484
  252loPI   C1A 4023   4.246   8.858   9.871  0.1760  0.0238  0.1403
  252loPI   C2A 4024   4.168   8.900   9.473 -0.2238 -0.0087  0.1297
  252loPI   C3A 4025   4.215   8.889   9.096 -0.0565 -0.1310  0.0190
  252loPI   C4A 4026   4.289   8.753   8.612  0.1516 -0.0204  0.1240
  252loPI   C5A 4027   4.072   8.858   8.216  0.3366 -0.3111  0.0255
  252loPI   C6A 4028   3.930   8.952   7.784 -0.0779 -0.1401 -0.0670
  252loPI   C1B 4029   3.997   8.369   9.660 -0.1472  0.2133 -0.0787
  252loPI   C2B 4030   4.012   8.458   9.250 -0.0635  0.0607 -0.1168
  252loPI   C3B 4031   4.030   8.376   8.901  0.0483 -0.1388 -0.0509
  252loPI   C4B 4032   3.905   8.361   8.491  0.0102  0.0874  0.1555
  253loPI    C1 4033   0.853   1.251  10.235  0.0953  0.2132  0.2276
  253loPI    C2 4034   1.214   1.416  10.186  0.2587 -0.1826  0.0567
  253loPI    C3 4035   1.049   1.400  10.550  0.3430  0.1379  0.1118
  253loPI   PO4 4036   0.908   1.008  10.189 -0.2383 -0.0665  0.2533
  253loPI   GL1 4037   0.993   0.828   9.885  0.0875  0.2317  0.1500
  253loPI   GL2 4038   0.961   1.163   9.721 -0.2365  0.0842 -0.0362
  253loPI   C1A 4039   0.905   0.745   9.484 -0.0722  0.1152 -0.0685
  253loPI   C2A 4040   0.694   0.841   9.162 -0.1479 -0.0993  0.2268
  253loPI   C3A 4041   0.807   0.684   8.757 -0.0032  0.1567  0.0395
  253loPI   C4A 4042   0.993   0.662   8.347 -0.1892  0.1153  0.0902
  253loPI   C5A 4043   1.218   0.365   8.040 -0.1371 -0.1363  0.0300
  253loPI   C6A 4044   1.639   0.209   7.965  0.2751 -0.3875  0.3140
  253loPI   C1B 4045   0.765   1.306   9.389  0.4430 -0.1176  0.2468
  253loPI   C2B 4046   0.794   1.256   8.880  0.1104  0.2395  0.0583
  253loPI   C3B 4047   0.931   1.161   8.402  0.0332 -0.1836 -0.1670
  253loPI   C4B 4048   0.948   1.311   7.972 -0.1908  0.2641 -0.0001
  254loPI    C1 4049   2.313   2.024  10.528 -0.0659  0.0438  0.0876
  254loPI    C2 4050   2.406   2.413  10.548  0.0119  0.0493 -0.3000
  254loPI    C3 4051   2.692   2.137  10.588 -0.0381  0.0300 -0.0587
  254loPI   PO4 4052   2.175   2.035  10.300 -0.0587  0.2131 -0.3466
  254loPI   GL1 4053   2.179   2.068   9.900 -0.0871 -0.0269 -0.0824
  254loPI   GL2 4054   1.997   1.837   9.738  0.0715  0.0925  0.1308
  254loPI   C1A 4055   2.431   2.232   9.521  0.0455 -0.1600  0.5913
  254loPI   C2A 4056   2.396   2.222   9.023 -0.2360 -0.1198  0.1998
  254loPI   C3A 4057   2.444   2.156   8.722 -0.0234 -0.1263  0.1982
  254loPI   C4A 4058   2.483   2.155   8.296  0.2403 -0.1898  0.3575
  254loPI   C5A 4059   2.317   1.851   7.894  0.0117  0.0184  0.1720
  254loPI   C6A 4060   2.407   1.556   7.554  0.1099 -0.0280  0.1161
  254loPI   C1B 4061   1.971   2.081   9.334  0.2287 -0.0603  0.0074
  254loPI   C2B 4062   1.951   2.039   8.892  0.2518 -0.3445 -0.1298
  254loPI   C3B 4063   2.034   2.078   8.446  0.1125 -0.2169  0.0624
  254loPI   C4B 4064   2.002   2.243   8.122  0.2863  0.0167  0.0493
  255loPI    C1 4065  15.988   6.991  10.765  0.0644 -0.0118  0.3370
  255loPI    C2 4066  16.099   6.634  10.906  0.2451 -0.0599  0.0799
  255loPI    C3 4067  15.795   6.830  11.076 -0.2260 -0.5889 -0.1213
  255loPI   PO4 4068  15.925   7.015  10.340 -0.0793  0.0623  0.2229
  255loPI   GL1 4069  15.795   7.255  10.112 -0.1424  0.0176 -0.0026
  255loPI   GL2 4070  15.435   7.218  10.023  0.1081 -0.1840  0.0974
  255loPI   C1A 4071  15.803   7.187   9.696 -0.2685  0.3252  0.1421
  255loPI   C2A 4072  15.722   7.152   9.295  0.0572  0.1413 -0.1625
  255loPI   C3A 4073  15.785   7.132   9.013  0.0239  0.0020  0.1480
  255loPI   C4A 4074  15.881   7.226   8.548 -0.3237  0.0503  0.3013
  255loPI   C5A 4075  15.793   7.331   8.123 -0.1848  0.1495 -0.1124
  255loPI   C6A 4076  15.528   7.253   7.815 -0.2212  0.1330 -0.0320
  255loPI   C1B 4077  15.190   7.193   9.710 -0.0216  0.3114  0.1075
  255loPI   C2B 4078  15.237   7.175   9.246 -0.1580  0.2262  0.0606
  255loPI   C3B 4079  15.259   7.235   8.753  0.0400  0.0780  0.0555
  255loPI   C4B 4080  15.176   7.344   8.313 -0.0908 -0.0931 -0.0414
  256loPI    C1 4081  13.359  16.910  10.916  0.0661  0.0527  0.0531
  256loPI    C2 4082  13.195  17.070  11.243 -0.0948  0.2405 -0.1167
  256loPI    C3 4083  13.582  16.969  11.243 -0.1012  0.2077  0.1409
  256loPI   PO4 4084  13.342  16.722  10.789  0.3262  0.0560 -0.2147
  256loPI   GL1 4085  13.067  16.584  10.468 -0.1360  0.2107  0.3069
  256loPI   GL2 4086  13.081  16.343  10.205 -0.0623  0.0842  0.1444
  256loPI   C1A 4087  13.093  16.844  10.123 -0.1543  0.1330  0.1558
  256loPI   C2A 4088  13.073  16.751   9.684  0.2369  0.0634  0.0558
  256loPI   C3A 4089  13.154  16.799   9.291  0.0130 -0.0737 -0.3399
  256loPI   C4A 4090  13.200  16.665   8.812 -0.1680  0.0547 -0.3212
  256loPI   C5A 4091  13.328  16.563   8.414 -0.0055 -0.1766  0.1221
  256loPI   C6A 4092  13.547  16.562   8.080  0.0917 -0.0634  0.2984
  256loPI   C1B 4093  13.257  16.215   9.831  0.1845 -0.0812  0.0062
  256loPI   C2B 4094  13.234  16.243   9.451  0.1244  0.3673 -0.0847
  256loPI   C3B 4095  13.222  16.218   9.081  0.2811 -0.1199 -0.0621
  256loPI   C4B 4096  13.310  16.170   8.678  0.2605 -0.1520 -0.4222
  257loPI    C1 4097   9.747   3.199  10.344 -0.2305 -0.0285  0.0199
  257loPI    C2 4098   9.855   3.340  10.703  0.1049  0.1336 -0.1397
  257loPI    C3 4099   9.900   2.952  10.619 -0.0035  0.0893  0.0022
  257loPI   PO4 4100   9.844   3.311  10.124 -0.0775 -0.0437  0.0025
  257loPI   GL1 4101   9.682   3.254   9.749 -0.0833 -0.0493  0.4405
  257loPI   GL2 4102   9.689   3.571   9.570  0.2259  0.1660 -0.3000
  257loPI   C1A 4103   9.462   3.130   9.408 -0.1003  0.0853  0.0211
  257loPI   C2A 4104   9.331   3.148   9.044 -0.0049 -0.2703 -0.3418
  257loPI   C3A 4105   9.355   3.128   8.624  0.0583 -0.3153  0.1817
  257loPI   C4A 4106   9.273   3.165   8.200 -0.0880  0.0033 -0.3351
  257loPI   C5A 4107   9.125   3.156   7.801  0.1297 -0.0557 -0.2825
  257loPI   C6A 4108   8.929   2.920   7.580 -0.0654  0.1023  0.1063
  257loPI   C1B 4109   9.622   3.564   9.074 -0.2657  0.1986 -0.1847
  257loPI   C2B 4110   9.562   3.558   8.632 -0.1407  0.1073  0.0093
  257loPI   C3B 4111   9.480   3.593   8.178  0.1135 -0.3801  0.1576
  257loPI   C4B 4112   9.355   3.604   7.740  0.0168 -0.1125  0.0190
  258loPI    C1 4113  12.673   2.702  10.691  0.1427 -0.2639 -0.0392
  258loPI    C2 4114  12.822   2.332  10.712  0.2657 -0.2050  0.1503
  258loPI    C3 4115  12.639   2.492  11.029  0.1538 -0.1270  0.0476
  258loPI   PO4 4116  12.881   2.808  10.426 -0.1958 -0.3921 -0.0334
  258loPI   GL1 4117  12.891   2.586  10.006  0.4911  0.0580  0.0219
  258loPI   GL2 4118  12.710   2.806   9.899  0.0705 -0.0751 -0.0399
  258loPI   C1A 4119  12.958   2.396   9.645  0.0852  0.4095  0.2681
  258loPI   C2A 4120  12.978   2.448   9.283  0.0936  0.2408 -0.2184
  258loPI   C3A 4121  13.058   2.437   8.869  0.1013  0.4136 -0.0040
  258loPI   C4A 4122  13.242   2.362   8.495  0.2635  0.2934 -0.0377
  258loPI   C5A 4123  13.537   2.484   8.200  0.1343  0.2041 -0.0322
  258loPI   C6A 4124  13.680   2.898   8.087 -0.0446 -0.0385  0.1158
  258loPI   C1B 4125  12.566   3.006   9.644 -0.0859  0.0993  0.0146
  258loPI   C2B 4126  12.520   3.007   9.157 -0.0750 -0.4685  0.0720
  258loPI   C3B 4127  12.563   3.086   8.731 -0.0355  0.0075  0.2889
  258loPI   C4B 4128  12.540   3.427   8.427  0.2662  0.0237  0.1658
  259loPI    C1 4129   4.347  10.441  11.076  0.1158 -0.0735 -0.0912
  259loPI    C2 4130   4.360  10.834  11.151  0.1999 -0.0454 -0.2486
  259loPI    C3 4131   4.549  10.578  11.394  0.0099 -0.0036 -0.0536
  259loPI   PO4 4132   4.486  10.436  10.832  0.0878  0.1111  0.2321
  259loPI   GL1 4133   4.495  10.468  10.419 -0.1646 -0.2013 -0.0379
  259loPI   GL2 4134   4.285  10.167  10.411  0.0022  0.1729  0.2955
  259loPI   C1A 4135   4.749  10.321   9.977 -0.3291  0.1611 -0.1088
  259loPI   C2A 4136   4.710  10.456   9.530 -0.0401 -0.2710  0.2088
  259loPI   C3A 4137   4.800  10.455   9.154  0.0566 -0.0175  0.1115
  259loPI   C4A 4138   4.726  10.133   8.873 -0.0718 -0.3297 -0.1471
  259loPI   C5A 4139   4.813   9.736   8.749 -0.0714  0.0304 -0.0411
  259loPI   C6A 4140   4.870   9.711   8.296 -0.2850 -0.1511  0.2466
  259loPI   C1B 4141   4.307  10.138  10.033 -0.2433  0.1101 -0.1522
  259loPI   C2B 4142   4.318  10.185   9.582  0.3122  0.0845 -0.4123
  259loPI   C3B 4143   4.319  10.226   9.147 -0.0152 -0.1886 -0.1401
  259loPI   C4B 4144   4.099  10.127   8.689  0.1616 -0.0976 -0.0956
  260loPI    C1 4145   3.073  12.765  10.916 -0.0279 -0.1517 -0.0086
  260loPI    C2 4146   2.689  12.823  11.010  0.0150 -0.0058  0.0807
  260loPI    C3 4147   2.928  13.136  10.943  0.1510 -0.0919  0.1586
  260loPI   PO4 4148   3.075  12.597  10.751  0.2956  0.1062 -0.2338
  260loPI   GL1 4149   3.148  12.529  10.305  0.0520  0.4219  0.0861
  260loPI   GL2 4150   2.985  12.244  10.196 -0.0153 -0.0858 -0.1639
  260loPI   C1A 4151   3.194  12.577   9.912  0.2016 -0.1920  0.3144
  260loPI   C2A 4152   3.198  12.590   9.444 -0.0101 -0.0977 -0.0461
  260loPI   C3A 4153   3.226  12.630   9.013 -0.0782 -0.1751 -0.0493
  260loPI   C4A 4154   3.175  12.665   8.500 -0.0701  0.1293  0.2260
  260loPI   C5A 4155   3.203  12.738   8.012 -0.3153  0.0326  0.1607
  260loPI   C6A 4156   2.902  13.138   7.830 -0.1120  0.3199  0.4436
  260loPI   C1B 4157   2.768  12.328   9.748 -0.0770  0.0664  0.0132
  260loPI   C2B 4158   2.812  12.329   9.261 -0.0304  0.1890  0.0422
  260loPI   C3B 4159   2.837  12.323   8.826 -0.1499  0.0766 -0.2251
  260loPI   C4B 4160   2.668  12.183   8.488  0.2055  0.1101 -0.0303
  261loPI    C1 4161  16.085  14.014  10.385  0.0405  0.1518  0.1426
  261loPI    C2 4162  16.127  13.682  10.604  0.2433 -0.0347 -0.1704
  261loPI    C3 4163  15.998  14.020  10.775  0.1829 -0.2325  0.1845
  261loPI   PO4 4164  15.964  13.957  10.238  0.1440  0.0479 -0.2238
  261loPI   GL1 4165  15.728  13.806   9.969  0.1159 -0.0747  0.0986
  261loPI   GL2 4166  15.535  13.951  10.055  0.1823  0.3127 -0.0578
  261loPI   C1A 4167  15.724  13.724   9.579 -0.1939 -0.2722  0.1237
  261loPI   C2A 4168  15.780  13.596   9.108  0.0531 -0.0007 -0.0293
  261loPI   C3A 4169  15.745  13.553   8.716 -0.0735  0.1560 -0.4492
  261loPI   C4A 4170  15.622  13.703   8.314  0.2914  0.1098 -0.0401
  261loPI   C5A 4171  15.295  13.461   7.973  0.0439  0.1832 -0.0604
  261loPI   C6A 4172  15.031  13.420   7.549 -0.1906 -0.1379  0.3066
  261loPI   C1B 4173  15.302  13.891   9.756 -0.1319  0.1350 -0.0282
  261loPI   C2B 4174  15.258  13.903   9.312 -0.0900 -0.1559 -0.1387
  261loPI   C3B 4175  15.255  13.792   8.839  0.1045 -0.0428 -0.0271
  261loPI   C4B 4176  15.199  13.932   8.396 -0.5012  0.1994  0.1121
  262loPI    C1 4177  11.756  12.297  10.437 -0.1471 -0.0382  0.0625
  262loPI    C2 4178  11.778  12.015  10.720  0.1190 -0.1014 -0.0186
  262loPI    C3 4179  11.620  11.928  10.363  0.0138 -0.0907  0.0251
  262loPI   PO4 4180  12.104  12.410  10.400 -0.1325 -0.1128 -0.1374
  262loPI   GL1 4181  12.346  12.303  10.082  0.1098 -0.3304 -0.3319
  262loPI   GL2 4182  12.764  12.405  10.136  0.1066  0.0143 -0.0798
  262loPI   C1A 4183  12.292  12.350   9.616  0.2999 -0.2555  0.0213
  262loPI   C2A 4184  12.300  12.402   9.106 -0.0637  0.2170 -0.0714
  262loPI   C3A 4185  12.244  12.400   8.691 -0.1592  0.1259 -0.2295
  262loPI   C4A 4186  12.081  12.407   8.384  0.2051  0.0110 -0.0032
  262loPI   C5A 4187  11.802  12.144   8.218 -0.0395  0.1831  0.3256
  262loPI   C6A 4188  11.394  11.942   8.142  0.2106 -0.1279  0.0109
  262loPI   C1B 4189  12.647  12.593   9.819 -0.3763  0.1919  0.1573
  262loPI   C2B 4190  12.652  12.653   9.322  0.0795  0.2438  0.0218
  262loPI   C3B 4191  12.703  12.677   8.893 -0.2163  0.2496  0.1709
  262loPI   C4B 4192  12.762  12.594   8.410  0.2686  0.2410  0.0863
  263loPI    C1 4193   5.338  11.561  10.952  0.0725  0.0417 -0.2315
  263loPI    C2 4194   5.470  11.904  11.110 -0.3135  0.2702 -0.3888
  263loPI    C3 4195   5.197  11.687  11.304  0.1185 -0.0909 -0.1652
  263loPI   PO4 4196   5.306  11.560  10.666  0.1248  0.2195  0.1262
  263loPI   GL1 4197   5.361  11.678  10.278  0.0680  0.0974  0.1655
  263loPI   GL2 4198   5.091  11.698  10.095  0.2203 -0.2236 -0.3208
  263loPI   C1A 4199   5.641  11.645   9.957  0.0040  0.2674  0.2864
  263loPI   C2A 4200   5.715  11.553   9.603  0.4039  0.3545  0.1583
  263loPI   C3A 4201   5.727  11.552   9.236  0.2198 -0.1118  0.2208
  263loPI   C4A 4202   5.530  11.627   8.990  0.0656 -0.3118 -0.0390
  263loPI   C5A 4203   5.528  11.523   8.592 -0.0607  0.0167  0.1933
  263loPI   C6A 4204   5.611  11.618   8.245  0.0784 -0.2372  0.3973
  263loPI   C1B 4205   5.209  11.766   9.728 -0.1160  0.0061 -0.2711
  263loPI   C2B 4206   5.133  11.796   9.302  0.1151  0.0693  0.0157
  263loPI   C3B 4207   5.045  11.788   8.864  0.0108  0.0931 -0.1626
  263loPI   C4B 4208   5.131  11.762   8.429  0.1109  0.2253  0.0240
  264loPI    C1 4209  10.970   1.788  10.713 -0.0770  0.2185 -0.3071
  264loPI    C2 4210  10.842   2.138  10.857 -0.2574  0.0647 -0.0869
  264loPI    C3 4211  10.608   1.814  10.881  0.0900 -0.1756  0.1357
  264loPI   PO4 4212  11.023   1.836  10.479  0.0900  0.1701 -0.2850
  264loPI   GL1 4213  11.061   1.899  10.033  0.0097 -0.4287 -0.0872
  264loPI   GL2 4214  10.922   2.032   9.770  0.0068  0.0583 -0.1350
  264loPI   C1A 4215  10.927   1.544   9.708 -0.0684  0.1110  0.0273
  264loPI   C2A 4216  10.996   1.423   9.347  0.1249  0.1955 -0.1306
  264loPI   C3A 4217  11.064   1.324   8.838 -0.3218  0.1741  0.1678
  264loPI   C4A 4218  11.071   1.373   8.382 -0.1940  0.1314  0.0421
  264loPI   C5A 4219  11.390   1.389   8.060  0.2135 -0.1455  0.2098
  264loPI   C6A 4220  11.479   1.380   7.611  0.4306  0.3186 -0.1988
  264loPI   C1B 4221  10.897   1.980   9.316 -0.0894 -0.0026  0.1758
  264loPI   C2B 4222  10.926   1.877   8.908  0.1925  0.0956 -0.1497
  264loPI   C3B 4223  10.904   1.877   8.548 -0.0008  0.3452 -0.0171
  264loPI   C4B 4224  10.960   1.840   8.154  0.0705 -0.2039  0.1985
  265loPI    C1 4225  10.094  12.941  10.947 -0.0088  0.0426  0.0570
  265loPI    C2 4226  10.279  12.669  11.175 -0.2623 -0.1118  0.0821
  265loPI    C3 4227  10.057  12.955  11.345 -0.1790 -0.0240  0.0442
  265loPI   PO4 4228  10.246  12.962  10.783 -0.0420  0.0412  0.1362
  265loPI   GL1 4229  10.082  12.942  10.395  0.0876 -0.0599 -0.0450
  265loPI   GL2 4230  10.251  13.225  10.179 -0.0946 -0.2125  0.0180
  265loPI   C1A 4231   9.996  12.773  10.031  0.0348 -0.0270  0.1177
  265loPI   C2A 4232  10.002  12.696   9.576  0.1757 -0.0944 -0.0590
  265loPI   C3A 4233  10.025  12.780   9.153  0.0461 -0.1175  0.1313
  265loPI   C4A 4234  10.072  12.790   8.680  0.0135 -0.2122 -0.3674
  265loPI   C5A 4235  10.067  12.808   8.191 -0.1718 -0.1928  0.1517
  265loPI   C6A 4236  10.297  12.769   7.717  0.0092  0.3776 -0.0919
  265loPI   C1B 4237  10.312  13.030   9.776  0.0807  0.0813  0.1144
  265loPI   C2B 4238  10.392  13.141   9.332 -0.1403 -0.1861  0.1529
  265loPI   C3B 4239  10.380  13.144   8.895 -0.2360 -0.0464  0.0978
  265loPI   C4B 4240  10.460  13.094   8.505 -0.1955 -0.1277 -0.1997
  266loPI    C1 4241   4.904   5.793  10.864 -0.1521  0.1125 -0.0033
  266loPI    C2 4242   4.639   5.503  10.940 -0.0099 -0.0536 -0.1317
  266loPI    C3 4243   4.910   5.604  11.217 -0.2663  0.1858  0.0386
  266loPI   PO4 4244   4.945   5.758  10.596  0.0155 -0.1227 -0.0139
  266loPI   GL1 4245   4.817   5.507  10.177  0.1539  0.1625 -0.0973
  266loPI   GL2 4246   4.781   5.268  10.229  0.1004 -0.1249  0.0828
  266loPI   C1A 4247   5.058   5.770   9.928 -0.2801 -0.0577 -0.1769
  266loPI   C2A 4248   5.116   5.720   9.518  0.1936  0.2505 -0.1263
  266loPI   C3A 4249   5.050   5.649   9.058  0.2205  0.1390  0.2483
  266loPI   C4A 4250   5.015   5.649   8.511  0.3425  0.0424 -0.1059
  266loPI   C5A 4251   5.195   5.924   8.236  0.1835  0.0476  0.0539
  266loPI   C6A 4252   5.346   6.120   7.812 -0.0271  0.3027  0.0655
  266loPI   C1B 4253   4.767   5.334   9.741 -0.1560 -0.1067 -0.0268
  266loPI   C2B 4254   4.759   5.203   9.328 -0.0654 -0.0568 -0.2556
  266loPI   C3B 4255   4.830   5.262   8.937 -0.0509 -0.0929 -0.0110
  266loPI   C4B 4256   4.698   5.226   8.568  0.3024  0.1170  0.1293
  267loPI    C1 4257   3.256  11.689  10.888 -0.0408 -0.0139 -0.0160
  267loPI    C2 4258   3.026  11.919  11.121  0.0289 -0.0152  0.0546
  267loPI    C3 4259   3.022  11.522  11.166 -0.1683 -0.0364 -0.1361
  267loPI   PO4 4260   3.202  11.636  10.598  0.1504 -0.3072  0.1821
  267loPI   GL1 4261   3.325  11.832  10.195 -0.2535  0.1951  0.0001
  267loPI   GL2 4262   3.480  11.637  10.013  0.1038  0.0635 -0.2708
  267loPI   C1A 4263   3.321  12.075   9.861 -0.0014  0.0216  0.0080
  267loPI   C2A 4264   3.301  12.104   9.417 -0.0672 -0.0135 -0.4642
  267loPI   C3A 4265   3.273  12.087   9.008 -0.2114 -0.0062 -0.1335
  267loPI   C4A 4266   3.194  12.037   8.593  0.1022 -0.0163 -0.4160
  267loPI   C5A 4267   3.303  12.254   8.275 -0.0002  0.0335 -0.1217
  267loPI   C6A 4268   2.952  12.313   8.036 -0.0459 -0.0315  0.2025
  267loPI   C1B 4269   3.377  11.541   9.680 -0.0543  0.2031 -0.0683
  267loPI   C2B 4270   3.281  11.670   9.253  0.0801  0.3675 -0.2046
  267loPI   C3B 4271   3.350  11.609   8.785  0.1157  0.0636  0.2463
  267loPI   C4B 4272   3.179  11.511   8.409  0.0247 -0.0227 -0.0272
  268loPI    C1 4273   2.107   7.352  10.684  0.0399 -0.1552  0.0190
  268loPI    C2 4274   1.744   7.375  10.852  0.0335  0.1413 -0.0304
  268loPI    C3 4275   2.069   7.483  11.060  0.0814 -0.0047 -0.0284
  268loPI   PO4 4276   2.109   7.151  10.532 -0.0437 -0.3495  0.0941
  268loPI   GL1 4277   2.149   7.069  10.160 -0.1406 -0.0637 -0.2776
  268loPI   GL2 4278   2.468   7.014  10.151 -0.0329 -0.2843 -0.0126
  268loPI   C1A 4279   2.208   7.094   9.725 -0.0133 -0.1170 -0.0245
  268loPI   C2A 4280   2.114   7.133   9.310 -0.1291 -0.0196 -0.0495
  268loPI   C3A 4281   2.168   7.064   8.764  0.1035 -0.2807  0.0918
  268loPI   C4A 4282   2.191   7.091   8.355  0.3492  0.1097  0.0047
  268loPI   C5A 4283   2.039   7.075   7.924  0.0280 -0.0862 -0.2666
  268loPI   C6A 4284   1.898   7.027   7.548 -0.0581  0.0155  0.2001
  268loPI   C1B 4285   2.658   7.012   9.806 -0.1927 -0.0853 -0.2386
  268loPI   C2B 4286   2.625   7.114   9.397  0.3238  0.1137  0.0242
  268loPI   C3B 4287   2.612   7.023   9.021  0.0440  0.1436 -0.2596
  268loPI   C4B 4288   2.656   7.066   8.537 -0.0810 -0.0678 -0.0170
  269loPI    C1 4289   7.825  12.904  11.104 -0.0324  0.1814 -0.0618
  269loPI    C2 4290   8.078  12.600  11.042 -0.1780  0.0583 -0.0559
  269loPI    C3 4291   7.964  12.693  11.414  0.0701  0.2877 -0.0343
  269loPI   PO4 4292   7.870  13.054  10.910 -0.1691 -0.2287  0.2711
  269loPI   GL1 4293   7.747  13.148  10.468  0.0112 -0.2274 -0.0741
  269loPI   GL2 4294   8.099  13.120  10.233  0.1565 -0.2238  0.1465
  269loPI   C1A 4295   7.617  13.235  10.095  0.0981  0.1387 -0.1287
  269loPI   C2A 4296   7.655  13.217   9.775  0.2034  0.1429  0.2724
  269loPI   C3A 4297   7.516  13.261   9.420  0.1435  0.2165  0.0586
  269loPI   C4A 4298   7.583  13.220   9.017 -0.3256  0.0975  0.1398
  269loPI   C5A 4299   7.704  13.079   8.616 -0.0553 -0.0274 -0.1946
  269loPI   C6A 4300   7.578  13.066   8.253 -0.0394 -0.1372  0.1018
  269loPI   C1B 4301   8.132  13.011   9.786  0.0414  0.1449  0.1001
  269loPI   C2B 4302   7.998  13.074   9.383  0.0060  0.0820 -0.1264
  269loPI   C3B 4303   8.102  13.045   9.001 -0.2663  0.2121 -0.0079
  269loPI   C4B 4304   8.201  13.040   8.571 -0.0641  0.0863 -0.0986
  270loPI    C1 4305  16.492   3.330  10.231 -0.2860  0.1064 -0.1042
  270loPI    C2 4306  16.498   3.080  10.542  0.0542  0.0525 -0.1501
  270loPI    C3 4307  16.157   3.143  10.343 -0.0696 -0.2518 -0.0408
  270loPI   PO4 4308  16.597   3.204  10.067 -0.1137  0.1596  0.1394
  270loPI   GL1 4309  16.644   3.039   9.688 -0.2240  0.0405  0.2601
  270loPI   GL2 4310  16.938   2.904   9.729  0.0787 -0.0710 -0.2093
  270loPI   C1A 4311  16.391   2.881   9.394 -0.2863 -0.0526  0.1092
  270loPI   C2A 4312  16.293   2.883   8.973  0.0210  0.0576  0.0001
  270loPI   C3A 4313  16.229   2.919   8.474 -0.0824  0.0100 -0.4603
  270loPI   C4A 4314  16.363   2.852   8.054  0.2638  0.0786  0.3229
  270loPI   C5A 4315  16.773   2.946   7.922  0.0984  0.0194  0.0485
  270loPI   C6A 4316  16.993   3.191   7.610 -0.0477 -0.0981  0.2738
  270loPI   C1B 4317  16.940   2.868   9.315 -0.0255  0.0722  0.1460
  270loPI   C2B 4318  16.798   2.760   8.907  0.0408 -0.1686 -0.0152
  270loPI   C3B 4319  16.699   2.690   8.366 -0.4226 -0.0435  0.1215
  270loPI   C4B 4320  16.709   2.414   8.013 -0.0102 -0.0557 -0.1708
  271loPI    C1 4321   9.703  13.851  11.154 -0.0593 -0.1177 -0.0642
  271loPI    C2 4322   9.901  13.694  11.464 -0.2076  0.2622  0.2308
  271loPI    C3 4323  10.015  14.046  11.311  0.0858 -0.0845 -0.3855
  271loPI   PO4 4324   9.753  13.702  10.894  0.1441  0.1201  0.1284
  271loPI   GL1 4325   9.875  13.869  10.476  0.1328  0.0735 -0.3440
  271loPI   GL2 4326  10.044  13.836  10.394  0.2742  0.0024  0.0543
  271loPI   C1A 4327   9.875  14.213  10.128 -0.0307  0.1656  0.3503
  271loPI   C2A 4328   9.862  14.303   9.778  0.1209  0.3136  0.2047
  271loPI   C3A 4329   9.744  14.307   9.319 -0.0386 -0.3028  0.1284
  271loPI   C4A 4330   9.789  14.293   8.848 -0.1276  0.2880  0.1167
  271loPI   C5A 4331   9.853  14.314   8.382  0.0056  0.0742  0.0386
  271loPI   C6A 4332   9.545  14.497   8.025  0.0031 -0.1826 -0.0475
  271loPI   C1B 4333   9.937  13.750   9.944 -0.1370  0.0915  0.3458
  271loPI   C2B 4334   9.784  13.799   9.474 -0.1799  0.1326  0.0833
  271loPI   C3B 4335   9.867  13.811   9.003  0.2880 -0.5072 -0.0944
  271loPI   C4B 4336   9.881  13.747   8.637  0.1627  0.3342 -0.1643
  272loPI    C1 4337  17.319   5.925  10.683 -0.1009  0.2131  0.1150
  272loPI    C2 4338  17.666   6.111  10.754  0.0934 -0.0198 -0.1947
  272loPI    C3 4339  17.643   5.713  10.783 -0.1115 -0.0184 -0.3173
  272loPI   PO4 4340  17.236   6.115  10.549 -0.0346 -0.0043  0.1731
  272loPI   GL1 4341  17.253   6.088  10.085  0.2476 -0.0041  0.0907
  272loPI   GL2 4342  17.209   5.742  10.007 -0.1450  0.0566 -0.1260
  272loPI   C1A 4343  17.444   6.271   9.748  0.2361  0.0007  0.0035
  272loPI   C2A 4344  17.346   6.207   9.298  0.0242 -0.0704  0.1579
  272loPI   C3A 4345  17.293   6.234   8.921  0.1720 -0.0427  0.0168
  272loPI   C4A 4346  17.288   6.181   8.515 -0.1701  0.0556 -0.1273
  272loPI   C5A 4347  17.438   6.261   8.175 -0.4203  0.1037 -0.0303
  272loPI   C6A 4348  17.369   6.362   7.715 -0.0606  0.1252 -0.0874
  272loPI   C1B 4349  17.093   5.959   9.649 -0.2178  0.0653  0.2902
  272loPI   C2B 4350  17.008   5.857   9.285  0.0933  0.0248  0.2722
  272loPI   C3B 4351  16.978   5.803   8.942 -0.2201 -0.0550 -0.1232
  272loPI   C4B 4352  16.997   5.735   8.567  0.0964  0.2660  0.0165
  273loPI    C1 4353   4.699   0.144  10.488  0.1586  0.0143  0.1085
  273loPI    C2 4354   5.045   0.235  10.667  0.1368 -0.2024  0.2646
  273loPI    C3 4355   4.701   0.276  10.866  0.0475  0.2405  0.0319
  273loPI   PO4 4356   4.707   0.368  10.313 -0.3038 -0.1711 -0.2321
  273loPI   GL1 4357   5.002   0.501   9.926 -0.0524  0.1819 -0.0572
  273loPI   GL2 4358   5.120   0.764   9.881  0.0143 -0.0444 -0.0025
  273loPI   C1A 4359   5.137   0.372   9.478 -0.3279  0.0264  0.1120
  273loPI   C2A 4360   5.095   0.333   8.965 -0.2632 -0.1481 -0.2982
  273loPI   C3A 4361   5.187   0.206   8.531  0.0649 -0.0463  0.2390
  273loPI   C4A 4362   5.168   0.310   8.122  0.2046 -0.0541  0.4283
  273loPI   C5A 4363   4.985   0.175   7.790  0.0046  0.0169  0.0057
  273loPI   C6A 4364   4.995   0.077   7.417 -0.2071 -0.2268  0.0151
  273loPI   C1B 4365   5.043   0.881   9.437  0.2242  0.2143 -0.0478
  273loPI   C2B 4366   5.027   0.825   8.905 -0.0583  0.0976 -0.3250
  273loPI   C3B 4367   5.024   0.731   8.504 -0.0220  0.0187 -0.0426
  273loPI   C4B 4368   4.878   0.793   8.035  0.1914  0.0737 -0.0201
  274loPI    C1 4369  13.668  16.131  10.984  0.1215 -0.0904  0.0056
  274loPI    C2 4370  14.045  16.261  11.015  0.0367  0.0910  0.3130
  274loPI    C3 4371  13.850  16.131  11.340 -0.1174 -0.1433  0.1302
  274loPI   PO4 4372  13.553  16.270  10.814 -0.0139 -0.0708 -0.1308
  274loPI   GL1 4373  13.601  16.527  10.434 -0.1266 -0.2392 -0.1581
  274loPI   GL2 4374  13.944  16.403  10.487  0.0033  0.1663  0.1487
  274loPI   C1A 4375  13.635  16.505   9.968  0.0143  0.4996  0.2671
  274loPI   C2A 4376  13.575  16.574   9.536 -0.0965 -0.0411  0.3376
  274loPI   C3A 4377  13.605  16.544   9.178 -0.4247  0.0844  0.1855
  274loPI   C4A 4378  13.728  16.495   8.704 -0.1950 -0.0199 -0.0502
  274loPI   C5A 4379  14.108  16.480   8.491 -0.0182 -0.3538 -0.0531
  274loPI   C6A 4380  14.134  16.290   8.144  0.1898 -0.2438 -0.0812
  274loPI   C1B 4381  14.090  16.274  10.131 -0.0423 -0.0630  0.1223
  274loPI   C2B 4382  14.114  16.390   9.696  0.0705  0.2234  0.0051
  274loPI   C3B 4383  14.161  16.307   9.318  0.1446  0.0175 -0.2732
  274loPI   C4B 4384  14.197  16.269   8.935 -0.3160  0.2233 -0.0528
  275loPI    C1 4385   8.666   8.087  11.121 -0.0663  0.0262  0.0519
  275loPI    C2 4386   8.783   8.454  11.228  0.1820 -0.0114 -0.0834
  275loPI    C3 4387   8.746   8.168  11.505 -0.0762  0.1305  0.0321
  275loPI   PO4 4388   8.572   8.118  10.875 -0.0260  0.1348  0.1063
  275loPI   GL1 4389   8.620   8.103  10.464  0.0315 -0.0306  0.0083
  275loPI   GL2 4390   8.281   7.978  10.476  0.0064  0.0291  0.0611
  275loPI   C1A 4391   8.586   8.448  10.262 -0.2097  0.1527 -0.4043
  275loPI   C2A 4392   8.772   8.432   9.836  0.0520 -0.1542 -0.4705
  275loPI   C3A 4393   8.823   8.519   9.364 -0.2361  0.2711 -0.1298
  275loPI   C4A 4394   8.766   8.523   8.889  0.0823  0.1267  0.0855
  275loPI   C5A 4395   8.624   8.692   8.414 -0.0862 -0.2108 -0.3482
  275loPI   C6A 4396   8.291   8.648   8.216 -0.0251  0.3935 -0.1030
  275loPI   C1B 4397   8.321   8.037  10.076 -0.0244 -0.2386  0.1427
  275loPI   C2B 4398   8.466   8.044   9.700 -0.1161 -0.3993 -0.2746
  275loPI   C3B 4399   8.580   8.089   9.292 -0.0973  0.1694 -0.0881
  275loPI   C4B 4400   8.553   8.076   8.874 -0.1316  0.1881 -0.1152
  276loPI    C1 4401  12.369   7.542  10.976 -0.0987 -0.2048  0.2633
  276loPI    C2 4402  12.140   7.218  10.926 -0.2951 -0.0416  0.0870
  276loPI    C3 4403  12.402   7.233  11.228 -0.1562 -0.4364 -0.0077
  276loPI   PO4 4404  12.399   7.599  10.730 -0.0446  0.0237  0.4384
  276loPI   GL1 4405  12.543   7.595  10.263  0.1832 -0.0036 -0.1112
  276loPI   GL2 4406  12.712   7.339  10.164  0.0901  0.1057 -0.2299
  276loPI   C1A 4407  12.482   7.602   9.788 -0.1376  0.2238  0.1491
  276loPI   C2A 4408  12.372   7.641   9.362 -0.1149  0.3185 -0.0907
  276loPI   C3A 4409  12.327   7.642   8.843 -0.0824 -0.0286  0.1156
  276loPI   C4A 4410  12.342   7.701   8.441 -0.4611 -0.2280  0.2144
  276loPI   C5A 4411  12.469   7.433   8.126  0.3725  0.0804  0.4083
  276loPI   C6A 4412  12.873   7.330   8.055  0.1808  0.0508 -0.4025
  276loPI   C1B 4413  12.635   7.069   9.814 -0.1514  0.2515 -0.0666
  276loPI   C2B 4414  12.695   7.187   9.441 -0.1020  0.0509  0.0767
  276loPI   C3B 4415  12.621   7.190   9.052 -0.1028  0.1412  0.1098
  276loPI   C4B 4416  12.675   7.303   8.656  0.0723 -0.2597  0.0394
  277loPI    C1 4417  17.747   8.432  10.947 -0.0718  0.3143 -0.1063
  277loPI    C2 4418  17.557   8.333  11.285  0.0412 -0.1029 -0.1588
  277loPI    C3 4419  17.929   8.480  11.300  0.0016 -0.0081 -0.0970
  277loPI   PO4 4420  17.494   8.295  10.756 -0.1523 -0.0685  0.1909
  277loPI   GL1 4421  17.382   8.451  10.372  0.2107  0.0995 -0.5160
  277loPI   GL2 4422  17.058   8.432  10.264 -0.0401  0.0386 -0.1589
  277loPI   C1A 4423  17.589   8.562  10.013 -0.1792 -0.0089 -0.1137
  277loPI   C2A 4424  17.547   8.469   9.535  0.0756  0.0981  0.1373
  277loPI   C3A 4425  17.503   8.441   9.156  0.1090 -0.0410  0.0181
  277loPI   C4A 4426  17.639   8.504   8.773  0.0992  0.0556  0.0147
  277loPI   C5A 4427  17.632   8.576   8.379  0.0787  0.0426 -0.0535
  277loPI   C6A 4428  17.408   8.935   8.172 -0.2135  0.1113 -0.1287
  277loPI   C1B 4429  17.116   8.498   9.862  0.0234 -0.0486 -0.3609
  277loPI   C2B 4430  17.021   8.402   9.375  0.1472 -0.1783 -0.3321
  277loPI   C3B 4431  17.084   8.546   8.938  0.2929 -0.0687 -0.1725
  277loPI   C4B 4432  17.143   8.608   8.529  0.1776  0.0893 -0.2432
  278loPI    C1 4433   9.879  15.033  10.993  0.0567  0.1602 -0.1035
  278loPI    C2 4434  10.170  14.998  11.265 -0.0237  0.2094 -0.0105
  278loPI    C3 4435   9.913  15.304  11.285 -0.2994 -0.0248  0.1173
  278loPI   PO4 4436   9.985  14.938  10.783  0.0078 -0.1726 -0.0725
  278loPI   GL1 4437   9.796  14.971  10.388  0.1513  0.0483 -0.0060
  278loPI   GL2 4438   9.638  15.274  10.171 -0.0715 -0.0213  0.0800
  278loPI   C1A 4439   9.751  14.731   9.971 -0.1337  0.1646  0.1011
  278loPI   C2A 4440   9.783  14.792   9.543 -0.0314  0.0797 -0.0412
  278loPI   C3A 4441   9.841  14.796   9.152 -0.1623  0.0911  0.0824
  278loPI   C4A 4442   9.643  14.781   8.793  0.2589 -0.1771 -0.1053
  278loPI   C5A 4443   9.841  14.842   8.417  0.1070  0.1024  0.1243
  278loPI   C6A 4444  10.115  14.659   8.043  0.0145  0.0281 -0.0090
  278loPI   C1B 4445   9.831  15.305   9.769 -0.0954  0.1298 -0.2603
  278loPI   C2B 4446   9.651  15.248   9.420 -0.0381 -0.0265  0.0271
  278loPI   C3B 4447   9.674  15.211   8.967  0.1351 -0.5041  0.0624
  278loPI   C4B 4448   9.701  15.386   8.493 -0.1016 -0.2046  0.0007
  279loPI    C1 4449   9.213   0.839  10.562 -0.1895 -0.2402  0.0011
  279loPI    C2 4450   9.329   0.983  10.917 -0.1063 -0.1015 -0.0811
  279loPI    C3 4451   9.290   0.588  10.864 -0.2134 -0.1180  0.1098
  279loPI   PO4 4452   9.368   1.039  10.325 -0.1497 -0.1623  0.0896
  279loPI   GL1 4453   9.255   1.133   9.903  0.0787  0.1196 -0.0009
  279loPI   GL2 4454   9.150   0.838   9.817  0.1443  0.0387 -0.1460
  279loPI   C1A 4455   9.179   1.125   9.407  0.2717  0.0320 -0.0927
  279loPI   C2A 4456   9.094   1.268   9.071 -0.2828  0.0676  0.3483
  279loPI   C3A 4457   9.242   1.183   8.694  0.3086 -0.1993  0.2655
  279loPI   C4A 4458   9.314   1.127   8.268  0.2932  0.0716 -0.0288
  279loPI   C5A 4459   9.354   1.193   7.814  0.2390 -0.1111 -0.0114
  279loPI   C6A 4460   9.755   1.183   7.751  0.1368  0.5594  0.2014
  279loPI   C1B 4461   9.243   0.605   9.386  0.1735 -0.3319 -0.2531
  279loPI   C2B 4462   9.195   0.685   8.875 -0.3060  0.1379 -0.0073
  279loPI   C3B 4463   9.264   0.638   8.455  0.0228  0.2921 -0.2082
  279loPI   C4B 4464   9.209   0.752   8.015  0.1041 -0.2046 -0.1241
  280loPI    C1 4465  13.337   7.381  10.725 -0.1121 -0.2562 -0.1891
  280loPI    C2 4466  13.483   7.468  11.087  0.3486 -0.0776 -0.4097
  280loPI    C3 4467  13.263   7.138  11.035 -0.3332  0.2574  0.1743
  280loPI   PO4 4468  13.590   7.431  10.584 -0.1217  0.1414 -0.1064
  280loPI   GL1 4469  13.707   7.586  10.259 -0.1348  0.0839  0.4262
  280loPI   GL2 4470  13.896   7.923  10.221 -0.0458 -0.0333  0.2080
  280loPI   C1A 4471  13.526   7.639   9.943  0.1920 -0.2242  0.1919
  280loPI   C2A 4472  13.408   7.629   9.568  0.5993  0.1317 -0.1435
  280loPI   C3A 4473  13.389   7.545   9.175  0.0148 -0.0631  0.3206
  280loPI   C4A 4474  13.425   7.661   8.750 -0.3475  0.0779 -0.1476
  280loPI   C5A 4475  13.432   7.678   8.299 -0.1140  0.1583  0.1831
  280loPI   C6A 4476  13.067   7.843   7.909 -0.1707  0.1459  0.0150
  280loPI   C1B 4477  13.680   8.090   9.840  0.2838 -0.3136 -0.1086
  280loPI   C2B 4478  13.607   8.084   9.412  0.2952  0.2827 -0.0991
  280loPI   C3B 4479  13.593   8.094   9.038  0.1296 -0.2636  0.4261
  280loPI   C4B 4480  13.785   8.072   8.804 -0.2233 -0.1952 -0.0270
  281loPI    C1 4481  16.547   1.706  10.650  0.2361  0.0053  0.3365
  281loPI    C2 4482  16.296   1.982  10.795  0.0657 -0.1328  0.3067
  281loPI    C3 4483  16.568   1.814  11.035  0.1794  0.0697  0.3218
  281loPI   PO4 4484  16.523   1.531  10.485  0.0980 -0.0147  0.1899
  281loPI   GL1 4485  16.485   1.456  10.040  0.1416  0.1302  0.0737
  281loPI   GL2 4486  16.785   1.335   9.978 -0.1716 -0.1868 -0.0071
  281loPI   C1A 4487  16.504   1.468   9.630  0.3096 -0.0609  0.1085
  281loPI   C2A 4488  16.383   1.411   9.213  0.0541 -0.2149 -0.2638
  281loPI   C3A 4489  16.456   1.367   8.732 -0.2856  0.0558 -0.0973
  281loPI   C4A 4490  16.335   1.354   8.277 -0.3204 -0.0833 -0.2956
  281loPI   C5A 4491  16.474   1.384   7.851  0.1650  0.1848 -0.2227
  281loPI   C6A 4492  16.403   1.699   7.642  0.1500  0.2591  0.0783
  281loPI   C1B 4493  16.988   1.172   9.705 -0.1632  0.1975  0.2406
  281loPI   C2B 4494  16.984   1.185   9.258 -0.1040 -0.4282 -0.0086
  281loPI   C3B 4495  16.974   1.152   8.847 -0.0759  0.1280 -0.0526
  281loPI   C4B 4496  16.944   1.208   8.510 -0.1091 -0.0479 -0.0966
  282loPI    C1 4497   4.386  16.586  10.453 -0.1477  0.1977 -0.3646
  282loPI    C2 4498   4.059  16.808  10.519 -0.0504  0.1937  0.1777
  282loPI    C3 4499   4.114  16.467  10.721  0.1129  0.0000 -0.1832
  282loPI   PO4 4500   4.382  16.598  10.232  0.0426 -0.2150  0.0975
  282loPI   GL1 4501   4.256  16.422   9.901 -0.0427  0.2769 -0.3266
  282loPI   GL2 4502   4.078  16.242   9.841 -0.0876 -0.0994 -0.3155
  282loPI   C1A 4503   4.411  16.587   9.479  0.1544 -0.1566 -0.0737
  282loPI   C2A 4504   4.491  16.556   9.035  0.1094  0.1471  0.1417
  282loPI   C3A 4505   4.441  16.382   8.578 -0.0314 -0.2656  0.1778
  282loPI   C4A 4506   4.580  16.457   8.192  0.1049  0.0145  0.1553
  282loPI   C5A 4507   4.410  16.543   7.821 -0.3462  0.2931 -0.3346
  282loPI   C6A 4508   4.088  16.333   7.701  0.0748 -0.1251 -0.0088
  282loPI   C1B 4509   4.039  16.210   9.362  0.0195  0.2393 -0.0426
  282loPI   C2B 4510   4.034  16.153   8.941  0.2507  0.1143 -0.0111
  282loPI   C3B 4511   3.984  16.076   8.518  0.0681 -0.0856  0.0620
  282loPI   C4B 4512   4.078  16.396   8.204 -0.0377  0.0107 -0.1312
  283loPI    C1 4513  10.566   4.247  10.500 -0.1628 -0.0582 -0.1866
  283loPI    C2 4514  10.520   3.942  10.754 -0.1146  0.0687 -0.0242
  283loPI    C3 4515  10.253   4.240  10.749 -0.0152  0.1592  0.0089
  283loPI   PO4 4516  10.586   4.121  10.298 -0.0764 -0.0584 -0.0358
  283loPI   GL1 4517  10.315   4.083   9.984 -0.0361 -0.3330  0.0899
  283loPI   GL2 4518  10.171   4.349   9.804 -0.2262 -0.0527  0.2130
  283loPI   C1A 4519  10.369   3.991   9.553  0.2287  0.4006 -0.3854
  283loPI   C2A 4520  10.376   4.051   9.152  0.1690 -0.0043 -0.0956
  283loPI   C3A 4521  10.352   3.967   8.764  0.1166  0.0402  0.1564
  283loPI   C4A 4522  10.260   3.962   8.334 -0.0012 -0.0517  0.0624
  283loPI   C5A 4523  10.201   4.009   7.880 -0.1079 -0.3630  0.0977
  283loPI   C6A 4524  10.231   4.391   7.781 -0.3914  0.1275  0.2277
  283loPI   C1B 4525  10.125   4.441   9.448 -0.3269 -0.0929 -0.1891
  283loPI   C2B 4526  10.045   4.459   9.041 -0.1304  0.0774 -0.4063
  283loPI   C3B 4527  10.060   4.424   8.634  0.0435  0.0298  0.0576
  283loPI   C4B 4528   9.999   4.473   8.215 -0.0556  0.1660  0.1559
  284loPI    C1 4529   0.778  10.357  10.665 -0.1817 -0.0464  0.1589
  284loPI    C2 4530   1.173  10.327  10.718 -0.1539  0.0270 -0.0010
  284loPI    C3 4531   0.938  10.435  11.023 -0.0415  0.0657  0.0725
  284loPI   PO4 4532   0.738  10.512  10.420 -0.1873 -0.1847 -0.0807
  284loPI   GL1 4533   0.694  10.492   9.985 -0.1496  0.1894 -0.1360
  284loPI   GL2 4534   0.920  10.660   9.823 -0.2859 -0.1476 -0.2344
  284loPI   C1A 4535   0.817  10.220   9.627  0.3381 -0.2360 -0.2741
  284loPI   C2A 4536   0.934  10.228   9.187  0.0006  0.1183 -0.5227
  284loPI   C3A 4537   0.989  10.367   8.701 -0.1456  0.0701  0.0275
  284loPI   C4A 4538   0.769  10.198   8.306  0.0417 -0.0052  0.2074
  284loPI   C5A 4539   0.357  10.224   8.091 -0.0798  0.0413 -0.0377
  284loPI   C6A 4540   0.040  10.003   7.855  0.1759 -0.1891 -0.2416
  284loPI   C1B 4541   0.789  10.697   9.451 -0.1389  0.0665  0.0071
  284loPI   C2B 4542   0.705  10.702   9.034  0.0865 -0.1044 -0.0672
  284loPI   C3B 4543   0.737  10.750   8.522 -0.0905  0.0006 -0.0364
  284loPI   C4B 4544   0.734  10.634   8.146 -0.1215 -0.0787  0.2996
  285loPI    C1 4545  15.004   0.639  10.810 -0.0640  0.1765  0.1691
  285loPI    C2 4546  15.226   0.331  10.934 -0.0770  0.1483  0.1227
  285loPI    C3 4547  15.142   0.630  11.185 -0.3495 -0.0499  0.2728
  285loPI   PO4 4548  15.122   0.730  10.611  0.0850  0.0820 -0.2787
  285loPI   GL1 4549  15.026   0.714  10.179 -0.0186  0.1823 -0.0403
  285loPI   GL2 4550  15.212   0.967  10.058 -0.2659 -0.1137  0.2780
  285loPI   C1A 4551  15.001   0.318   9.948  0.4416 -0.0001 -0.1863
  285loPI   C2A 4552  14.793   0.146   9.571 -0.1540  0.0867 -0.0740
  285loPI   C3A 4553  14.817   0.187   9.107  0.1966  0.0937  0.2941
  285loPI   C4A 4554  14.839   0.190   8.655 -0.0362 -0.2075 -0.1352
  285loPI   C5A 4555  14.522   0.219   8.320  0.2831 -0.0124  0.3207
  285loPI   C6A 4556  14.224   0.462   8.191  0.1132  0.1411  0.0204
  285loPI   C1B 4557  15.167   0.919   9.622 -0.0176  0.2097 -0.0481
  285loPI   C2B 4558  15.174   0.967   9.239  0.0152 -0.0170 -0.3724
  285loPI   C3B 4559  15.072   1.045   8.791  0.0104 -0.1704  0.0163
  285loPI   C4B 4560  15.100   1.033   8.467 -0.0379  0.0479  0.1424
  286loPI    C1 4561   0.751  11.022  10.375  0.0993 -0.0355 -0.2440
  286loPI    C2 4562   0.514  11.096  10.061 -0.0691 -0.0696 -0.1269
  286loPI    C3 4563   0.423  11.247  10.420  0.0256 -0.1767 -0.0571
  286loPI   PO4 4564   1.041  11.085  10.204  0.0472 -0.1667 -0.2131
  286loPI   GL1 4565   1.191  11.065   9.861  0.0497  0.3512  0.1728
  286loPI   GL2 4566   1.230  11.377   9.811 -0.1684 -0.1851 -0.1688
  286loPI   C1A 4567   1.187  11.014   9.428  0.0742 -0.0187  0.0285
  286loPI   C2A 4568   1.244  10.914   8.957 -0.2848 -0.1325  0.0828
  286loPI   C3A 4569   1.346  10.944   8.612 -0.0893  0.0761  0.1199
  286loPI   C4A 4570   1.185  10.674   8.341  0.1639 -0.0285  0.0352
  286loPI   C5A 4571   1.233  10.404   7.940 -0.0414 -0.1468  0.0388
  286loPI   C6A 4572   0.843  10.207   7.817 -0.2091 -0.0397  0.0915
  286loPI   C1B 4573   1.056  11.495   9.341 -0.2303  0.4445  0.1074
  286loPI   C2B 4574   1.108  11.536   8.947  0.2732 -0.0691  0.0329
  286loPI   C3B 4575   1.022  11.404   8.528  0.1010 -0.1340 -0.1114
  286loPI   C4B 4576   1.031  11.099   8.102  0.1264 -0.0002  0.1562
  287loPI    C1 4577   1.707   4.487  10.119 -0.2587  0.0391 -0.1370
  287loPI    C2 4578   1.663   4.849  10.283 -0.0529  0.0227 -0.0422
  287loPI    C3 4579   1.619   4.521  10.508  0.1311 -0.0022 -0.0410
  287loPI   PO4 4580   1.977   4.403  10.031  0.0100 -0.2255  0.0593
  287loPI   GL1 4581   2.150   4.423   9.662 -0.0005 -0.1373 -0.2083
  287loPI   GL2 4582   2.494   4.466   9.724 -0.0584 -0.1620 -0.1764
  287loPI   C1A 4583   2.069   4.476   9.212  0.0212  0.2069 -0.0481
  287loPI   C2A 4584   2.086   4.394   8.785 -0.1621 -0.4130 -0.1704
  287loPI   C3A 4585   2.165   4.407   8.321  0.2259  0.1860 -0.0457
  287loPI   C4A 4586   1.905   4.271   7.978  0.0115 -0.1499 -0.0102
  287loPI   C5A 4587   1.561   4.164   7.701 -0.0872  0.2920 -0.1462
  287loPI   C6A 4588   1.567   4.144   7.261 -0.0186 -0.0188  0.0824
  287loPI   C1B 4589   2.438   4.775   9.444 -0.3682 -0.1710 -0.0218
  287loPI   C2B 4590   2.339   4.850   8.996  0.1616 -0.2053 -0.3455
  287loPI   C3B 4591   2.341   4.862   8.580  0.0811  0.0790  0.0955
  287loPI   C4B 4592   2.453   4.847   8.173 -0.4005  0.0997  0.1747
  288loPI    C1 4593  10.881   6.340  10.681 -0.3731  0.3456 -0.0028
  288loPI    C2 4594  10.527   6.188  10.792 -0.2199 -0.1162 -0.1208
  288loPI    C3 4595  10.849   6.137  11.025 -0.1598  0.0115 -0.1747
  288loPI   PO4 4596  10.883   6.246  10.404 -0.0512  0.3968  0.3988
  288loPI   GL1 4597  10.704   6.374  10.069 -0.0011  0.0856 -0.0214
  288loPI   GL2 4598  10.774   6.609  10.031  0.2284  0.0264  0.0507
  288loPI   C1A 4599  10.525   6.281   9.721  0.0224  0.5605  0.0390
  288loPI   C2A 4600  10.656   6.284   9.239 -0.0705 -0.0104 -0.1697
  288loPI   C3A 4601  10.493   6.272   8.838  0.1981 -0.2003  0.1632
  288loPI   C4A 4602  10.499   6.310   8.385  0.0819  0.0212  0.3032
  288loPI   C5A 4603  10.589   6.492   8.036  0.1472 -0.1001 -0.0013
  288loPI   C6A 4604  10.869   6.809   7.930 -0.3121 -0.3576 -0.1097
  288loPI   C1B 4605  10.833   6.763   9.671  0.0516 -0.0762  0.1897
  288loPI   C2B 4606  10.845   6.755   9.248  0.0086 -0.5927  0.0474
  288loPI   C3B 4607  10.809   6.682   8.842 -0.0904  0.0302 -0.3006
  288loPI   C4B 4608  10.796   6.757   8.411  0.2890  0.3711 -0.1974
  289loPI    C1 4609   6.414   0.438  10.330  0.1256  0.1099 -0.0728
  289loPI    C2 4610   6.283   0.749  10.545  0.3881  0.3186 -0.2089
  289loPI    C3 4611   6.284   0.382  10.705 -0.2757  0.3193 -0.1747
  289loPI   PO4 4612   6.549   0.535  10.172  0.2353 -0.1560 -0.0235
  289loPI   GL1 4613   6.449   0.559   9.753  0.1838  0.0945  0.3353
  289loPI   GL2 4614   6.811   0.377   9.761  0.0619 -0.0696 -0.0010
  289loPI   C1A 4615   6.321   0.555   9.190 -0.0094  0.3306 -0.1118
  289loPI   C2A 4616   6.079   0.409   8.897 -0.2226  0.0974 -0.1529
  289loPI   C3A 4617   5.929   0.404   8.489 -0.2018  0.1398  0.0322
  289loPI   C4A 4618   6.018   0.570   8.162  0.0675 -0.0497  0.4067
  289loPI   C5A 4619   6.458   0.585   7.881  0.1513 -0.1600  0.1487
  289loPI   C6A 4620   6.712   0.777   7.528 -0.0767  0.2540 -0.0728
  289loPI   C1B 4621   6.605   0.191   9.470  0.0250 -0.0182  0.0756
  289loPI   C2B 4622   6.541   0.091   9.082 -0.0462 -0.3278 -0.0888
  289loPI   C3B 4623   6.506   0.189   8.770  0.2735  0.2137  0.0555
  289loPI   C4B 4624   6.433   0.299   8.375 -0.2505  0.0896 -0.2905
  290loPI    C1 4625   2.917  17.828  10.381  0.0007 -0.3493  0.2070
  290loPI    C2 4626   3.151  18.055  10.614  0.0204 -0.0668 -0.0811
  290loPI    C3 4627   2.871  17.821  10.779  0.0598  0.0982  0.2270
  290loPI   PO4 4628   3.107  17.732  10.222 -0.0972  0.0360 -0.1137
  290loPI   GL1 4629   3.065  17.578   9.868 -0.0386 -0.0341  0.0915
  290loPI   GL2 4630   3.012  17.219   9.871  0.0314 -0.1156 -0.0510
  290loPI   C1A 4631   3.015  17.593   9.379 -0.1230 -0.5051 -0.1793
  290loPI   C2A 4632   3.016  17.633   8.924 -0.0615  0.0151  0.0771
  290loPI   C3A 4633   2.966  17.527   8.585  0.4051 -0.1427  0.0148
  290loPI   C4A 4634   2.992  17.577   8.171  0.2413 -0.3378  0.2687
  290loPI   C5A 4635   2.895  17.600   7.710 -0.3197  0.2786  0.2353
  290loPI   C6A 4636   2.535  17.541   7.422  0.2713  0.1782  0.2229
  290loPI   C1B 4637   2.992  17.077   9.453 -0.0491  0.0353 -0.2651
  290loPI   C2B 4638   3.092  17.158   9.018 -0.4483  0.0452 -0.1527
  290loPI   C3B 4639   2.971  17.027   8.637  0.2450  0.2091  0.0723
  290loPI   C4B 4640   2.961  17.079   8.162 -0.2400 -0.1439 -0.2173
  291loPI    C1 4641   5.451   7.666  11.170 -0.0708  0.1372 -0.1036
  291loPI    C2 4642   5.807   7.807  11.056  0.0853 -0.0498  0.1395
  291loPI    C3 4643   5.663   7.897  11.418 -0.0459 -0.0997  0.1005
  291loPI   PO4 4644   5.353   7.635  10.846 -0.1709 -0.0009 -0.2031
  291loPI   GL1 4645   5.635   7.640  10.567 -0.1849  0.0896  0.2456
  291loPI   GL2 4646   5.829   7.438  10.447 -0.1942  0.2214 -0.0318
  291loPI   C1A 4647   5.628   7.896  10.202 -0.0253 -0.2554 -0.0135
  291loPI   C2A 4648   5.754   8.051   9.797  0.1955  0.1161 -0.1048
  291loPI   C3A 4649   5.749   7.956   9.389  0.2234 -0.3187  0.1140
  291loPI   C4A 4650   5.894   7.964   8.884 -0.2157  0.0256  0.1662
  291loPI   C5A 4651   5.859   8.024   8.384 -0.0215 -0.4553  0.2833
  291loPI   C6A 4652   5.995   7.817   8.042  0.1688  0.0144 -0.0470
  291loPI   C1B 4653   5.936   7.523  10.098 -0.1031 -0.0503 -0.1020
  291loPI   C2B 4654   5.974   7.611   9.721 -0.1866  0.2037  0.1064
  291loPI   C3B 4655   6.168   7.516   9.313 -0.3035 -0.0264  0.2376
  291loPI   C4B 4656   6.150   7.455   8.837  0.1174  0.0988  0.2521
  292loPI    C1 4657  10.228   0.571  10.795  0.1165 -0.4143  0.0820
  292loPI    C2 4658  10.505   0.613  11.080  0.0034 -0.0434  0.1427
  292loPI    C3 4659  10.122   0.560  11.181 -0.0114 -0.0977  0.0585
  292loPI   PO4 4660  10.362   0.423  10.603 -0.2915  0.1805 -0.0409
  292loPI   GL1 4661  10.276   0.361  10.124 -0.0270  0.0986 -0.1833
  292loPI   GL2 4662  10.248   0.582   9.872 -0.1198 -0.0801  0.0367
  292loPI   C1A 4663  10.536   0.147   9.805  0.0426  0.0159  0.3235
  292loPI   C2A 4664  10.589   0.034   9.390 -0.0789  0.0730 -0.4900
  292loPI   C3A 4665  10.651   0.121   8.921  0.1659 -0.1298 -0.1694
  292loPI   C4A 4666  10.771  -0.025   8.550  0.0284 -0.0431 -0.1012
  292loPI   C5A 4667  10.549  -0.084   8.179 -0.2836 -0.1087  0.0567
  292loPI   C6A 4668  10.395  -0.194   7.804 -0.1206  0.0988  0.0717
  292loPI   C1B 4669  10.133   0.751   9.409 -0.3232 -0.0165 -0.1450
  292loPI   C2B 4670  10.092   0.871   8.956  0.2730  0.1942 -0.1629
  292loPI   C3B 4671  10.307   0.776   8.618  0.1008  0.0365 -0.0950
  292loPI   C4B 4672  10.249   0.609   8.238  0.1796 -0.1601  0.0371
  293loPI    C1 4673   6.790  16.128  10.638 -0.3549 -0.2717  0.1170
  293loPI    C2 4674   6.575  16.317  10.917  0.0966  0.2745  0.1127
  293loPI    C3 4675   6.894  16.099  11.023  0.1782  0.3567  0.0382
  293loPI   PO4 4676   6.826  16.317  10.412 -0.1743 -0.2136 -0.0829
  293loPI   GL1 4677   6.978  16.339  10.042  0.0816 -0.2249  0.0816
  293loPI   GL2 4678   7.144  16.194   9.957  0.2807 -0.0918  0.0284
  293loPI   C1A 4679   6.773  16.432   9.675  0.2621 -0.1002 -0.2133
  293loPI   C2A 4680   6.802  16.556   9.299 -0.3156 -0.2457  0.2162
  293loPI   C3A 4681   6.855  16.546   8.859  0.0010 -0.0183  0.2225
  293loPI   C4A 4682   6.782  16.459   8.436  0.2557 -0.1557  0.0483
  293loPI   C5A 4683   6.778  16.320   8.009  0.0339 -0.0487  0.1231
  293loPI   C6A 4684   6.764  16.000   7.729 -0.0273 -0.1437 -0.0182
  293loPI   C1B 4685   6.868  15.946   9.653  0.0895 -0.0914  0.1271
  293loPI   C2B 4686   6.892  16.095   9.145 -0.1819  0.1856 -0.2981
  293loPI   C3B 4687   6.832  16.029   8.676 -0.0737 -0.1671  0.0263
  293loPI   C4B 4688   6.847  15.895   8.263 -0.1173  0.1825 -0.4718
  294loPI    C1 4689   8.289  14.005  11.005 -0.1102 -0.1320  0.0197
  294loPI    C2 4690   7.947  14.078  10.811  0.1356  0.0808 -0.3466
  294loPI    C3 4691   8.122  14.367  11.025  0.0031 -0.0771 -0.0179
  294loPI   PO4 4692   8.455  13.872  10.847 -0.1691  0.1644  0.2562
  294loPI   GL1 4693   8.420  13.886  10.390 -0.2191  0.0452  0.0472
  294loPI   GL2 4694   8.554  14.102  10.422  0.2292 -0.0126  0.1368
  294loPI   C1A 4695   8.565  13.805   9.962 -0.2201  0.2536  0.0941
  294loPI   C2A 4696   8.479  13.914   9.466 -0.0682 -0.0946  0.1742
  294loPI   C3A 4697   8.587  13.801   8.974  0.0976 -0.0252  0.0327
  294loPI   C4A 4698   8.438  13.909   8.609 -0.0470  0.1753  0.0812
  294loPI   C5A 4699   8.018  13.971   8.350 -0.1424  0.0241  0.3023
  294loPI   C6A 4700   7.866  13.998   7.882 -0.1617  0.0875  0.1857
  294loPI   C1B 4701   8.480  14.385  10.069  0.1936 -0.1322 -0.1641
  294loPI   C2B 4702   8.559  14.439   9.603  0.1073  0.1539  0.1830
  294loPI   C3B 4703   8.459  14.277   9.104  0.2024 -0.0326 -0.0042
  294loPI   C4B 4704   8.470  14.380   8.712 -0.0772 -0.1343  0.2186
  295loPI    C1 4705   0.039  16.955  10.576 -0.0430  0.1628 -0.0482
  295loPI    C2 4706   0.339  17.162  10.741  0.0754  0.0653 -0.1392
  295loPI    C3 4707   0.004  17.095  10.949  0.2680 -0.1555  0.1069
  295loPI   PO4 4708   0.050  16.753  10.382  0.0116  0.0673 -0.0437
  295loPI   GL1 4709   0.282  16.494  10.086 -0.3308  0.0642 -0.2265
  295loPI   GL2 4710   0.593  16.510  10.174  0.0157 -0.1179 -0.0424
  295loPI   C1A 4711   0.128  16.495   9.669 -0.1184 -0.0410  0.0562
  295loPI   C2A 4712   0.033  16.435   9.294  0.1439 -0.2440 -0.2636
  295loPI   C3A 4713  -0.082  16.550   8.845  0.0434 -0.3115 -0.0615
  295loPI   C4A 4714  -0.142  16.609   8.504  0.2593 -0.2450 -0.1378
  295loPI   C5A 4715  -0.048  16.430   8.206 -0.2054 -0.1797  0.2603
  295loPI   C6A 4716  -0.068  16.095   7.885  0.1214  0.3525 -0.0323
  295loPI   C1B 4717   0.663  16.495   9.773  0.1685 -0.0905 -0.1025
  295loPI   C2B 4718   0.884  16.615   9.503  0.0755 -0.0338 -0.0349
  295loPI   C3B 4719   0.780  16.602   8.991  0.0748  0.0447 -0.2442
  295loPI   C4B 4720   0.793  16.515   8.561  0.3619 -0.0222 -0.2601
  296loPI    C1 4721   0.955   7.740  10.610 -0.1160 -0.1052 -0.0356
  296loPI    C2 4722   0.809   8.055  10.808 -0.0154 -0.0859  0.0087
  296loPI    C3 4723   1.024   7.779  11.002  0.0940 -0.0608 -0.0762
  296loPI   PO4 4724   0.907   7.817  10.374  0.2774 -0.1257  0.1094
  296loPI   GL1 4725   0.714   7.737  10.006 -0.0246  0.1650  0.0043
  296loPI   GL2 4726   0.437   7.999   9.949  0.3912 -0.0889 -0.0037
  296loPI   C1A 4727   0.863   7.524   9.699  0.1422  0.0819  0.2220
  296loPI   C2A 4728   0.818   7.504   9.231 -0.0313 -0.0878  0.3235
  296loPI   C3A 4729   0.826   7.502   8.831  0.2856  0.1111  0.1141
  296loPI   C4A 4730   0.882   7.246   8.421 -0.1038  0.1402 -0.3873
  296loPI   C5A 4731   0.876   7.168   8.044  0.2306  0.1398  0.0925
  296loPI   C6A 4732   0.996   6.863   7.794 -0.1319 -0.4897 -0.0094
  296loPI   C1B 4733   0.571   8.015   9.587  0.1494  0.4335 -0.1570
  296loPI   C2B 4734   0.585   7.958   9.092  0.2242 -0.1003 -0.1323
  296loPI   C3B 4735   0.612   8.000   8.643 -0.0550  0.0137  0.2078
  296loPI   C4B 4736   0.630   8.097   8.209  0.0571 -0.1423 -0.0229
  297loPI    C1 4737   4.455   5.048  10.529 -0.0044  0.0544  0.0827
  297loPI    C2 4738   4.628   4.925  10.868  0.0618  0.2610  0.1252
  297loPI    C3 4739   4.639   4.693  10.543  0.3293  0.2265  0.1570
  297loPI   PO4 4740   4.394   5.315  10.537 -0.0262  0.2324  0.1566
  297loPI   GL1 4741   4.333   5.628  10.131  0.2068 -0.1387  0.0731
  297loPI   GL2 4742   4.312   5.360   9.984 -0.2363 -0.1863  0.3212
  297loPI   C1A 4743   4.527   5.732   9.758  0.1011 -0.0112  0.0013
  297loPI   C2A 4744   4.686   5.685   9.386 -0.0322  0.3706 -0.1693
  297loPI   C3A 4745   4.521   5.699   8.951  0.1425 -0.1231 -0.1950
  297loPI   C4A 4746   4.426   5.689   8.477  0.1841 -0.1304 -0.0634
  297loPI   C5A 4747   4.291   5.859   8.094  0.1812  0.0926 -0.1476
  297loPI   C6A 4748   3.860   5.826   7.898 -0.1445 -0.2071 -0.0962
  297loPI   C1B 4749   4.283   5.273   9.549  0.1910  0.0390  0.1062
  297loPI   C2B 4750   4.275   5.276   9.131 -0.1631  0.2242  0.3108
  297loPI   C3B 4751   4.175   5.286   8.676  0.3834  0.1719 -0.0585
  297loPI   C4B 4752   4.255   5.274   8.255 -0.0706  0.0958  0.0195
  298loPI    C1 4753  14.566   7.350  10.534  0.2198 -0.2655  0.2203
  298loPI    C2 4754  14.412   7.063  10.766  0.0541 -0.0473  0.3853
  298loPI    C3 4755  14.480   7.427  10.917  0.0858  0.0554  0.1293
  298loPI   PO4 4756  14.490   7.352  10.321  0.3754 -0.1828 -0.1015
  298loPI   GL1 4757  14.272   7.622  10.068 -0.1824  0.0231  0.3680
  298loPI   GL2 4758  14.056   7.451   9.938  0.1475  0.0162 -0.3601
  298loPI   C1A 4759  14.502   7.617   9.701 -0.1139  0.0412 -0.1428
  298loPI   C2A 4760  14.403   7.597   9.270 -0.1641 -0.0608  0.0569
  298loPI   C3A 4761  14.508   7.678   8.962 -0.1958 -0.1031 -0.2481
  298loPI   C4A 4762  14.431   7.731   8.601  0.1502 -0.3710  0.2319
  298loPI   C5A 4763  14.454   7.709   8.123 -0.2000 -0.1713  0.0485
  298loPI   C6A 4764  14.471   7.529   7.750  0.1049 -0.0967  0.0069
  298loPI   C1B 4765  13.960   7.620   9.609 -0.1642 -0.1330 -0.2799
  298loPI   C2B 4766  13.924   7.643   9.174  0.5426 -0.1640 -0.0232
  298loPI   C3B 4767  14.016   7.625   8.853  0.3989 -0.0990  0.0965
  298loPI   C4B 4768  13.974   7.759   8.456  0.1579 -0.1751 -0.1435
  299loPI    C1 4769  12.381   2.155  10.653  0.1636 -0.0706  0.1220
  299loPI    C2 4770  12.110   1.901  10.801 -0.3401  0.3317 -0.0789
  299loPI    C3 4771  12.422   2.013  11.025 -0.3330 -0.1366  0.1584
  299loPI   PO4 4772  12.363   2.087  10.357 -0.0908  0.2085 -0.4275
  299loPI   GL1 4773  12.325   2.172   9.940 -0.1498  0.0661 -0.2703
  299loPI   GL2 4774  12.471   2.367   9.809  0.0065  0.0497 -0.1002
  299loPI   C1A 4775  12.215   2.145   9.501 -0.1702  0.4308 -0.2154
  299loPI   C2A 4776  12.199   2.199   9.023  0.0448  0.0268  0.1774
  299loPI   C3A 4777  12.286   2.310   8.595 -0.2208  0.1091 -0.0415
  299loPI   C4A 4778  12.417   2.312   8.166  0.3252 -0.1704 -0.0025
  299loPI   C5A 4779  12.459   2.433   7.751 -0.2453  0.2806  0.1425
  299loPI   C6A 4780  12.357   2.673   7.383 -0.2727 -0.0471 -0.0164
  299loPI   C1B 4781  12.510   2.521   9.392  0.3667  0.2328  0.0088
  299loPI   C2B 4782  12.547   2.522   8.994 -0.3578 -0.2395 -0.0070
  299loPI   C3B 4783  12.726   2.626   8.539  0.2496 -0.1274 -0.0118
  299loPI   C4B 4784  12.872   2.576   8.116  0.0782 -0.2547 -0.2075
  300loPI    C1 4785   9.829  15.543  10.832  0.1465 -0.0803  0.2535
  300loPI    C2 4786   9.876  15.940  10.807 -0.1074 -0.0756 -0.2838
  300loPI    C3 4787  10.101  15.727  11.061 -0.0085  0.4145  0.0528
  300loPI   PO4 4788   9.851  15.416  10.632  0.2734 -0.2980 -0.0632
  300loPI   GL1 4789  10.083  15.380  10.326  0.0174 -0.1506 -0.0524
  300loPI   GL2 4790  10.276  15.101  10.366 -0.1108  0.1045 -0.2029
  300loPI   C1A 4791  10.246  15.647   9.961  0.0099 -0.1356  0.0903
  300loPI   C2A 4792  10.189  15.587   9.514  0.2163  0.1684  0.3654
  300loPI   C3A 4793  10.144  15.673   9.046 -0.1503 -0.2123  0.2218
  300loPI   C4A 4794  10.086  15.695   8.622  0.0296 -0.1137 -0.1158
  300loPI   C5A 4795   9.884  15.899   8.332  0.0286  0.2646 -0.0798
  300loPI   C6A 4796   9.949  16.182   8.107 -0.0653  0.0787  0.2784
  300loPI   C1B 4797  10.226  15.092   9.983  0.0906  0.1198  0.2145
  300loPI   C2B 4798  10.241  15.100   9.529 -0.0814  0.0030  0.0589
  300loPI   C3B 4799  10.198  15.143   9.124 -0.1210  0.2456 -0.0071
  300loPI   C4B 4800  10.095  15.181   8.757  0.3260 -0.0343 -0.0241
  301loPI    C1 4801  11.372   3.677  10.214  0.1477 -0.1388 -0.0209
  301loPI    C2 4802  11.530   3.942  10.468  0.1679  0.0353 -0.2118
  301loPI    C3 4803  11.424   3.579  10.598  0.1099  0.1465  0.0599
  301loPI   PO4 4804  11.324   3.824  10.026  0.2761  0.1466  0.0912
  301loPI   GL1 4805  11.414   3.954   9.674  0.0432  0.1462 -0.1138
  301loPI   GL2 4806  11.557   4.281   9.736 -0.1525 -0.0886 -0.1347
  301loPI   C1A 4807  11.342   4.002   9.229 -0.1611 -0.0928 -0.6214
  301loPI   C2A 4808  11.368   3.982   8.757  0.1871  0.0985  0.0824
  301loPI   C3A 4809  11.214   3.980   8.302 -0.2661 -0.3411 -0.0070
  301loPI   C4A 4810  11.282   3.906   7.973 -0.0950 -0.3280  0.0805
  301loPI   C5A 4811  11.199   3.696   7.561  0.0517 -0.3310  0.1513
  301loPI   C6A 4812  11.520   3.560   7.464 -0.2307 -0.1636 -0.0961
  301loPI   C1B 4813  11.652   4.424   9.361  0.0732 -0.2126 -0.0698
  301loPI   C2B 4814  11.599   4.443   8.913 -0.0284  0.2957 -0.0892
  301loPI   C3B 4815  11.515   4.399   8.413 -0.0448  0.0485  0.0964
  301loPI   C4B 4816  11.489   4.350   8.031  0.1267  0.1214 -0.0079
  302loPI    C1 4817   7.233  17.477  10.734 -0.2296  0.2262 -0.2302
  302loPI    C2 4818   6.861  17.393  10.856 -0.0520 -0.1147  0.0974
  302loPI    C3 4819   7.058  17.704  11.013 -0.1280 -0.0496  0.0644
  302loPI   PO4 4820   7.235  17.500  10.475 -0.1267 -0.1475  0.0724
  302loPI   GL1 4821   7.113  17.570  10.021 -0.0616 -0.0125  0.0541
  302loPI   GL2 4822   6.848  17.505   9.874  0.0222 -0.1716  0.1445
  302loPI   C1A 4823   7.229  17.360   9.635 -0.0807  0.1603 -0.0634
  302loPI   C2A 4824   7.129  17.409   9.163 -0.0806  0.2465  0.0820
  302loPI   C3A 4825   7.265  17.386   8.705  0.2300  0.0014  0.2191
  302loPI   C4A 4826   7.141  17.314   8.289  0.1145 -0.0780  0.1106
  302loPI   C5A 4827   6.825  17.324   7.911  0.1585  0.2617  0.0363
  302loPI   C6A 4828   6.576  17.583   7.643 -0.1441  0.3086  0.3408
  302loPI   C1B 4829   6.664  17.463   9.543 -0.0466 -0.5013 -0.1568
  302loPI   C2B 4830   6.627  17.527   9.151 -0.1313 -0.2494  0.0852
  302loPI   C3B 4831   6.661  17.474   8.787  0.0544 -0.4292  0.0614
  302loPI   C4B 4832   6.623  17.511   8.353 -0.0823  0.2662 -0.2199
  303loPI    C1 4833   4.363   6.885  11.091  0.1630 -0.1504 -0.1903
  303loPI    C2 4834   4.391   7.047  11.456  0.1977 -0.2514 -0.1478
  303loPI    C3 4835   4.224   6.686  11.409  0.0646 -0.1778 -0.2498
  303loPI   PO4 4836   4.257   6.974  10.945  0.1664  0.1136  0.1802
  303loPI   GL1 4837   4.323   7.280  10.604 -0.0800  0.0113  0.0385
  303loPI   GL2 4838   4.547   7.033  10.443  0.2019 -0.1218 -0.3599
  303loPI   C1A 4839   4.428   7.464  10.216  0.1043  0.0184 -0.3215
  303loPI   C2A 4840   4.478   7.530   9.850  0.2099  0.2585  0.4039
  303loPI   C3A 4841   4.516   7.568   9.353 -0.0234 -0.0938 -0.0104
  303loPI   C4A 4842   4.478   7.392   8.858  0.2592 -0.0198  0.1868
  303loPI   C5A 4843   4.484   7.326   8.322  0.1219 -0.2897 -0.1587
  303loPI   C6A 4844   4.555   7.096   7.925  0.0589  0.2843  0.0339
  303loPI   C1B 4845   4.657   7.100  10.080 -0.2311  0.0343  0.1274
  303loPI   C2B 4846   4.707   7.147   9.564 -0.2953 -0.2363 -0.0855
  303loPI   C3B 4847   4.721   7.081   9.182  0.1581 -0.1204 -0.1568
  303loPI   C4B 4848   4.766   6.965   8.728  0.2152  0.0758  0.0595
  304loPI    C1 4849  12.888  15.832  10.963  0.0225 -0.0391  0.2195
  304loPI    C2 4850  13.090  16.164  11.056  0.1081 -0.0349  0.0224
  304loPI    C3 4851  12.718  16.112  11.192  0.0983  0.1371  0.0632
  304loPI   PO4 4852  12.825  15.807  10.690  0.2216 -0.5413  0.2639
  304loPI   GL1 4853  12.875  15.781  10.206  0.2582  0.0481 -0.2570
  304loPI   GL2 4854  12.847  15.467  10.061 -0.1136  0.0996 -0.0634
  304loPI   C1A 4855  12.837  15.988   9.840  0.2054 -0.0573  0.0987
  304loPI   C2A 4856  12.715  15.923   9.393  0.0834  0.2100 -0.0212
  304loPI   C3A 4857  12.814  15.901   8.963  0.2867 -0.1905 -0.0941
  304loPI   C4A 4858  12.738  15.884   8.616  0.0147 -0.0026  0.3695
  304loPI   C5A 4859  12.672  15.918   8.095  0.0829  0.2188  0.0755
  304loPI   C6A 4860  12.853  15.965   7.696 -0.0820 -0.0763 -0.0017
  304loPI   C1B 4861  12.863  15.523   9.657  0.3054  0.2324  0.0189
  304loPI   C2B 4862  12.836  15.487   9.271 -0.2237  0.5523 -0.0193
  304loPI   C3B 4863  12.866  15.363   8.853  0.1942 -0.2753  0.0854
  304loPI   C4B 4864  12.826  15.337   8.416  0.0484  0.1058  0.1747
  305loPI    C1 4865  13.794   2.796  10.480  0.0216 -0.4157  0.0809
  305loPI    C2 4866  14.008   2.832  10.816 -0.0906  0.2157  0.0982
  305loPI    C3 4867  13.616   2.909  10.819 -0.1611 -0.1129 -0.1111
  305loPI   PO4 4868  13.956   2.608  10.314  0.1136  0.3441 -0.3606
  305loPI   GL1 4869  13.965   2.398   9.941  0.0459  0.0844  0.4702
  305loPI   GL2 4870  13.944   2.112   9.900 -0.0738 -0.1742 -0.2688
  305loPI   C1A 4871  14.057   2.290   9.463 -0.2844 -0.0822  0.0487
  305loPI   C2A 4872  14.025   2.401   9.000 -0.0908 -0.0226 -0.0438
  305loPI   C3A 4873  14.046   2.420   8.585 -0.3539  0.1310 -0.0180
  305loPI   C4A 4874  14.011   2.402   8.135  0.4698  0.0911  0.1461
  305loPI   C5A 4875  13.771   2.470   7.801 -0.1972  0.1647  0.2388
  305loPI   C6A 4876  13.604   2.768   7.562 -0.1189  0.0183 -0.2366
  305loPI   C1B 4877  14.114   1.857   9.701 -0.1953  0.1452 -0.0586
  305loPI   C2B 4878  14.173   1.832   9.257 -0.2072 -0.1878  0.3440
  305loPI   C3B 4879  14.052   1.875   8.823 -0.2112  0.0142 -0.0233
  305loPI   C4B 4880  14.041   1.973   8.433  0.0171  0.2864 -0.2602
  306loPI    C1 4881   9.377  16.235  11.155 -0.0928  0.0263 -0.1976
  306loPI    C2 4882   9.021  16.384  11.263 -0.0240 -0.0143  0.0942
  306loPI    C3 4883   9.241  16.178  11.527  0.1151 -0.1873 -0.1516
  306loPI   PO4 4884   9.326  16.097  10.988 -0.3263 -0.1611 -0.1141
  306loPI   GL1 4885   9.382  15.991  10.548 -0.0253 -0.1618 -0.1724
  306loPI   GL2 4886   9.494  15.729  10.453 -0.0742 -0.0162  0.0642
  306loPI   C1A 4887   9.113  16.158  10.297 -0.5633  0.0661  0.1562
  306loPI   C2A 4888   9.055  16.074   9.968 -0.2105  0.1907  0.4738
  306loPI   C3A 4889   9.218  16.009   9.566 -0.1692  0.0681 -0.0020
  306loPI   C4A 4890   9.160  16.008   9.133  0.1168  0.2115  0.0425
  306loPI   C5A 4891   9.206  16.028   8.697 -0.1773 -0.0915  0.1454
  306loPI   C6A 4892   9.386  15.838   8.306  0.2052  0.1116 -0.1286
  306loPI   C1B 4893   9.610  15.800  10.034  0.1794 -0.0692 -0.1810
  306loPI   C2B 4894   9.664  15.749   9.640 -0.0137 -0.2397 -0.2223
  306loPI   C3B 4895   9.664  15.699   9.175 -0.0860  0.2376 -0.1959
  306loPI   C4B 4896   9.671  15.882   8.810  0.1928 -0.0007 -0.1168
  307loPI    C1 4897  13.247   5.266  10.266  0.2198  0.1053 -0.2123
  307loPI    C2 4898  13.235   5.123  10.639 -0.1389  0.1854 -0.1901
  307loPI    C3 4899  13.414   5.473  10.565 -0.2258  0.2577 -0.0616
  307loPI   PO4 4900  12.881   5.246  10.151 -0.1003 -0.1051  0.0101
  307loPI   GL1 4901  12.808   5.640   9.921 -0.0679 -0.2869  0.0429
  307loPI   GL2 4902  13.088   5.427   9.757  0.0568  0.4467 -0.2948
  307loPI   C1A 4903  12.916   5.761   9.382  0.1932  0.3755 -0.1484
  307loPI   C2A 4904  12.911   5.943   8.980 -0.0164 -0.1125  0.0698
  307loPI   C3A 4905  12.794   5.895   8.599 -0.0499 -0.0387  0.0680
  307loPI   C4A 4906  12.766   5.666   8.230  0.2467 -0.1789 -0.3799
  307loPI   C5A 4907  12.485   5.483   8.002  0.4492  0.4766  0.1888
  307loPI   C6A 4908  12.262   5.010   7.923 -0.1337 -0.0910  0.2782
  307loPI   C1B 4909  13.279   5.407   9.403  0.0915  0.1638 -0.0188
  307loPI   C2B 4910  13.215   5.400   9.048  0.2280  0.0604 -0.1850
  307loPI   C3B 4911  13.134   5.319   8.664  0.0302  0.0737  0.1221
  307loPI   C4B 4912  13.169   5.346   8.228 -0.0650  0.2390 -0.2882
  308loPI    C1 4913   2.728   1.363  10.437 -0.1325 -0.1144  0.1352
  308loPI    C2 4914   2.933   1.675  10.580 -0.2326  0.0315 -0.0352
  308loPI    C3 4915   2.582   1.574  10.744  0.0118 -0.2736  0.3155
  308loPI   PO4 4916   2.743   1.365  10.106 -0.0442 -0.0276 -0.0218
  308loPI   GL1 4917   2.719   1.529   9.772  0.2526 -0.0654  0.2251
  308loPI   GL2 4918   2.469   1.647   9.735 -0.1302 -0.2333 -0.3698
  308loPI   C1A 4919   2.745   1.445   9.388  0.2221 -0.1363 -0.2912
  308loPI   C2A 4920   2.770   1.524   8.987 -0.1468 -0.2010 -0.0803
  308loPI   C3A 4921   2.924   1.577   8.580 -0.2246 -0.0164 -0.0737
  308loPI   C4A 4922   2.779   1.701   8.169  0.0790  0.0583 -0.1676
  308loPI   C5A 4923   2.866   1.511   7.733  0.1257  0.1034 -0.2276
  308loPI   C6A 4924   3.070   1.066   7.529  0.0244  0.0544 -0.1218
  308loPI   C1B 4925   2.368   1.783   9.361  0.0205 -0.0271  0.1364
  308loPI   C2B 4926   2.329   1.717   8.932 -0.1750  0.0664  0.3448
  308loPI   C3B 4927   2.413   1.635   8.509  0.1179 -0.3118 -0.3369
  308loPI   C4B 4928   2.312   1.412   8.117  0.1183 -0.1465  0.2273
  309loPI    C1 4929   6.165  16.713  10.474  0.1711 -0.0476  0.0510
  309loPI    C2 4930   6.321  16.345  10.466 -0.0533 -0.1459  0.0996
  309loPI    C3 4931   6.072  16.450  10.761  0.0403  0.0590  0.1076
  309loPI   PO4 4932   6.147  16.724  10.204 -0.1737  0.0424  0.1022
  309loPI   GL1 4933   6.310  16.493   9.930  0.3102  0.0820  0.1336
  309loPI   GL2 4934   6.523  16.171   9.984 -0.0913  0.5488 -0.0292
  309loPI   C1A 4935   6.199  16.335   9.573  0.0013 -0.0802 -0.0338
  309loPI   C2A 4936   6.438  16.241   9.229  0.1116 -0.0512  0.0296
  309loPI   C3A 4937   6.371  16.248   8.767  0.1869 -0.0543 -0.3895
  309loPI   C4A 4938   6.409  16.126   8.324 -0.3534 -0.2922 -0.1595
  309loPI   C5A 4939   6.330  16.112   7.891 -0.2391  0.0898  0.0234
  309loPI   C6A 4940   6.239  15.761   7.603 -0.1500 -0.2070  0.0308
  309loPI   C1B 4941   6.378  15.889   9.883 -0.1194  0.1084 -0.0756
  309loPI   C2B 4942   6.380  15.801   9.448  0.0583  0.2517 -0.4454
  309loPI   C3B 4943   6.401  15.687   9.008 -0.1032  0.0669  0.1908
  309loPI   C4B 4944   6.360  15.655   8.631 -0.2825  0.4069 -0.0804
  310loPI    C1 4945  12.784  13.513  11.036 -0.0889  0.2407  0.2436
  310loPI    C2 4946  12.840  13.456  11.428  0.0245 -0.1205  0.1786
  310loPI    C3 4947  12.472  13.432  11.274 -0.0149 -0.0200  0.2559
  310loPI   PO4 4948  12.898  13.788  10.934 -0.1730  0.1733 -0.1126
  310loPI   GL1 4949  12.756  13.853  10.497 -0.0075 -0.0938  0.0953
  310loPI   GL2 4950  13.105  13.952  10.245  0.2229 -0.1883  0.0616
  310loPI   C1A 4951  12.655  13.695  10.102  0.2129 -0.1132 -0.0585
  310loPI   C2A 4952  12.556  13.722   9.675  0.0360 -0.2732 -0.0607
  310loPI   C3A 4953  12.503  13.667   9.216 -0.1747 -0.1725 -0.0841
  310loPI   C4A 4954  12.645  13.617   8.842 -0.2121  0.0142  0.2556
  310loPI   C5A 4955  12.747  13.613   8.392  0.0850 -0.0314 -0.0014
  310loPI   C6A 4956  12.926  13.788   8.114  0.1450 -0.2285  0.0990
  310loPI   C1B 4957  13.026  13.904   9.853  0.2750  0.0237  0.0960
  310loPI   C2B 4958  13.027  14.030   9.514 -0.0988  0.1449 -0.4056
  310loPI   C3B 4959  12.955  13.903   9.104 -0.2905  0.1203  0.0159
  310loPI   C4B 4960  13.078  13.829   8.667  0.1038  0.2919  0.1166
  311loPI    C1 4961   5.339   3.045  10.612  0.2873 -0.1094 -0.0290
  311loPI    C2 4962   5.427   2.883  10.967  0.1660  0.0739  0.0872
  311loPI    C3 4963   5.667   3.162  10.810  0.3773 -0.2147 -0.1149
  311loPI   PO4 4964   5.321   2.936  10.389 -0.0797 -0.5121  0.0116
  311loPI   GL1 4965   5.154   2.956   9.977 -0.3213 -0.1420 -0.0546
  311loPI   GL2 4966   5.456   3.081   9.923  0.1302  0.2161  0.2039
  311loPI   C1A 4967   5.203   2.979   9.523 -0.0594  0.1716  0.3680
  311loPI   C2A 4968   5.184   3.059   9.073  0.0679 -0.0937 -0.1547
  311loPI   C3A 4969   5.027   3.019   8.658  0.0276 -0.1161  0.0723
  311loPI   C4A 4970   4.997   3.122   8.258 -0.2412  0.0660 -0.1573
  311loPI   C5A 4971   4.921   3.391   7.973  0.1007 -0.1263  0.3242
  311loPI   C6A 4972   4.930   3.748   7.701  0.0369 -0.1836  0.0942
  311loPI   C1B 4973   5.395   3.449   9.773 -0.0181 -0.1407  0.3478
  311loPI   C2B 4974   5.441   3.438   9.334  0.3169  0.2596 -0.2797
  311loPI   C3B 4975   5.426   3.431   8.880  0.1600  0.4313 -0.0487
  311loPI   C4B 4976   5.372   3.307   8.448  0.1671 -0.0971 -0.0432
  312loPI    C1 4977  10.751  11.485  10.478 -0.0868 -0.2149  0.0736
  312loPI    C2 4978  10.654  11.699  10.802 -0.0884  0.2720 -0.2373
  312loPI    C3 4979  10.398  11.429  10.656 -0.2033  0.2487  0.0021
  312loPI   PO4 4980  10.943  11.694  10.390 -0.0610 -0.2381 -0.1603
  312loPI   GL1 4981  11.152  11.913  10.126 -0.1997  0.0118  0.1262
  312loPI   GL2 4982  11.137  12.237  10.047 -0.0653 -0.2726  0.1085
  312loPI   C1A 4983  11.080  11.701   9.767 -0.0774 -0.2128 -0.2831
  312loPI   C2A 4984  11.098  11.579   9.348 -0.3656  0.1578  0.1761
  312loPI   C3A 4985  11.079  11.663   9.001  0.1630  0.2876  0.2065
  312loPI   C4A 4986  11.219  11.630   8.636  0.1982  0.0915  0.2324
  312loPI   C5A 4987  11.112  11.539   8.302  0.1081  0.0137 -0.2201
  312loPI   C6A 4988  11.119  11.141   7.950  0.1181  0.1019  0.0327
  312loPI   C1B 4989  10.959  12.364   9.681 -0.1618  0.0004  0.0246
  312loPI   C2B 4990  10.948  12.455   9.231  0.0136  0.0392 -0.0515
  312loPI   C3B 4991  10.750  12.228   8.805  0.0308 -0.1246 -0.0003
  312loPI   C4B 4992  10.870  12.092   8.395 -0.2110  0.1522  0.1253
  313loPI    C1 4993   4.286   0.645  10.633 -0.2553 -0.2352 -0.0990
  313loPI    C2 4994   4.190   0.264  10.709  0.0346 -0.2913 -0.0039
  313loPI    C3 4995   4.187   0.533  11.005 -0.1781 -0.2167 -0.0727
  313loPI   PO4 4996   4.336   0.685  10.352 -0.2301 -0.0901 -0.0966
  313loPI   GL1 4997   4.497   0.648   9.967 -0.1565  0.4674  0.0074
  313loPI   GL2 4998   4.342   0.913   9.846 -0.0812 -0.2332 -0.0636
  313loPI   C1A 4999   4.662   0.597   9.602 -0.1453  0.0325  0.1278
  313loPI   C2A 5000   4.687   0.586   9.210 -0.2817 -0.2370  0.2980
  313loPI   C3A 5001   4.611   0.506   8.721 -0.0519  0.1571 -0.0411
  313loPI   C4A 5002   4.706   0.383   8.295 -0.1578  0.2029  0.0699
  313loPI   C5A 5003   4.479   0.466   7.865  0.2495 -0.2698  0.0273
  313loPI   C6A 5004   4.109   0.560   7.631  0.0553 -0.0898  0.0975
  313loPI   C1B 5005   4.148   0.763   9.472  0.2298  0.5427 -0.3434
  313loPI   C2B 5006   4.176   0.682   9.043 -0.1119 -0.1811 -0.1389
  313loPI   C3B 5007   4.108   0.702   8.614 -0.0124  0.0800 -0.0126
  313loPI   C4B 5008   4.096   0.607   8.179 -0.1092  0.0697 -0.0919
  314loPI    C1 5009   6.187   9.583  11.027 -0.0327  0.1687 -0.1374
  314loPI    C2 5010   5.862   9.352  11.057 -0.1039  0.3049  0.1908
  314loPI    C3 5011   6.195   9.209  10.887 -0.2741  0.1011  0.0238
  314loPI   PO4 5012   6.117   9.838  10.854 -0.0392  0.4392  0.1621
  314loPI   GL1 5013   6.222   9.858  10.429  0.1717  0.0321 -0.1480
  314loPI   GL2 5014   6.265   9.498  10.334 -0.0213  0.0740  0.1511
  314loPI   C1A 5015   6.226   9.789   9.943  0.0022  0.0110  0.1451
  314loPI   C2A 5016   6.295   9.826   9.479  0.4778 -0.0348  0.1341
  314loPI   C3A 5017   6.202   9.774   9.025  0.2017  0.4233  0.0607
  314loPI   C4A 5018   6.294   9.820   8.619 -0.2029  0.0503 -0.0365
  314loPI   C5A 5019   6.690   9.697   8.425 -0.1123  0.0291  0.2882
  314loPI   C6A 5020   7.040   9.818   8.052  0.1422 -0.1631 -0.3355
  314loPI   C1B 5021   6.519   9.344   9.984 -0.2406 -0.1056  0.2403
  314loPI   C2B 5022   6.657   9.285   9.600 -0.1369 -0.1137  0.0099
  314loPI   C3B 5023   6.669   9.178   9.167  0.2058  0.2161 -0.0500
  314loPI   C4B 5024   6.525   9.359   8.842  0.1871 -0.2991 -0.0997
  315loPI    C1 5025  17.827  16.456  10.669 -0.3081 -0.0208 -0.0775
  315loPI    C2 5026  18.170  16.554  10.850 -0.1437 -0.2187 -0.2761
  315loPI    C3 5027  17.839  16.496  11.067 -0.0063 -0.2193 -0.0636
  315loPI   PO4 5028  17.830  16.623  10.439 -0.1430 -0.0641  0.0751
  315loPI   GL1 5029  18.046  16.754  10.043  0.1958  0.0308  0.0514
  315loPI   GL2 5030  18.225  16.924   9.943  0.1414  0.2126  0.1507
  315loPI   C1A 5031  17.966  16.621   9.621 -0.0179  0.2432  0.1006
  315loPI   C2A 5032  17.847  16.636   9.254  0.0210 -0.1189  0.4829
  315loPI   C3A 5033  17.703  16.700   8.902  0.1961 -0.0282 -0.1263
  315loPI   C4A 5034  17.634  16.684   8.413  0.0138 -0.1865  0.1328
  315loPI   C5A 5035  17.806  16.454   8.076 -0.0737  0.0053  0.2752
  315loPI   C6A 5036  18.037  16.479   7.718  0.5086 -0.0351 -0.0262
  315loPI   C1B 5037  18.253  16.994   9.445  0.0092  0.0530 -0.0546
  315loPI   C2B 5038  18.157  17.099   9.079 -0.1401 -0.0293  0.0338
  315loPI   C3B 5039  18.065  17.121   8.680  0.0731 -0.2009  0.3065
  315loPI   C4B 5040  17.990  16.929   8.147  0.1096  0.1121 -0.0393
  316loPI    C1 5041   1.938   1.054  10.432 -0.1636  0.0073 -0.0063
  316loPI    C2 5042   2.284   1.072  10.632 -0.0967 -0.0329 -0.1170
  316loPI    C3 5043   2.106   0.719  10.571 -0.1459 -0.0146 -0.0800
  316loPI   PO4 5044   1.902   1.096  10.222 -0.0447 -0.0224 -0.0093
  316loPI   GL1 5045   1.878   1.274   9.775 -0.4567 -0.0344 -0.1473
  316loPI   GL2 5046   1.901   0.996   9.636 -0.2655 -0.1547 -0.0889
  316loPI   C1A 5047   1.861   1.527   9.376  0.1611  0.0494  0.2072
  316loPI   C2A 5048   1.853   1.497   8.979 -0.1525 -0.1427  0.1021
  316loPI   C3A 5049   1.877   1.630   8.579 -0.0091 -0.1724  0.0527
  316loPI   C4A 5050   1.755   1.809   8.118  0.0162  0.3211  0.3844
  316loPI   C5A 5051   1.513   1.960   7.778 -0.1921  0.0723 -0.2427
  316loPI   C6A 5052   1.220   2.232   7.591  0.0884 -0.1071 -0.2213
  316loPI   C1B 5053   1.845   0.954   9.301  0.1104 -0.2533  0.1363
  316loPI   C2B 5054   1.944   0.969   8.861  0.1044  0.0283  0.0772
  316loPI   C3B 5055   1.956   1.174   8.495 -0.0244 -0.0293 -0.1092
  316loPI   C4B 5056   1.768   1.256   8.191 -0.1086  0.0587  0.1443
  317loPI    C1 5057   0.030   6.768  11.169 -0.0145 -0.1333 -0.0560
  317loPI    C2 5058  -0.358   6.794  11.262 -0.0015  0.1723 -0.0764
  317loPI    C3 5059  -0.083   6.959  11.502  0.1427 -0.3059  0.0991
  317loPI   PO4 5060  -0.020   6.755  10.794 -0.0300  0.2174 -0.0067
  317loPI   GL1 5061   0.175   6.769  10.532 -0.3773  0.0119  0.1532
  317loPI   GL2 5062   0.241   6.590  10.325 -0.2486  0.3547 -0.3237
  317loPI   C1A 5063  -0.028   6.967  10.119 -0.1846  0.1205  0.1364
  317loPI   C2A 5064  -0.024   7.206   9.799  0.0337 -0.2383  0.3702
  317loPI   C3A 5065   0.008   7.064   9.407 -0.0793 -0.1416  0.0959
  317loPI   C4A 5066   0.094   7.054   9.069  0.1259 -0.0565  0.0890
  317loPI   C5A 5067   0.073   7.128   8.644 -0.0806 -0.1663  0.0534
  317loPI   C6A 5068   0.349   7.056   8.378  0.0357  0.0501 -0.0377
  317loPI   C1B 5069   0.258   6.579   9.886 -0.1140  0.0598 -0.2287
  317loPI   C2B 5070   0.284   6.542   9.514  0.0253  0.0257 -0.0396
  317loPI   C3B 5071   0.303   6.531   9.141  0.1165 -0.0541 -0.2674
  317loPI   C4B 5072   0.301   6.694   8.733  0.3141  0.0040 -0.0526
  318loPI    C1 5073   7.079   2.779  10.249  0.1501  0.1258 -0.0572
  318loPI    C2 5074   7.286   3.062  10.442  0.1884  0.0499  0.0137
  318loPI    C3 5075   7.034   2.825  10.644 -0.0739  0.2321 -0.0936
  318loPI   PO4 5076   7.267   2.805  10.038 -0.3059  0.0384  0.2866
  318loPI   GL1 5077   7.364   2.890   9.676  0.0062 -0.0031  0.0513
  318loPI   GL2 5078   7.331   2.511   9.682  0.0943 -0.1701 -0.1909
  318loPI   C1A 5079   7.348   3.092   9.236 -0.3976  0.2183 -0.0712
  318loPI   C2A 5080   7.329   3.158   8.854  0.0748 -0.0578 -0.0500
  318loPI   C3A 5081   7.138   3.060   8.433 -0.0404  0.1179  0.2484
  318loPI   C4A 5082   7.064   3.155   7.957 -0.1297 -0.1915  0.1875
  318loPI   C5A 5083   7.195   3.134   7.439 -0.1006 -0.2025  0.0101
  318loPI   C6A 5084   7.102   2.951   7.071  0.0934  0.4115  0.0229
  318loPI   C1B 5085   7.524   2.562   9.276  0.1202  0.1610  0.3594
  318loPI   C2B 5086   7.538   2.572   8.868  0.1097 -0.0913 -0.2772
  318loPI   C3B 5087   7.463   2.716   8.438  0.1881  0.2153  0.1223
  318loPI   C4B 5088   7.235   2.681   8.009  0.1466 -0.1780  0.0538
  319loPI    C1 5089   2.359  12.081  10.737 -0.0109 -0.1134  0.1884
  319loPI    C2 5090   2.224  12.455  10.697 -0.0177 -0.1113  0.2298
  319loPI    C3 5091   1.966  12.154  10.747 -0.0162 -0.1320  0.1154
  319loPI   PO4 5092   2.432  11.990  10.480  0.1573 -0.0941 -0.2441
  319loPI   GL1 5093   2.349  12.068  10.044 -0.1771  0.1649 -0.2288
  319loPI   GL2 5094   2.324  12.352  10.154 -0.1347  0.1151  0.4096
  319loPI   C1A 5095   2.370  12.047   9.614 -0.3456 -0.0844 -0.1081
  319loPI   C2A 5096   2.329  12.055   9.106 -0.1333  0.0113  0.0107
  319loPI   C3A 5097   2.256  11.982   8.672 -0.2253 -0.0497  0.1543
  319loPI   C4A 5098   2.443  11.751   8.271 -0.0637 -0.0467  0.1261
  319loPI   C5A 5099   2.838  11.765   8.012 -0.1764 -0.0512  0.0748
  319loPI   C6A 5100   3.364  11.820   8.091 -0.0114  0.0062  0.0099
  319loPI   C1B 5101   2.287  12.558   9.748 -0.2372  0.1813 -0.1272
  319loPI   C2B 5102   2.356  12.512   9.347 -0.2476 -0.1064  0.1826
  319loPI   C3B 5103   2.381  12.465   8.876  0.1289  0.2317 -0.0513
  319loPI   C4B 5104   2.306  12.544   8.463  0.2702 -0.1905 -0.0897
  320loPI    C1 5105   8.207   0.107  10.457  0.2806 -0.0772  0.1742
  320loPI    C2 5106   7.974   0.428  10.512  0.3422 -0.0266  0.1416
  320loPI    C3 5107   7.959   0.123  10.771 -0.0556 -0.2015 -0.0790
  320loPI   PO4 5108   8.182  -0.002  10.222 -0.1191 -0.0924  0.1480
  320loPI   GL1 5109   8.282  -0.059   9.819 -0.4340 -0.1347 -0.0083
  320loPI   GL2 5110   8.332  -0.393   9.835  0.0882  0.1721 -0.0343
  320loPI   C1A 5111   8.340   0.054   9.417  0.2922  0.4772  0.2257
  320loPI   C2A 5112   8.349   0.037   9.025  0.3954 -0.0064  0.0009
  320loPI   C3A 5113   8.325  -0.024   8.576 -0.3533 -0.3412 -0.4325
  320loPI   C4A 5114   8.342   0.037   8.124  0.0370  0.1851 -0.1427
  320loPI   C5A 5115   8.393   0.038   7.648  0.0258  0.0118 -0.0568
  320loPI   C6A 5116   8.375   0.083   7.241  0.0109 -0.0560  0.2711
  320loPI   C1B 5117   8.414  -0.409   9.407 -0.2745  0.2444 -0.0032
  320loPI   C2B 5118   8.384  -0.455   8.984 -0.3383 -0.1170  0.0872
  320loPI   C3B 5119   8.396  -0.523   8.593  0.0294 -0.0820 -0.0518
  320loPI   C4B 5120   8.538  -0.394   8.263  0.2038 -0.2373  0.1571
  321loPI    C1 5121  10.853  13.559  10.898 -0.0781  0.0430  0.1151
  321loPI    C2 5122  11.045  13.245  11.055  0.0503  0.2736  0.4302
  321loPI    C3 5123  10.871  13.513  11.295 -0.4587  0.2020  0.1553
  321loPI   PO4 5124  10.957  13.588  10.674 -0.0773  0.0671 -0.1055
  321loPI   GL1 5125  11.014  13.551  10.334 -0.1540  0.0817 -0.1180
  321loPI   GL2 5126  10.995  13.258  10.244  0.0131 -0.0573 -0.0592
  321loPI   C1A 5127  11.241  13.668   9.940 -0.1921  0.2937 -0.0204
  321loPI   C2A 5128  11.170  13.810   9.561  0.0100  0.0875  0.0165
  321loPI   C3A 5129  11.267  13.758   9.212 -0.0530 -0.1566 -0.2461
  321loPI   C4A 5130  11.205  13.815   8.757  0.0300 -0.0313 -0.0798
  321loPI   C5A 5131  11.243  13.668   8.410  0.1444 -0.1325 -0.0100
  321loPI   C6A 5132  11.276  13.623   7.903 -0.2802 -0.3599 -0.1121
  321loPI   C1B 5133  10.754  13.249   9.919 -0.0305  0.0556  0.0187
  321loPI   C2B 5134  10.814  13.399   9.505 -0.3899  0.0379  0.0447
  321loPI   C3B 5135  10.837  13.436   9.100 -0.0775 -0.1251  0.2751
  321loPI   C4B 5136  10.828  13.477   8.618  0.0370 -0.1915  0.0220
  322loPI    C1 5137  13.227  17.522  10.952 -0.0557  0.1009 -0.2608
  322loPI    C2 5138  13.566  17.356  10.820 -0.0274  0.0300 -0.1015
  322loPI    C3 5139  13.533  17.465  11.204 -0.2041 -0.0143 -0.1032
  322loPI   PO4 5140  13.071  17.473  10.935  0.2805  0.3034  0.0879
  322loPI   GL1 5141  13.090  17.224  10.525  0.1354  0.0202  0.1980
  322loPI   GL2 5142  13.391  17.119  10.437  0.2331 -0.1594  0.0910
  322loPI   C1A 5143  12.978  17.329  10.111 -0.0194  0.3152  0.3859
  322loPI   C2A 5144  13.031  17.339   9.752  0.1426  0.1713  0.0851
  322loPI   C3A 5145  13.105  17.305   9.260 -0.0528  0.2784  0.0649
  322loPI   C4A 5146  13.164  17.200   8.817 -0.1409 -0.1798 -0.0380
  322loPI   C5A 5147  13.291  17.099   8.374 -0.2988 -0.0824 -0.3909
  322loPI   C6A 5148  13.494  17.311   8.027  0.3645 -0.1116 -0.1478
  322loPI   C1B 5149  13.576  17.108  10.116 -0.2125 -0.0193  0.2051
  322loPI   C2B 5150  13.464  17.031   9.712 -0.0988 -0.1221 -0.2351
  322loPI   C3B 5151  13.550  17.052   9.355 -0.4096  0.0674  0.2806
  322loPI   C4B 5152  13.652  17.067   8.862  0.1520 -0.0062  0.1431
  323loPI    C1 5153   0.836   8.543  10.618  0.1128  0.2887  0.1217
  323loPI    C2 5154   0.507   8.489  10.840  0.1572  0.1618  0.1571
  323loPI    C3 5155   0.866   8.498  11.015  0.2316 -0.3624  0.0484
  323loPI   PO4 5156   0.769   8.377  10.357 -0.2108 -0.0836 -0.0082
  323loPI   GL1 5157   0.994   8.472  10.155 -0.0389  0.2705 -0.4493
  323loPI   GL2 5158   1.110   8.098  10.043  0.0335 -0.0935  0.0548
  323loPI   C1A 5159   0.803   8.416   9.706 -0.0211  0.0855  0.0137
  323loPI   C2A 5160   0.850   8.427   9.279 -0.0220 -0.0002 -0.3322
  323loPI   C3A 5161   0.853   8.407   8.824  0.1611  0.1398 -0.0091
  323loPI   C4A 5162   1.031   8.452   8.442  0.0551 -0.1056  0.2651
  323loPI   C5A 5163   1.038   8.415   8.019  0.1388  0.1903 -0.0899
  323loPI   C6A 5164   0.786   8.154   7.658  0.1957  0.2297  0.2064
  323loPI   C1B 5165   1.113   8.019   9.619  0.2425  0.2328  0.0043
  323loPI   C2B 5166   1.104   7.958   9.151  0.0840 -0.2078  0.1502
  323loPI   C3B 5167   1.118   7.967   8.663 -0.2185 -0.1677 -0.4247
  323loPI   C4B 5168   1.053   7.751   8.273  0.1999  0.0773  0.0687
  324loPI    C1 5169   8.902   3.719  10.131  0.0045  0.1291 -0.0856
  324loPI    C2 5170   8.870   3.708  10.530  0.1676  0.1971 -0.0699
  324loPI    C3 5171   8.542   3.679  10.302  0.0854  0.0390  0.0664
  324loPI   PO4 5172   9.039   3.602  10.031 -0.1243  0.3410  0.1376
  324loPI   GL1 5173   9.177   3.516   9.627 -0.2267 -0.1151  0.2093
  324loPI   GL2 5174   9.293   3.888   9.563  0.2029  0.0539 -0.1606
  324loPI   C1A 5175   9.094   3.606   9.157 -0.2742 -0.0661 -0.2664
  324loPI   C2A 5176   9.074   3.533   8.833 -0.0200  0.1394 -0.2468
  324loPI   C3A 5177   9.013   3.576   8.452  0.0785 -0.1021 -0.1608
  324loPI   C4A 5178   8.980   3.694   8.029 -0.2127 -0.0186 -0.0413
  324loPI   C5A 5179   8.780   3.550   7.708 -0.0735 -0.0932 -0.2434
  324loPI   C6A 5180   8.531   3.833   7.481 -0.0090 -0.0149 -0.2440
  324loPI   C1B 5181   9.424   4.014   9.135  0.0782 -0.0987 -0.0421
  324loPI   C2B 5182   9.291   4.029   8.785  0.0812 -0.1568 -0.2028
  324loPI   C3B 5183   9.236   4.062   8.324 -0.0672 -0.1315 -0.1725
  324loPI   C4B 5184   9.242   4.119   8.011 -0.3519  0.1468 -0.0549
  325loPI    C1 5185   5.622   0.290  10.195  0.0679 -0.1145  0.5820
  325loPI    C2 5186   5.994   0.361  10.067 -0.1670  0.1727  0.0269
  325loPI    C3 5187   5.858   0.543  10.396  0.0375  0.4203 -0.0217
  325loPI   PO4 5188   5.534   0.265   9.920 -0.0429 -0.2904 -0.0062
  325loPI   GL1 5189   5.781   0.267   9.506  0.1264  0.1358 -0.1399
  325loPI   GL2 5190   6.079   0.025   9.546 -0.1418 -0.2274 -0.2544
  325loPI   C1A 5191   5.573   0.133   9.169  0.1940  0.1434  0.1914
  325loPI   C2A 5192   5.650   0.050   8.729 -0.1393  0.2421 -0.2341
  325loPI   C3A 5193   5.545   0.003   8.338 -0.0102  0.0114  0.3407
  325loPI   C4A 5194   5.346  -0.205   8.035  0.1059 -0.2593 -0.1143
  325loPI   C5A 5195   5.452  -0.305   7.572  0.0188  0.0832 -0.0718
  325loPI   C6A 5196   5.789  -0.398   7.286 -0.2082  0.0221 -0.1031
  325loPI   C1B 5197   6.120  -0.147   9.038 -0.0000 -0.0155  0.1027
  325loPI   C2B 5198   6.122  -0.117   8.610  0.4164  0.2612  0.3476
  325loPI   C3B 5199   6.102  -0.069   8.236  0.0039 -0.1515  0.2990
  325loPI   C4B 5200   6.026  -0.073   7.777  0.1684  0.1648 -0.1209
  326loPI    C1 5201  12.942   8.365  10.993  0.1256  0.0587  0.0258
  326loPI    C2 5202  13.326   8.311  11.093  0.0716  0.0394  0.2260
  326loPI    C3 5203  13.101   8.572  11.296 -0.0415 -0.0040  0.1579
  326loPI   PO4 5204  12.965   8.455  10.749  0.0083  0.0084 -0.0345
  326loPI   GL1 5205  12.786   8.576  10.492  0.0382 -0.1404 -0.1696
  326loPI   GL2 5206  12.458   8.546  10.310 -0.0243  0.0875 -0.1840
  326loPI   C1A 5207  12.915   8.536  10.016  0.0251  0.1024  0.4028
  326loPI   C2A 5208  12.944   8.581   9.616 -0.3654 -0.0894  0.1851
  326loPI   C3A 5209  12.879   8.536   9.116  0.2136 -0.0437 -0.0580
  326loPI   C4A 5210  12.829   8.432   8.588  0.0689 -0.3261 -0.1414
  326loPI   C5A 5211  12.715   8.029   8.280  0.1048  0.0295 -0.0996
  326loPI   C6A 5212  12.452   7.854   7.868 -0.1130 -0.2162  0.0268
  326loPI   C1B 5213  12.447   8.509   9.931 -0.0482  0.1153 -0.0294
  326loPI   C2B 5214  12.395   8.553   9.450  0.1215 -0.3050 -0.1839
  326loPI   C3B 5215  12.344   8.492   9.077  0.2728  0.1151 -0.0894
  326loPI   C4B 5216  12.351   8.470   8.603 -0.0806  0.1213  0.0631
  327loPI    C1 5217   3.488   6.417  11.109 -0.1851  0.1152 -0.0426
  327loPI    C2 5218   3.103   6.447  11.214 -0.1463  0.1127  0.1028
  327loPI    C3 5219   3.390   6.524  11.482 -0.0444  0.3506 -0.0711
  327loPI   PO4 5220   3.476   6.653  10.912  0.0552  0.0311  0.0916
  327loPI   GL1 5221   3.442   6.743  10.511 -0.1628 -0.2782 -0.0055
  327loPI   GL2 5222   3.331   6.445  10.375 -0.0428  0.0850  0.1121
  327loPI   C1A 5223   3.587   7.009  10.123  0.2075  0.0155  0.0058
  327loPI   C2A 5224   3.661   7.092   9.722 -0.2230 -0.0270 -0.0067
  327loPI   C3A 5225   3.762   7.084   9.277  0.0353 -0.1704  0.1164
  327loPI   C4A 5226   3.665   6.959   8.779  0.2051  0.1005  0.1357
  327loPI   C5A 5227   3.800   6.699   8.392  0.0744  0.0156 -0.1066
  327loPI   C6A 5228   4.157   6.788   8.079 -0.1544  0.1064  0.1203
  327loPI   C1B 5229   3.400   6.548   9.929 -0.3287 -0.0585  0.0923
  327loPI   C2B 5230   3.418   6.663   9.471  0.0662 -0.1191  0.0122
  327loPI   C3B 5231   3.342   6.523   8.989 -0.1776  0.1479 -0.0435
  327loPI   C4B 5232   3.319   6.530   8.537  0.0003 -0.0903 -0.0415
  328loPI    C1 5233   4.358   9.225  10.648  0.0179 -0.4563  0.0658
  328loPI    C2 5234   4.566   9.065  10.950  0.0775  0.0272  0.2896
  328loPI    C3 5235   4.169   9.097  10.977  0.0420 -0.2675  0.1542
  328loPI   PO4 5236   4.538   9.117  10.393 -0.0637 -0.0790  0.1785
  328loPI   GL1 5237   4.631   8.804  10.190 -0.0575  0.2493 -0.0231
  328loPI   GL2 5238   4.959   8.530  10.326 -0.0050  0.0342  0.1215
  328loPI   C1A 5239   4.717   8.793   9.797 -0.0240 -0.0427 -0.0196
  328loPI   C2A 5240   4.659   8.815   9.351 -0.0405  0.2414 -0.0986
  328loPI   C3A 5241   4.686   8.830   8.929  0.1649 -0.1364 -0.1817
  328loPI   C4A 5242   4.807   8.845   8.577  0.1551  0.3490 -0.0678
  328loPI   C5A 5243   4.635   8.757   8.210  0.1398 -0.0210  0.0343
  328loPI   C6A 5244   4.433   8.676   7.696 -0.1000  0.0038  0.0978
  328loPI   C1B 5245   4.944   8.389   9.860 -0.2091 -0.1187  0.1000
  328loPI   C2B 5246   4.988   8.423   9.502  0.0620  0.1296  0.1404
  328loPI   C3B 5247   5.064   8.410   9.028 -0.1479  0.0215 -0.0152
  328loPI   C4B 5248   4.930   8.261   8.509 -0.1541  0.0204 -0.0811
  329loPI    C1 5249   0.461   6.289  10.755 -0.2429 -0.0354 -0.1031
  329loPI    C2 5250   0.371   5.948  10.942 -0.0362 -0.0263  0.0164
  329loPI    C3 5251   0.310   6.298  11.125  0.0236 -0.0114  0.0078
  329loPI   PO4 5252   0.513   6.138  10.551  0.0143 -0.0681 -0.1059
  329loPI   GL1 5253   0.525   6.042  10.183 -0.3592 -0.1656  0.1100
  329loPI   GL2 5254   0.836   6.144  10.074  0.1260  0.2835  0.1846
  329loPI   C1A 5255   0.680   5.700   9.862 -0.1305 -0.0301  0.2268
  329loPI   C2A 5256   0.802   5.743   9.465  0.0592 -0.2295 -0.0445
  329loPI   C3A 5257   0.745   5.688   8.964 -0.0845 -0.1844  0.4557
  329loPI   C4A 5258   0.800   5.766   8.451 -0.0781 -0.0469  0.0104
  329loPI   C5A 5259   0.703   5.948   8.032 -0.0447  0.1795  0.1243
  329loPI   C6A 5260   0.570   6.267   7.776  0.2354  0.1274  0.0974
  329loPI   C1B 5261   0.560   6.180   9.729 -0.0963  0.1105  0.0481
  329loPI   C2B 5262   0.604   6.135   9.250  0.1766 -0.0087  0.0045
  329loPI   C3B 5263   0.540   6.175   8.796  0.1877 -0.1459 -0.0989
  329loPI   C4B 5264   0.485   6.322   8.433  0.3043  0.2826  0.0903
  330loPI    C1 5265  15.329   8.488  10.834  0.0242  0.0177  0.0900
  330loPI    C2 5266  14.975   8.586  10.992 -0.2365 -0.2839 -0.2887
  330loPI    C3 5267  15.193   8.294  11.156  0.0403  0.1757  0.1933
  330loPI   PO4 5268  15.356   8.471  10.634  0.2659 -0.1192  0.3472
  330loPI   GL1 5269  15.307   8.499  10.179  0.0432  0.0568  0.3840
  330loPI   GL2 5270  14.991   8.589  10.305  0.2725  0.0846  0.0482
  330loPI   C1A 5271  15.483   8.576   9.768 -0.0030  0.0335  0.0443
  330loPI   C2A 5272  15.588   8.505   9.390 -0.0577  0.0161  0.2404
  330loPI   C3A 5273  15.560   8.521   8.878 -0.2932 -0.0738  0.1357
  330loPI   C4A 5274  15.540   8.533   8.431  0.2031 -0.4546 -0.3777
  330loPI   C5A 5275  15.578   8.623   7.994  0.0928  0.4894  0.0337
  330loPI   C6A 5276  15.675   8.458   7.629 -0.1789 -0.2851  0.1545
  330loPI   C1B 5277  14.956   8.496   9.815 -0.1665 -0.1738  0.0798
  330loPI   C2B 5278  14.874   8.467   9.344  0.3992 -0.0602  0.2547
  330loPI   C3B 5279  14.978   8.549   8.925 -0.0932 -0.0137  0.1284
  330loPI   C4B 5280  15.069   8.604   8.490  0.0662  0.0269 -0.3189
  331loPI    C1 5281   1.972   9.126  10.697  0.0867  0.1552  0.1039
  331loPI    C2 5282   2.328   9.174  10.871  0.1115  0.0080  0.0947
  331loPI    C3 5283   2.094   8.867  10.976  0.0698 -0.0055 -0.0362
  331loPI   PO4 5284   2.033   9.181  10.453  0.0706 -0.2562  0.0435
  331loPI   GL1 5285   2.131   8.888  10.122  0.1345  0.0868 -0.1595
  331loPI   GL2 5286   2.231   9.250   9.961  0.1487  0.3364  0.2442
  331loPI   C1A 5287   2.078   8.848   9.724 -0.1147 -0.5040  0.4137
  331loPI   C2A 5288   2.115   8.775   9.317 -0.3069 -0.0111  0.0540
  331loPI   C3A 5289   2.200   8.996   8.864  0.2956 -0.1221  0.0921
  331loPI   C4A 5290   2.264   8.973   8.451 -0.3482  0.3501 -0.1698
  331loPI   C5A 5291   2.272   8.954   8.007 -0.0206  0.0611 -0.1040
  331loPI   C6A 5292   2.201   8.806   7.619 -0.0989 -0.1691  0.5062
  331loPI   C1B 5293   2.382   9.211   9.556  0.0330  0.0464 -0.1709
  331loPI   C2B 5294   2.403   9.371   9.185 -0.0374 -0.1565 -0.0258
  331loPI   C3B 5295   2.413   9.430   8.743 -0.1911 -0.1869 -0.1226
  331loPI   C4B 5296   2.545   9.495   8.330  0.2201  0.3062 -0.1549
  332loPI    C1 5297  18.031  15.244  10.431 -0.1370  0.2999 -0.1237
  332loPI    C2 5298  18.003  15.129  10.813 -0.1180 -0.0932 -0.2366
  332loPI    C3 5299  18.360  15.217  10.656 -0.1475  0.2667 -0.1125
  332loPI   PO4 5300  17.818  15.077  10.299  0.1248  0.0205  0.2069
  332loPI   GL1 5301  17.927  14.973   9.891  0.2809 -0.0765  0.1206
  332loPI   GL2 5302  18.186  15.011   9.955 -0.2809  0.1497  0.1441
  332loPI   C1A 5303  17.904  15.058   9.497 -0.1130 -0.1297  0.1965
  332loPI   C2A 5304  18.052  15.086   9.070 -0.1550 -0.1398  0.2365
  332loPI   C3A 5305  17.896  15.229   8.721  0.1025 -0.0933 -0.0772
  332loPI   C4A 5306  17.954  15.300   8.263 -0.0002 -0.0780 -0.2480
  332loPI   C5A 5307  17.587  15.462   8.049 -0.0584  0.0807 -0.0085
  332loPI   C6A 5308  17.214  15.538   8.040 -0.1001  0.1382  0.0220
  332loPI   C1B 5309  18.417  15.068   9.589 -0.1226 -0.3636 -0.3134
  332loPI   C2B 5310  18.512  15.073   9.166 -0.0334  0.2500  0.3088
  332loPI   C3B 5311  18.428  15.044   8.673 -0.0050 -0.0419  0.1173
  332loPI   C4B 5312  18.442  15.136   8.266 -0.0362  0.3921 -0.2774
  333loPI    C1 5313  15.448  10.566  10.335  0.3357  0.0796 -0.0035
  333loPI    C2 5314  15.389  10.395  10.692 -0.1733  0.2094 -0.0175
  333loPI    C3 5315  15.660  10.687  10.653  0.1488 -0.0553  0.1755
  333loPI   PO4 5316  15.123  10.585  10.292 -0.1383 -0.1873 -0.1326
  333loPI   GL1 5317  15.102  10.468   9.861 -0.0281  0.2582 -0.0316
  333loPI   GL2 5318  15.227  10.255   9.926 -0.2282  0.2374  0.0144
  333loPI   C1A 5319  15.037  10.441   9.507  0.1425  0.1032  0.2527
  333loPI   C2A 5320  14.965  10.373   9.012  0.1964  0.0490 -0.4372
  333loPI   C3A 5321  14.935  10.347   8.613  0.0724  0.2127 -0.0754
  333loPI   C4A 5322  14.952  10.284   8.142 -0.0964  0.1465 -0.0075
  333loPI   C5A 5323  15.037   9.885   7.946 -0.1982  0.1714 -0.0859
  333loPI   C6A 5324  14.972   9.410   7.962  0.0688  0.1824 -0.2187
  333loPI   C1B 5325  15.369   9.948   9.633 -0.0209 -0.0525 -0.0131
  333loPI   C2B 5326  15.327   9.761   9.171  0.1784 -0.1317  0.2703
  333loPI   C3B 5327  15.244   9.922   8.822  0.0857 -0.0129  0.0131
  333loPI   C4B 5328  15.224   9.974   8.432  0.1017  0.0323  0.2487
  334loPI    C1 5329  10.694  16.877  10.940  0.1751  0.0045  0.0986
  334loPI    C2 5330  10.391  17.129  11.012 -0.1018 -0.2352 -0.1970
  334loPI    C3 5331  10.514  16.877  11.297 -0.0705 -0.0253 -0.0228
  334loPI   PO4 5332  10.761  16.966  10.614  0.0323  0.1358  0.0216
  334loPI   GL1 5333  10.753  16.765  10.145 -0.0490  0.0981 -0.0717
  334loPI   GL2 5334  10.469  16.873  10.244  0.1519 -0.1812 -0.0766
  334loPI   C1A 5335  10.919  16.804   9.761 -0.4082  0.2038 -0.3020
  334loPI   C2A 5336  10.894  16.829   9.346 -0.1571  0.0284  0.0184
  334loPI   C3A 5337  10.895  16.884   8.873  0.1604 -0.2498  0.2864
  334loPI   C4A 5338  10.925  16.863   8.459 -0.0564 -0.1159 -0.0410
  334loPI   C5A 5339  10.915  16.653   8.032  0.0444  0.2381 -0.1380
  334loPI   C6A 5340  11.064  16.727   7.661  0.1154 -0.3029 -0.3394
  334loPI   C1B 5341  10.349  16.990   9.863  0.2063 -0.0080  0.1815
  334loPI   C2B 5342  10.448  16.966   9.413 -0.1475  0.0779 -0.0349
  334loPI   C3B 5343  10.421  17.082   9.039  0.1629 -0.6022  0.1934
  334loPI   C4B 5344  10.359  16.980   8.556  0.4228  0.1730  0.0156
  335loPI    C1 5345   1.735  18.284  10.523 -0.0946 -0.1738 -0.2341
  335loPI    C2 5346   1.409  18.159  10.717  0.0519  0.0488  0.1678
  335loPI    C3 5347   1.414  18.521  10.547  0.0342 -0.0203  0.0189
  335loPI   PO4 5348   1.868  18.140  10.285  0.1221 -0.0749 -0.2558
  335loPI   GL1 5349   2.131  17.901   9.893  0.1142  0.0017  0.3045
  335loPI   GL2 5350   2.217  17.613   9.852 -0.1024  0.0834 -0.2112
  335loPI   C1A 5351   2.116  17.993   9.451  0.3230 -0.0662 -0.1829
  335loPI   C2A 5352   2.076  18.004   9.040  0.0988 -0.2130  0.0523
  335loPI   C3A 5353   2.032  17.925   8.656 -0.0048 -0.1192  0.0597
  335loPI   C4A 5354   1.901  17.907   8.250  0.0759 -0.0282  0.0116
  335loPI   C5A 5355   1.929  17.890   7.783  0.0831  0.4053 -0.0448
  335loPI   C6A 5356   2.061  17.710   7.384 -0.0162  0.1190  0.1583
  335loPI   C1B 5357   2.210  17.503   9.418  0.1202 -0.0442 -0.1404
  335loPI   C2B 5358   2.122  17.508   8.974 -0.1294  0.1982 -0.1271
  335loPI   C3B 5359   2.086  17.390   8.596  0.4478  0.0225  0.3757
  335loPI   C4B 5360   2.021  17.411   8.232  0.0814 -0.0360 -0.0304
  336loPI    C1 5361   2.091   8.406  10.827  0.0985 -0.4777  0.1772
  336loPI    C2 5362   1.698   8.344  10.793  0.0145  0.2130 -0.3278
  336loPI    C3 5363   1.858   8.416  11.152 -0.3191 -0.0367 -0.1225
  336loPI   PO4 5364   2.162   8.221  10.614  0.1913 -0.1596 -0.0567
  336loPI   GL1 5365   2.371   8.239  10.322  0.0608 -0.1910 -0.1099
  336loPI   GL2 5366   2.570   8.112  10.217  0.2283 -0.1306  0.3809
  336loPI   C1A 5367   2.303   8.424   9.894 -0.0570 -0.0497  0.0845
  336loPI   C2A 5368   2.345   8.428   9.527 -0.0410  0.1641  0.1949
  336loPI   C3A 5369   2.431   8.359   9.109  0.0141  0.0446  0.0658
  336loPI   C4A 5370   2.431   8.531   8.758 -0.0231  0.0218  0.1829
  336loPI   C5A 5371   2.447   8.350   8.396  0.4453 -0.1873  0.1502
  336loPI   C6A 5372   2.340   8.370   8.000  0.0806  0.1289 -0.1409
  336loPI   C1B 5373   2.576   8.056   9.805  0.1992 -0.3002 -0.1258
  336loPI   C2B 5374   2.645   8.004   9.483  0.1293  0.0233  0.1523
  336loPI   C3B 5375   2.711   7.928   9.121  0.0471 -0.2167  0.2906
  336loPI   C4B 5376   2.596   7.965   8.789  0.0397 -0.1272  0.1977
  337loPI    C1 5377  16.468  15.261  10.596  0.1626  0.0442 -0.2079
  337loPI    C2 5378  16.449  15.258  10.996 -0.0100  0.0375 -0.2153
  337loPI    C3 5379  16.685  14.998  10.804  0.0235 -0.0025 -0.1203
  337loPI   PO4 5380  16.525  15.497  10.465  0.0129  0.1105  0.0958
  337loPI   GL1 5381  16.758  15.750  10.146 -0.0297 -0.0548  0.1667
  337loPI   GL2 5382  17.082  15.573  10.175 -0.1026  0.1071  0.1363
  337loPI   C1A 5383  16.578  15.719   9.688 -0.0561  0.1397 -0.0573
  337loPI   C2A 5384  16.490  15.746   9.193  0.2353  0.0140  0.2324
  337loPI   C3A 5385  16.456  15.738   8.807 -0.1863  0.0304  0.0093
  337loPI   C4A 5386  16.398  15.799   8.408  0.0991  0.0789 -0.1229
  337loPI   C5A 5387  16.240  15.721   7.951  0.0514  0.5751 -0.0654
  337loPI   C6A 5388  16.064  15.807   7.650  0.1346  0.1326  0.0548
  337loPI   C1B 5389  17.096  15.511   9.812 -0.0575  0.1178 -0.1292
  337loPI   C2B 5390  16.977  15.463   9.373  0.2829  0.2428 -0.0152
  337loPI   C3B 5391  16.964  15.597   8.887  0.2378  0.2142 -0.2814
  337loPI   C4B 5392  16.957  15.598   8.471 -0.1523 -0.0905  0.2959
  338loPI    C1 5393   4.604  12.515  10.443  0.0021  0.0468 -0.0129
  338loPI    C2 5394   4.881  12.330  10.664  0.0590  0.0465 -0.0838
  338loPI    C3 5395   4.496  12.227  10.698  0.0842 -0.0490 -0.0855
  338loPI   PO4 5396   4.634  12.808  10.527  0.1899  0.0094 -0.1499
  338loPI   GL1 5397   4.589  13.093  10.263  0.0038 -0.1577 -0.0130
  338loPI   GL2 5398   4.392  13.424  10.178 -0.1867 -0.0202  0.0007
  338loPI   C1A 5399   4.496  13.021   9.827  0.1039  0.2036 -0.0679
  338loPI   C2A 5400   4.538  13.054   9.385 -0.1467  0.1743 -0.2297
  338loPI   C3A 5401   4.538  12.970   8.983 -0.0359 -0.2074  0.2970
  338loPI   C4A 5402   4.436  13.077   8.587  0.1124 -0.0748  0.1169
  338loPI   C5A 5403   4.409  13.111   8.166  0.2387  0.1747 -0.0645
  338loPI   C6A 5404   4.529  13.494   7.880  0.1056 -0.1198 -0.0775
  338loPI   C1B 5405   4.356  13.562   9.733 -0.0057  0.0519  0.0501
  338loPI   C2B 5406   4.431  13.554   9.363  0.0466 -0.4105  0.1502
  338loPI   C3B 5407   4.338  13.575   8.928  0.0146  0.2009 -0.1343
  338loPI   C4B 5408   4.385  13.575   8.473 -0.0906 -0.2470 -0.1727
  339loPI    C1 5409  16.282  16.481  10.846  0.2085 -0.1084 -0.0050
  339loPI    C2 5410  15.908  16.458  10.986  0.2733 -0.2049  0.1555
  339loPI    C3 5411  16.154  16.744  11.118  0.3593 -0.3442  0.2998
  339loPI   PO4 5412  16.313  16.416  10.624  0.0315  0.2619 -0.0554
  339loPI   GL1 5413  16.192  16.351  10.208 -0.2119  0.2413 -0.2629
  339loPI   GL2 5414  16.422  16.200  10.049 -0.0878 -0.4209 -0.2204
  339loPI   C1A 5415  15.933  16.502   9.744 -0.1156  0.0402 -0.1562
  339loPI   C2A 5416  15.780  16.577   9.390  0.2314  0.0781 -0.1964
  339loPI   C3A 5417  15.856  16.461   9.083  0.3914  0.2882  0.2715
  339loPI   C4A 5418  15.850  16.543   8.675 -0.1687  0.0612 -0.2181
  339loPI   C5A 5419  16.052  16.585   8.214  0.0408  0.1597  0.2371
  339loPI   C6A 5420  16.226  16.831   7.903 -0.1169 -0.2245  0.0684
  339loPI   C1B 5421  16.407  16.264   9.581 -0.0336  0.0776  0.1811
  339loPI   C2B 5422  16.493  16.289   9.137 -0.3245 -0.1139 -0.0974
  339loPI   C3B 5423  16.423  16.317   8.688  0.0267 -0.3527 -0.0510
  339loPI   C4B 5424  16.449  16.335   8.218 -0.2208  0.2193  0.1745
  340loPI    C1 5425   7.542   4.716  10.670 -0.0274 -0.2150 -0.0712
  340loPI    C2 5426   7.576   4.349  10.824 -0.0332 -0.2464 -0.1444
  340loPI    C3 5427   7.310   4.606  10.976 -0.0938 -0.3039 -0.1531
  340loPI   PO4 5428   7.517   4.755  10.434  0.0480  0.3787  0.1283
  340loPI   GL1 5429   7.309   4.627  10.110  0.0888  0.1465 -0.0255
  340loPI   GL2 5430   6.978   4.679  10.127 -0.0090  0.0664 -0.0578
  340loPI   C1A 5431   7.298   4.786   9.698  0.0317  0.0525 -0.2657
  340loPI   C2A 5432   7.226   4.807   9.165 -0.0840 -0.3051  0.1670
  340loPI   C3A 5433   7.219   4.763   8.725 -0.0723  0.2835  0.1314
  340loPI   C4A 5434   7.091   4.711   8.227  0.1027  0.1728 -0.1723
  340loPI   C5A 5435   6.805   4.498   8.018  0.1444  0.0810  0.0108
  340loPI   C6A 5436   6.486   4.582   7.671  0.0234  0.0440 -0.1096
  340loPI   C1B 5437   6.734   4.780   9.733 -0.1715 -0.1860 -0.1293
  340loPI   C2B 5438   6.666   4.889   9.360  0.1615 -0.2987  0.2238
  340loPI   C3B 5439   6.751   4.808   8.924  0.1242 -0.0819 -0.0225
  340loPI   C4B 5440   6.679   4.836   8.468  0.1025 -0.1595 -0.0547
  341loPI    C1 5441   7.881  13.555  11.159 -0.2961 -0.2487 -0.1597
  341loPI    C2 5442   7.745  13.275  11.410 -0.1542 -0.2634 -0.0982
  341loPI    C3 5443   7.952  13.587  11.551 -0.2748 -0.1495 -0.1713
  341loPI   PO4 5444   7.777  13.588  10.929  0.2854  0.0169 -0.1703
  341loPI   GL1 5445   7.803  13.668  10.456  0.2130  0.0712  0.0192
  341loPI   GL2 5446   7.597  13.891  10.312 -0.0088 -0.2140 -0.2792
  341loPI   C1A 5447   7.989  13.660   9.993 -0.1556 -0.0428 -0.0574
  341loPI   C2A 5448   8.043  13.568   9.651 -0.0036 -0.1098 -0.0714
  341loPI   C3A 5449   8.112  13.535   9.278  0.1185 -0.0806 -0.0482
  341loPI   C4A 5450   8.121  13.502   8.791 -0.0749  0.0927 -0.0071
  341loPI   C5A 5451   7.951  13.451   8.418 -0.0532 -0.0125  0.1706
  341loPI   C6A 5452   8.181  12.997   8.089 -0.0332 -0.1714 -0.2372
  341loPI   C1B 5453   7.483  13.702   9.956 -0.2202 -0.3860 -0.0671
  341loPI   C2B 5454   7.620  13.727   9.606 -0.1799 -0.3081 -0.0311
  341loPI   C3B 5455   7.555  13.797   9.237 -0.0318 -0.2118  0.1248
  341loPI   C4B 5456   7.619  13.702   8.802 -0.0873  0.1447  0.0652
  342loPI    C1 5457   0.843   5.353  10.199  0.0130 -0.1423 -0.0722
  342loPI    C2 5458   0.960   5.345  10.581 -0.1994 -0.0579 -0.0038
  342loPI    C3 5459   0.861   5.692  10.410 -0.1451 -0.1010 -0.1236
  342loPI   PO4 5460   0.708   5.119  10.198  0.0400  0.0930  0.0465
  342loPI   GL1 5461   0.573   5.044   9.915  0.1091 -0.1423  0.1217
  342loPI   GL2 5462   0.405   4.761   9.773 -0.0654  0.0503  0.1029
  342loPI   C1A 5463   0.594   5.309   9.505 -0.1966 -0.1733  0.1198
  342loPI   C2A 5464   0.451   5.316   9.088  0.2436  0.0980 -0.0246
  342loPI   C3A 5465   0.509   5.296   8.632 -0.0753 -0.1890  0.4288
  342loPI   C4A 5466   0.460   5.447   8.236  0.0048 -0.1164 -0.2756
  342loPI   C5A 5467   0.545   5.521   7.822  0.2205 -0.0728 -0.0425
  342loPI   C6A 5468   0.305   5.485   7.388 -0.0316  0.0755  0.0035
  342loPI   C1B 5469   0.276   4.909   9.368  0.0565  0.0077  0.0448
  342loPI   C2B 5470   0.261   4.915   8.842  0.1630 -0.0264  0.0220
  342loPI   C3B 5471   0.259   4.908   8.404  0.0790 -0.3100  0.1775
  342loPI   C4B 5472   0.191   4.827   7.950 -0.1799  0.2152 -0.0517
  343loPI    C1 5473  11.767   3.283  10.110 -0.0040  0.0021  0.0608
  343loPI    C2 5474  11.395   3.202  10.234  0.0525 -0.1315  0.1449
  343loPI    C3 5475  11.699   3.196  10.495  0.1249 -0.0965  0.0618
  343loPI   PO4 5476  11.729   3.491   9.954 -0.0000 -0.0057  0.2367
  343loPI   GL1 5477  11.490   3.466   9.608  0.1761 -0.0956 -0.2570
  343loPI   GL2 5478  11.292   3.485   9.487 -0.1472  0.2683 -0.0825
  343loPI   C1A 5479  11.703   3.564   9.226 -0.2384 -0.1675 -0.1407
  343loPI   C2A 5480  11.583   3.580   8.778 -0.1830 -0.0304 -0.1062
  343loPI   C3A 5481  11.492   3.497   8.384  0.0631 -0.0870  0.2385
  343loPI   C4A 5482  11.508   3.441   8.003 -0.0273  0.0780 -0.2189
  343loPI   C5A 5483  11.404   3.107   7.718 -0.0547  0.0073 -0.1373
  343loPI   C6A 5484  11.447   2.737   7.884  0.0286 -0.1327  0.1397
  343loPI   C1B 5485  11.109   3.578   9.082 -0.2967  0.3920  0.1997
  343loPI   C2B 5486  11.078   3.581   8.683  0.0375  0.0300 -0.3724
  343loPI   C3B 5487  10.955   3.507   8.293  0.1770  0.3104 -0.0018
  343loPI   C4B 5488  10.811   3.673   7.878 -0.0327 -0.1429  0.0994
  344loPI    C1 5489   5.389   3.917  10.666 -0.1039 -0.1088 -0.0509
  344loPI    C2 5490   5.198   3.782  10.991  0.2225 -0.0846  0.1553
  344loPI    C3 5491   5.334   4.158  10.980  0.1747 -0.0716 -0.0281
  344loPI   PO4 5492   5.244   3.898  10.460 -0.0785 -0.1095  0.1516
  344loPI   GL1 5493   5.348   4.079  10.102  0.4136 -0.1317  0.2269
  344loPI   GL2 5494   5.077   3.873   9.987  0.1019  0.2137  0.0160
  344loPI   C1A 5495   5.408   4.321   9.675 -0.1075  0.5341  0.1342
  344loPI   C2A 5496   5.434   4.393   9.305 -0.0752 -0.0898  0.0230
  344loPI   C3A 5497   5.365   4.382   8.886 -0.0334 -0.1348  0.2385
  344loPI   C4A 5498   5.287   4.362   8.434 -0.0321  0.1112 -0.2310
  344loPI   C5A 5499   5.397   4.345   7.953 -0.0150 -0.1285  0.0005
  344loPI   C6A 5500   5.641   4.067   7.585 -0.0119 -0.1349  0.0048
  344loPI   C1B 5501   5.163   3.878   9.567  0.1366 -0.0101  0.2458
  344loPI   C2B 5502   5.158   3.855   9.123  0.1772  0.0214 -0.2126
  344loPI   C3B 5503   5.126   3.858   8.675  0.0380 -0.0033  0.1035
  344loPI   C4B 5504   5.201   3.921   8.148  0.2097  0.0360 -0.2524
  345loPI    C1 5505  16.584   6.674  10.681 -0.1342  0.0553 -0.1555
  345loPI    C2 5506  16.551   6.332  10.476 -0.0372 -0.0697  0.0345
  345loPI    C3 5507  16.759   6.341  10.817 -0.1717  0.1431  0.1127
  345loPI   PO4 5508  16.421   6.805  10.546 -0.1924  0.1269 -0.1088
  345loPI   GL1 5509  16.380   6.841  10.175 -0.2920 -0.0491  0.1045
  345loPI   GL2 5510  16.658   6.702  10.115  0.2515  0.1980  0.0847
  345loPI   C1A 5511  16.282   7.132   9.719  0.2133  0.0018 -0.1424
  345loPI   C2A 5512  16.297   7.201   9.370 -0.2838  0.0143 -0.1633
  345loPI   C3A 5513  16.258   7.141   8.985  0.2880  0.2006  0.0522
  345loPI   C4A 5514  16.405   7.139   8.541 -0.0993 -0.1201 -0.1873
  345loPI   C5A 5515  16.344   7.203   8.140  0.2944  0.1547 -0.1248
  345loPI   C6A 5516  16.438   6.845   7.785  0.0361  0.0263  0.4217
  345loPI   C1B 5517  16.545   6.657   9.693 -0.2379  0.0003  0.0731
  345loPI   C2B 5518  16.496   6.645   9.228  0.1401  0.2865 -0.0498
  345loPI   C3B 5519  16.532   6.733   8.813 -0.0674  0.0333 -0.0471
  345loPI   C4B 5520  16.615   6.701   8.340  0.1212  0.0185 -0.1301
  346loPI    C1 5521   4.238  15.969  10.645 -0.2418 -0.1224  0.1071
  346loPI    C2 5522   3.862  15.881  10.543 -0.2375 -0.1133  0.0834
  346loPI    C3 5523   4.033  15.698  10.855 -0.0426 -0.6028 -0.2982
  346loPI   PO4 5524   4.446  16.071  10.425  0.2797  0.1894  0.0723
  346loPI   GL1 5525   4.624  16.052   9.938  0.1854 -0.0227  0.3789
  346loPI   GL2 5526   4.736  16.299   9.921  0.2433  0.0157  0.4291
  346loPI   C1A 5527   4.457  16.035   9.545 -0.1019 -0.0652 -0.0086
  346loPI   C2A 5528   4.485  15.993   9.118 -0.1862  0.0983  0.0940
  346loPI   C3A 5529   4.427  15.910   8.704 -0.0823 -0.0748 -0.1397
  346loPI   C4A 5530   4.585  15.954   8.323  0.0398 -0.3749  0.1919
  346loPI   C5A 5531   4.671  16.125   7.806  0.0758 -0.1986  0.2204
  346loPI   C6A 5532   4.632  15.839   7.418  0.1530 -0.1413 -0.0960
  346loPI   C1B 5533   4.911  16.275   9.543 -0.0327  0.0511 -0.2613
  346loPI   C2B 5534   4.910  16.296   9.139  0.0515 -0.2038  0.0604
  346loPI   C3B 5535   4.963  16.283   8.698 -0.0234  0.2201  0.2030
  346loPI   C4B 5536   5.083  16.236   8.305  0.0293  0.1570 -0.0001
  347loPI    C1 5537   0.549  13.368  10.710  0.3398 -0.1012 -0.1278
  347loPI    C2 5538   0.845  13.104  10.759  0.3902  0.0071  0.1740
  347loPI    C3 5539   0.587  13.172  11.057  0.3367  0.2486  0.0749
  347loPI   PO4 5540   0.510  13.376  10.412  0.0789  0.2795  0.0255
  347loPI   GL1 5541   0.586  13.291  10.003 -0.1963 -0.2606 -0.1046
  347loPI   GL2 5542   0.887  13.438  10.007  0.3253 -0.0910 -0.1107
  347loPI   C1A 5543   0.615  13.015   9.566 -0.0522  0.1597  0.0052
  347loPI   C2A 5544   0.800  12.984   9.121 -0.1204  0.1878 -0.2860
  347loPI   C3A 5545   0.939  13.076   8.773 -0.0795 -0.0246 -0.0059
  347loPI   C4A 5546   0.929  13.154   8.372  0.3221  0.3221  0.0403
  347loPI   C5A 5547   0.933  13.341   7.927 -0.4685 -0.1494 -0.1114
  347loPI   C6A 5548   1.012  13.759   7.704 -0.2500  0.2659 -0.0383
  347loPI   C1B 5549   1.051  13.313   9.630  0.0199  0.2568  0.2332
  347loPI   C2B 5550   1.188  13.259   9.228 -0.0272  0.1576  0.1900
  347loPI   C3B 5551   1.222  13.458   8.878 -0.0823  0.0226  0.0435
  347loPI   C4B 5552   1.260  13.497   8.470 -0.1284 -0.1160  0.0292
  348loPI    C1 5553   5.853  14.376  10.709  0.0651 -0.0118  0.0805
  348loPI    C2 5554   5.982  14.372  11.087  0.0199  0.1375  0.0976
  348loPI    C3 5555   5.774  14.685  10.949  0.2905  0.2185 -0.1355
  348loPI   PO4 5556   6.078  14.273  10.554  0.2161 -0.1993 -0.0591
  348loPI   GL1 5557   6.250  14.240  10.186  0.1427  0.1429  0.1019
  348loPI   GL2 5558   6.128  13.894  10.229  0.6107  0.0265 -0.0213
  348loPI   C1A 5559   6.171  14.300   9.836 -0.0389  0.0855 -0.0846
  348loPI   C2A 5560   6.010  14.336   9.428 -0.0424 -0.1529 -0.0282
  348loPI   C3A 5561   6.125  14.376   9.030 -0.2931 -0.1723  0.0487
  348loPI   C4A 5562   6.121  14.332   8.587 -0.0755  0.1881 -0.0236
  348loPI   C5A 5563   6.264  14.544   8.214 -0.2064  0.0129 -0.2668
  348loPI   C6A 5564   6.668  14.811   8.215 -0.5073 -0.1743 -0.1888
  348loPI   C1B 5565   6.163  13.838   9.765  0.3277  0.0634 -0.1435
  348loPI   C2B 5566   6.140  13.781   9.274  0.0677 -0.0777  0.0775
  348loPI   C3B 5567   6.118  13.849   8.818  0.0048  0.0602 -0.2078
  348loPI   C4B 5568   6.252  13.850   8.440  0.1505 -0.2027  0.0345
  349loPI    C1 5569   4.555  17.662  10.738 -0.0909  0.1023  0.0420
  349loPI    C2 5570   4.514  17.361  10.998 -0.1756  0.0867  0.0111
  349loPI    C3 5571   4.426  17.734  11.110 -0.0874  0.0980  0.0440
  349loPI   PO4 5572   4.429  17.508  10.479 -0.1751 -0.2665 -0.0366
  349loPI   GL1 5573   4.475  17.651  10.119 -0.0672 -0.1849 -0.0275
  349loPI   GL2 5574   4.628  17.427   9.968 -0.0424  0.0356 -0.0272
  349loPI   C1A 5575   4.277  17.650   9.726 -0.4419 -0.4020  0.1410
  349loPI   C2A 5576   4.367  17.575   9.385  0.1816 -0.0763 -0.0007
  349loPI   C3A 5577   4.345  17.545   8.870 -0.0729  0.1237 -0.1299
  349loPI   C4A 5578   4.329  17.429   8.399  0.0749  0.2427 -0.1735
  349loPI   C5A 5579   4.466  17.561   8.021 -0.4412 -0.1859  0.0242
  349loPI   C6A 5580   4.774  17.412   7.717  0.1579 -0.3295 -0.1966
  349loPI   C1B 5581   4.818  17.412   9.472  0.1410  0.0746  0.1056
  349loPI   C2B 5582   4.778  17.290   8.972 -0.1814  0.0814 -0.1538
  349loPI   C3B 5583   4.781  17.314   8.513  0.2732 -0.0302 -0.2305
  349loPI   C4B 5584   4.939  17.230   8.174  0.2706  0.5243  0.0443
  350loPI    C1 5585   4.183   6.138  10.842 -0.0693  0.0531  0.1207
  350loPI    C2 5586   4.415   6.363  11.078  0.0307 -0.0808  0.1513
  350loPI    C3 5587   4.451   5.964  11.083  0.2030 -0.0759 -0.2646
  350loPI   PO4 5588   4.188   6.223  10.609  0.0175 -0.1023 -0.0892
  350loPI   GL1 5589   4.480   6.338  10.225 -0.1206 -0.0178 -0.0415
  350loPI   GL2 5590   4.561   6.041  10.151  0.0203 -0.0395 -0.1580
  350loPI   C1A 5591   4.403   6.620   9.932 -0.1114  0.0177  0.1376
  350loPI   C2A 5592   4.448   6.644   9.442  0.4133 -0.1895 -0.0683
  350loPI   C3A 5593   4.513   6.562   8.968  0.3195  0.0309  0.0959
  350loPI   C4A 5594   4.523   6.566   8.533  0.1700 -0.2099 -0.0637
  350loPI   C5A 5595   4.820   6.741   8.265  0.0454 -0.0178  0.1238
  350loPI   C6A 5596   4.985   7.195   8.239  0.2014 -0.2245  0.3986
  350loPI   C1B 5597   4.687   6.205   9.750 -0.4446 -0.1797  0.0802
  350loPI   C2B 5598   4.740   6.205   9.331 -0.2656 -0.0010  0.0146
  350loPI   C3B 5599   4.820   6.097   8.832 -0.1899  0.0308 -0.0365
  350loPI   C4B 5600   4.729   6.058   8.386  0.0239  0.0174  0.0626
  351loPI    C1 5601   5.767   7.271  11.218 -0.0596 -0.0175  0.1172
  351loPI    C2 5602   6.122   7.099  11.286 -0.0358 -0.0516 -0.0872
  351loPI    C3 5603   5.858   7.137  11.584  0.0850 -0.1508  0.0338
  351loPI   PO4 5604   5.733   7.279  10.892  0.1486  0.4643 -0.1817
  351loPI   GL1 5605   5.607   6.989  10.576  0.0385  0.3087 -0.1023
  351loPI   GL2 5606   5.367   7.252  10.525  0.1477  0.0674 -0.2211
  351loPI   C1A 5607   5.638   7.054  10.175  0.1669 -0.0126 -0.1094
  351loPI   C2A 5608   5.881   7.076   9.842 -0.0833  0.1904  0.1034
  351loPI   C3A 5609   5.891   7.107   9.332  0.1624 -0.0985  0.0265
  351loPI   C4A 5610   5.835   7.138   8.940 -0.1140  0.0879  0.2329
  351loPI   C5A 5611   5.879   6.905   8.515  0.1968  0.0477 -0.0782
  351loPI   C6A 5612   6.152   6.762   8.174 -0.2541 -0.0288  0.1736
  351loPI   C1B 5613   5.405   7.467  10.134 -0.0333  0.0531 -0.1769
  351loPI   C2B 5614   5.450   7.562   9.744  0.1244 -0.1233  0.0480
  351loPI   C3B 5615   5.564   7.505   9.299  0.0588 -0.2018  0.2710
  351loPI   C4B 5616   5.508   7.505   8.848 -0.1391  0.3288 -0.0264
  352loPI    C1 5617   7.184   9.978  11.135  0.0093 -0.0122  0.1048
  352loPI    C2 5618   7.551  10.073  11.263  0.0150  0.1374 -0.0194
  352loPI    C3 5619   7.238  10.105  11.510  0.0841  0.0145  0.0851
  352loPI   PO4 5620   7.081  10.084  10.925 -0.0781  0.0309  0.1264
  352loPI   GL1 5621   7.007   9.890  10.583  0.3485  0.1625  0.0567
  352loPI   GL2 5622   7.028  10.243  10.425  0.0702 -0.2343  0.1797
  352loPI   C1A 5623   6.745   9.839  10.204  0.1546 -0.0931  0.1319
  352loPI   C2A 5624   6.754   9.797   9.825 -0.1287 -0.0913  0.0423
  352loPI   C3A 5625   6.765   9.678   9.379 -0.1188 -0.0642 -0.1133
  352loPI   C4A 5626   6.681   9.799   8.936 -0.0165  0.2099 -0.1768
  352loPI   C5A 5627   6.938  10.148   8.553 -0.1362 -0.1237 -0.1206
  352loPI   C6A 5628   7.177  10.287   8.263 -0.0539  0.3518  0.3534
  352loPI   C1B 5629   7.040  10.158   9.980  0.0547 -0.1221 -0.0063
  352loPI   C2B 5630   6.938  10.187   9.558  0.1958  0.0722  0.4271
  352loPI   C3B 5631   6.966  10.168   9.050 -0.2506 -0.1464 -0.0758
  352loPI   C4B 5632   7.100  10.494   8.871 -0.0731 -0.1276  0.4112
  353loPI    C1 5633  12.952  10.036  10.890 -0.1582  0.3925 -0.0894
  353loPI    C2 5634  13.205   9.976  11.195 -0.1374  0.2701 -0.1301
  353loPI    C3 5635  12.859  10.168  11.256 -0.2347  0.0503  0.0181
  353loPI   PO4 5636  12.937   9.866  10.750  0.0361 -0.1065  0.2865
  353loPI   GL1 5637  13.083   9.965  10.347 -0.1015  0.1153  0.0034
  353loPI   GL2 5638  12.935  10.240  10.248  0.1490 -0.0593 -0.0323
  353loPI   C1A 5639  13.107   9.941   9.874  0.0467 -0.1002 -0.1492
  353loPI   C2A 5640  13.193   9.831   9.389 -0.0747 -0.0468  0.0398
  353loPI   C3A 5641  13.128   9.760   8.998 -0.0858 -0.0937 -0.2872
  353loPI   C4A 5642  13.140   9.763   8.638  0.1247 -0.0431  0.2510
  353loPI   C5A 5643  13.139   9.884   8.236 -0.0336  0.1229 -0.2357
  353loPI   C6A 5644  13.089  10.179   7.949 -0.0429  0.2081 -0.2308
  353loPI   C1B 5645  12.886  10.350   9.802 -0.0440 -0.0819 -0.1758
  353loPI   C2B 5646  12.923  10.280   9.434  0.0806 -0.0003 -0.0655
  353loPI   C3B 5647  12.972  10.219   9.016 -0.0692  0.2090  0.1238
  353loPI   C4B 5648  12.985  10.191   8.553 -0.1585  0.0803  0.0134
  354loPI    C1 5649   9.768   0.807  10.830 -0.3362 -0.0105  0.2004
  354loPI    C2 5650   9.870   1.163  10.680 -0.0675 -0.0293  0.3324
  354loPI    C3 5651   9.999   1.054  11.042 -0.2528 -0.2103  0.3462
  354loPI   PO4 5652   9.667   0.694  10.561 -0.0634  0.2000  0.0181
  354loPI   GL1 5653   9.654   0.534  10.106 -0.0248 -0.2994  0.0185
  354loPI   GL2 5654   9.711   0.801  10.012 -0.2506  0.0166  0.2140
  354loPI   C1A 5655   9.677   0.430   9.616  0.0738 -0.2665 -0.0396
  354loPI   C2A 5656   9.737   0.382   9.247 -0.0150  0.1609 -0.0526
  354loPI   C3A 5657   9.704   0.406   8.798  0.1819 -0.0259 -0.2134
  354loPI   C4A 5658   9.730   0.499   8.463  0.0098  0.0389  0.1880
  354loPI   C5A 5659   9.750   0.450   8.040 -0.5552 -0.0214 -0.1438
  354loPI   C6A 5660  10.015   0.665   7.783  0.1918  0.0852  0.0227
  354loPI   C1B 5661   9.628   0.938   9.526 -0.0965 -0.3678 -0.0687
  354loPI   C2B 5662   9.569   0.930   9.103 -0.2446  0.1038  0.0734
  354loPI   C3B 5663   9.676   0.957   8.649  0.2806  0.2452  0.1589
  354loPI   C4B 5664   9.736   0.929   8.143 -0.0854  0.0294 -0.3322
  355loPI    C1 5665  15.219  10.966  10.573  0.0338  0.0101  0.0460
  355loPI    C2 5666  15.018  10.753  10.845  0.0993 -0.1810 -0.0537
  355loPI    C3 5667  15.326  10.982  10.958  0.1502 -0.2891  0.0289
  355loPI   PO4 5668  15.040  11.108  10.356  0.0280  0.2039 -0.0141
  355loPI   GL1 5669  14.887  10.923   9.963  0.0592 -0.0465  0.1858
  355loPI   GL2 5670  14.633  11.135  10.016  0.0877 -0.2091  0.2574
  355loPI   C1A 5671  14.897  10.904   9.579 -0.2173 -0.1679  0.0589
  355loPI   C2A 5672  14.697  10.813   9.283  0.0684  0.3674 -0.0582
  355loPI   C3A 5673  14.755  10.786   8.901 -0.0237  0.1787 -0.3289
  355loPI   C4A 5674  14.674  10.822   8.474  0.0117 -0.2430 -0.2221
  355loPI   C5A 5675  14.850  10.943   8.097 -0.0992 -0.1652  0.1116
  355loPI   C6A 5676  14.903  10.705   7.766  0.1155  0.0701  0.3119
  355loPI   C1B 5677  14.512  11.229   9.604 -0.0128  0.0136  0.2001
  355loPI   C2B 5678  14.358  11.251   9.131 -0.0459  0.3786 -0.0274
  355loPI   C3B 5679  14.491  11.182   8.753  0.0552 -0.0570  0.2565
  355loPI   C4B 5680  14.469  11.223   8.332  0.2459  0.0487  0.0678
  356loPI    C1 5681  16.899   0.662  10.834  0.2569 -0.0215  0.0666
  356loPI    C2 5682  17.060   0.996  10.983 -0.0627  0.1311  0.0767
  356loPI    C3 5683  16.795   0.787  11.199  0.1491 -0.1415  0.0780
  356loPI   PO4 5684  16.845   0.721  10.554 -0.0886  0.0628  0.2395
  356loPI   GL1 5685  16.973   0.844  10.138 -0.2335 -0.0630  0.1032
  356loPI   GL2 5686  17.087   0.675   9.917  0.1548 -0.1166 -0.0274
  356loPI   C1A 5687  16.627   0.917   9.896  0.1474  0.0677  0.1878
  356loPI   C2A 5688  16.561   0.966   9.419  0.0603  0.2019 -0.1999
  356loPI   C3A 5689  16.538   0.920   8.945  0.1676  0.1180  0.0339
  356loPI   C4A 5690  16.500   0.900   8.540  0.0031 -0.0394 -0.0294
  356loPI   C5A 5691  16.787   0.982   8.084 -0.1385  0.1751  0.0069
  356loPI   C6A 5692  16.940   0.689   7.788  0.1009 -0.1341  0.0270
  356loPI   C1B 5693  16.984   0.701   9.518 -0.1262 -0.0269 -0.3648
  356loPI   C2B 5694  16.960   0.739   9.073  0.1386 -0.2011 -0.0661
  356loPI   C3B 5695  17.042   0.675   8.653  0.1458  0.0762 -0.3943
  356loPI   C4B 5696  17.147   0.669   8.253  0.1754  0.1550 -0.0641
  357loPI    C1 5697   9.465   9.757  11.036 -0.0760 -0.1979  0.0631
  357loPI    C2 5698   9.796   9.966  11.119 -0.2293  0.0652  0.0232
  357loPI    C3 5699   9.807   9.671  10.849 -0.0169  0.0402  0.0582
  357loPI   PO4 5700   9.265   9.861  10.880  0.2819  0.4210 -0.1668
  357loPI   GL1 5701   9.212   9.802  10.495  0.0925 -0.3655 -0.0958
  357loPI   GL2 5702   9.515   9.906  10.487 -0.0615  0.0974  0.2567
  357loPI   C1A 5703   9.061   9.782  10.116  0.1387 -0.0635 -0.4349
  357loPI   C2A 5704   8.974   9.798   9.716  0.0053 -0.2339 -0.0945
  357loPI   C3A 5705   8.970   9.838   9.252  0.0083  0.0504 -0.1140
  357loPI   C4A 5706   8.997   9.852   8.894 -0.0046 -0.0939 -0.1425
  357loPI   C5A 5707   9.093   9.843   8.388  0.2671  0.1230  0.1560
  357loPI   C6A 5708   8.967   9.830   7.886  0.0825 -0.1530  0.3378
  357loPI   C1B 5709   9.528   9.911  10.021  0.1115 -0.0446  0.0529
  357loPI   C2B 5710   9.454   9.887   9.543  0.1263  0.1095  0.2369
  357loPI   C3B 5711   9.544   9.805   9.159 -0.0096  0.0035 -0.1114
  357loPI   C4B 5712   9.487   9.846   8.760  0.0620  0.1115  0.2023
  358loPI    C1 5713  14.678   2.086  10.900  0.0897  0.1079 -0.1295
  358loPI    C2 5714  14.910   2.340  11.104  0.0443  0.0634 -0.0213
  358loPI    C3 5715  14.973   1.946  11.132 -0.1465  0.0427  0.1377
  358loPI   PO4 5716  14.679   2.136  10.717 -0.0277  0.2745  0.0160
  358loPI   GL1 5717  14.703   2.235  10.249  0.0317  0.0586 -0.1437
  358loPI   GL2 5718  15.107   2.097  10.211 -0.1663 -0.0776 -0.2897
  358loPI   C1A 5719  14.432   2.227   9.894  0.1328  0.1013 -0.0324
  358loPI   C2A 5720  14.526   2.131   9.483  0.0562  0.0721 -0.1005
  358loPI   C3A 5721  14.450   2.161   9.132  0.2574 -0.1197  0.0731
  358loPI   C4A 5722  14.536   2.099   8.729  0.1849  0.1227 -0.1505
  358loPI   C5A 5723  14.567   2.185   8.293  0.0228  0.1053 -0.1574
  358loPI   C6A 5724  14.462   2.574   8.013  0.3178 -0.2590  0.0849
  358loPI   C1B 5725  15.035   1.910   9.744  0.1330 -0.0165 -0.1721
  358loPI   C2B 5726  14.985   1.938   9.320 -0.2238  0.3363 -0.1032
  358loPI   C3B 5727  15.008   1.958   8.885  0.0775 -0.0217 -0.0329
  358loPI   C4B 5728  15.005   2.070   8.441 -0.0376 -0.4263 -0.0857
  359loPI    C1 5729   5.335  15.177  10.498  0.1210 -0.0678  0.0590
  359loPI    C2 5730   5.629  15.354  10.292 -0.1027  0.0047 -0.2048
  359loPI    C3 5731   5.477  15.532  10.616  0.1134 -0.0147 -0.0901
  359loPI   PO4 5732   5.177  15.092  10.378  0.0428  0.1116  0.1760
  359loPI   GL1 5733   5.028  15.020  10.065  0.0652 -0.3591  0.3806
  359loPI   GL2 5734   4.832  15.302  10.012  0.2266 -0.0230 -0.1683
  359loPI   C1A 5735   5.121  14.697   9.793  0.0239  0.0054  0.0869
  359loPI   C2A 5736   5.083  14.770   9.398  0.1312 -0.0154  0.1090
  359loPI   C3A 5737   5.087  14.780   8.987  0.2075  0.3212 -0.0913
  359loPI   C4A 5738   5.115  14.692   8.552 -0.0201 -0.2217 -0.0212
  359loPI   C5A 5739   5.266  14.656   8.188 -0.0477 -0.2396  0.0022
  359loPI   C6A 5740   5.519  14.486   7.818  0.2028  0.0784  0.2469
  359loPI   C1B 5741   4.605  15.513   9.676 -0.2845 -0.1089 -0.1941
  359loPI   C2B 5742   4.541  15.531   9.325  0.0880  0.0171 -0.3543
  359loPI   C3B 5743   4.508  15.479   8.945  0.1299 -0.1230 -0.0215
  359loPI   C4B 5744   4.585  15.456   8.475  0.1745 -0.0751 -0.2189
  360loPI    C1 5745   4.577  14.452  10.756 -0.0713  0.3341 -0.0346
  360loPI    C2 5746   4.926  14.502  10.945 -0.0406  0.0474 -0.0105
  360loPI    C3 5747   4.584  14.503  11.152 -0.0109 -0.2162  0.0436
  360loPI   PO4 5748   4.594  14.501  10.452  0.0169  0.1625  0.0358
  360loPI   GL1 5749   4.650  14.241  10.142 -0.3103 -0.2725  0.3503
  360loPI   GL2 5750   4.660  14.629   9.966 -0.1839 -0.1434  0.0320
  360loPI   C1A 5751   4.364  14.176   9.800 -0.0016 -0.0500  0.3665
  360loPI   C2A 5752   4.315  14.124   9.378  0.2902 -0.2025 -0.0329
  360loPI   C3A 5753   4.310  14.085   8.912  0.1271  0.2947 -0.1317
  360loPI   C4A 5754   4.354  14.109   8.463  0.0184 -0.1783  0.0587
  360loPI   C5A 5755   4.290  14.092   8.076 -0.1044  0.0896  0.2414
  360loPI   C6A 5756   4.273  13.945   7.673 -0.1671  0.0413 -0.1260
  360loPI   C1B 5757   4.727  14.435   9.626 -0.1315  0.0714 -0.4804
  360loPI   C2B 5758   4.713  14.416   9.188 -0.1583 -0.1664 -0.1731
  360loPI   C3B 5759   4.714  14.341   8.715 -0.0269 -0.0538  0.0024
  360loPI   C4B 5760   4.748  14.380   8.214 -0.2458 -0.0965  0.1733
  361loPI    C1 5761  17.436   2.968  10.341  0.0875  0.1464  0.0977
  361loPI    C2 5762  17.511   2.902  10.728  0.2929 -0.0300  0.0302
  361loPI    C3 5763  17.813   2.917  10.466  0.1367 -0.1508 -0.1593
  361loPI   PO4 5764  17.285   2.771  10.307 -0.4261 -0.1751 -0.0527
  361loPI   GL1 5765  17.198   2.500  10.017  0.1773 -0.2354 -0.0494
  361loPI   GL2 5766  17.385   2.600   9.858 -0.2114  0.3126  0.1833
  361loPI   C1A 5767  17.246   2.103   9.740  0.1106  0.1605 -0.2362
  361loPI   C2A 5768  17.373   1.971   9.298  0.3162 -0.0190  0.1187
  361loPI   C3A 5769  17.231   2.002   8.850 -0.0043  0.2698  0.0919
  361loPI   C4A 5770  17.342   1.999   8.415 -0.0264 -0.0265  0.1216
  361loPI   C5A 5771  17.402   1.763   7.978  0.2067 -0.0729  0.2080
  361loPI   C6A 5772  17.621   1.448   7.701 -0.0304 -0.0350  0.1552
  361loPI   C1B 5773  17.338   2.618   9.405  0.1332  0.2067 -0.2064
  361loPI   C2B 5774  17.346   2.559   8.941  0.0220 -0.0867 -0.1958
  361loPI   C3B 5775  17.185   2.466   8.503  0.2258 -0.3242  0.0710
  361loPI   C4B 5776  17.169   2.404   8.110  0.1450 -0.1456 -0.1503
  362loPI    C1 5777   3.116   9.381  10.604 -0.0484 -0.1820  0.1036
  362loPI    C2 5778   2.805   9.468  10.841  0.0150 -0.2032  0.1951
  362loPI    C3 5779   3.147   9.336  11.000  0.1280 -0.0188  0.1097
  362loPI   PO4 5780   3.030   9.329  10.333  0.1540 -0.3967  0.1336
  362loPI   GL1 5781   2.845   9.421  10.016 -0.0892  0.0538 -0.3210
  362loPI   GL2 5782   2.664   9.581   9.964  0.0709  0.0993 -0.0105
  362loPI   C1A 5783   2.865   9.306   9.561 -0.0979 -0.3162 -0.1179
  362loPI   C2A 5784   2.858   9.268   9.145  0.2118  0.0648 -0.1243
  362loPI   C3A 5785   3.023   9.275   8.848 -0.2836 -0.2738  0.0455
  362loPI   C4A 5786   3.008   9.185   8.428 -0.1397 -0.2179 -0.0190
  362loPI   C5A 5787   3.116   9.390   8.111  0.1343 -0.3333  0.0423
  362loPI   C6A 5788   3.081   9.868   7.968 -0.0094  0.0990  0.3273
  362loPI   C1B 5789   2.504   9.753   9.662  0.2871  0.1011 -0.1685
  362loPI   C2B 5790   2.201   9.786   9.424  0.1434 -0.0891  0.2358
  362loPI   C3B 5791   2.239   9.794   9.008  0.0008  0.1043 -0.0960
  362loPI   C4B 5792   2.224   9.815   8.578  0.0389 -0.1201  0.0018
  363loPI    C1 5793   6.787  12.426  10.982 -0.1334 -0.2738 -0.0171
  363loPI    C2 5794   6.506  12.708  11.024 -0.0703 -0.1491 -0.3932
  363loPI    C3 5795   6.608  12.479  11.336 -0.2689  0.1042 -0.1367
  363loPI   PO4 5796   6.698  12.314  10.720 -0.0640  0.0357  0.0107
  363loPI   GL1 5797   6.689  12.370  10.217 -0.1609  0.0351 -0.3148
  363loPI   GL2 5798   6.921  12.559  10.036  0.1453  0.2870 -0.0291
  363loPI   C1A 5799   6.899  12.041   9.896  0.0478 -0.1574  0.0726
  363loPI   C2A 5800   6.915  12.045   9.383  0.0789 -0.1451 -0.1702
  363loPI   C3A 5801   6.872  12.095   8.969  0.1461  0.2248  0.2098
  363loPI   C4A 5802   6.813  12.100   8.537  0.4544  0.1080  0.0589
  363loPI   C5A 5803   6.777  12.232   8.103  0.2711 -0.1484  0.0256
  363loPI   C6A 5804   6.760  12.277   7.592 -0.1995  0.0267 -0.0611
  363loPI   C1B 5805   6.818  12.498   9.709 -0.0497 -0.1727  0.1633
  363loPI   C2B 5806   6.746  12.541   9.288 -0.0802  0.2072 -0.1379
  363loPI   C3B 5807   6.860  12.608   8.900  0.0451  0.1355  0.1511
  363loPI   C4B 5808   6.749  12.625   8.387 -0.0856  0.1334 -0.2504
  364loPI    C1 5809   1.081   3.949  10.290  0.1281 -0.0666  0.3185
  364loPI    C2 5810   1.279   3.663  10.092  0.0055  0.0180  0.0704
  364loPI    C3 5811   1.081   3.573  10.427 -0.0364 -0.1899 -0.0084
  364loPI   PO4 5812   0.912   4.008  10.075 -0.3058 -0.0688  0.0478
  364loPI   GL1 5813   1.104   4.009   9.720  0.0954 -0.0138 -0.1289
  364loPI   GL2 5814   1.039   4.356   9.695 -0.0055 -0.1298  0.3314
  364loPI   C1A 5815   0.789   3.922   9.388  0.3567  0.2212  0.0488
  364loPI   C2A 5816   0.758   4.058   9.009 -0.1830  0.0853  0.3780
  364loPI   C3A 5817   0.719   4.125   8.593 -0.1541 -0.2121 -0.1857
  364loPI   C4A 5818   0.730   4.063   8.171 -0.2836 -0.0229  0.0816
  364loPI   C5A 5819   0.747   4.026   7.769  0.2414 -0.0616 -0.3356
  364loPI   C6A 5820   1.079   4.215   7.606  0.3744  0.1810 -0.0377
  364loPI   C1B 5821   0.943   4.434   9.233 -0.5757 -0.2055 -0.0580
  364loPI   C2B 5822   0.969   4.498   8.865  0.1406 -0.1133  0.1802
  364loPI   C3B 5823   1.032   4.464   8.476  0.4150 -0.4214 -0.1463
  364loPI   C4B 5824   0.964   4.438   8.048  0.2503  0.0760  0.1981
  365loPI    C1 5825  12.727   4.175  10.538 -0.0383  0.1933 -0.0868
  365loPI    C2 5826  12.384   4.251  10.730  0.0019  0.0398  0.0472
  365loPI    C3 5827  12.608   3.936  10.836  0.1161  0.0598 -0.1308
  365loPI   PO4 5828  12.645   4.194  10.300 -0.2454  0.2848 -0.0243
  365loPI   GL1 5829  12.606   4.220   9.851 -0.0563 -0.2372  0.1485
  365loPI   GL2 5830  12.598   4.525   9.858 -0.2069 -0.1990 -0.0182
  365loPI   C1A 5831  12.763   4.033   9.488 -0.1655  0.0157 -0.0143
  365loPI   C2A 5832  12.752   3.967   9.046  0.0807 -0.2791 -0.0250
  365loPI   C3A 5833  12.780   3.943   8.610  0.1568 -0.1547  0.5074
  365loPI   C4A 5834  12.860   3.781   8.220  0.4508 -0.1081 -0.1454
  365loPI   C5A 5835  13.180   3.602   8.012  0.0667  0.1633  0.2709
  365loPI   C6A 5836  13.399   3.242   7.815 -0.1321  0.0453 -0.1022
  365loPI   C1B 5837  12.766   4.522   9.343  0.0486  0.1193  0.1577
  365loPI   C2B 5838  12.719   4.443   8.921 -0.3312 -0.0738  0.1108
  365loPI   C3B 5839  12.592   4.371   8.591 -0.0380  0.2817 -0.1601
  365loPI   C4B 5840  12.683   4.248   8.206  0.0971  0.2217  0.0646
  366loPI    C1 5841   7.331   5.574  10.675  0.0459  0.1747 -0.1564
  366loPI    C2 5842   7.141   5.814  10.933 -0.1603  0.1184 -0.2538
  366loPI    C3 5843   7.479   5.630  11.043 -0.1548  0.2284 -0.0825
  366loPI   PO4 5844   7.116   5.464  10.546 -0.1870 -0.0805 -0.2026
  366loPI   GL1 5845   6.872   5.597  10.228  0.1869 -0.3992 -0.1177
  366loPI   GL2 5846   6.523   5.794  10.325 -0.0399  0.0712  0.3317
  366loPI   C1A 5847   6.993   5.681   9.788  0.0311 -0.2035 -0.4279
  366loPI   C2A 5848   7.192   5.764   9.298 -0.2126 -0.1667 -0.1855
  366loPI   C3A 5849   7.187   5.722   8.872 -0.0667  0.0934 -0.2142
  366loPI   C4A 5850   7.115   5.733   8.414 -0.1409  0.0912 -0.0316
  366loPI   C5A 5851   6.698   5.608   8.284 -0.1094 -0.2020 -0.1152
  366loPI   C6A 5852   6.376   5.295   8.155  0.1707  0.4187 -0.7941
  366loPI   C1B 5853   6.559   5.807   9.889 -0.1832 -0.0148  0.1911
  366loPI   C2B 5854   6.675   5.766   9.385 -0.0056 -0.1379  0.1278
  366loPI   C3B 5855   6.734   5.799   8.948 -0.0721 -0.1889  0.0507
  366loPI   C4B 5856   6.606   6.042   8.509  0.0493  0.2979 -0.0835
  367loPI    C1 5857   8.238   4.060  10.277 -0.1267  0.2217 -0.1687
  367loPI    C2 5858   7.995   3.758  10.375 -0.1980  0.2674 -0.2039
  367loPI    C3 5859   8.043   4.065  10.626 -0.0637  0.1891 -0.1329
  367loPI   PO4 5860   8.230   4.093  10.091  0.2153 -0.2368 -0.0016
  367loPI   GL1 5861   7.969   4.323   9.836  0.2044 -0.2275 -0.1784
  367loPI   GL2 5862   7.607   4.285   9.918 -0.2351  0.0208 -0.5254
  367loPI   C1A 5863   7.962   4.521   9.436 -0.1201  0.0851  0.2803
  367loPI   C2A 5864   8.040   4.492   9.031  0.2994 -0.0824  0.1435
  367loPI   C3A 5865   8.004   4.406   8.561 -0.0022 -0.0422  0.0161
  367loPI   C4A 5866   7.971   4.395   8.155  0.0843 -0.0511 -0.1572
  367loPI   C5A 5867   7.730   4.399   7.739 -0.2445  0.0452 -0.0997
  367loPI   C6A 5868   7.482   4.199   7.374  0.2219 -0.0378 -0.2854
  367loPI   C1B 5869   7.542   4.328   9.484 -0.2608 -0.2504  0.0305
  367loPI   C2B 5870   7.472   4.411   9.109 -0.0831 -0.0626  0.1049
  367loPI   C3B 5871   7.561   4.443   8.762  0.1655  0.1435  0.0465
  367loPI   C4B 5872   7.474   4.383   8.343  0.1132  0.0042  0.3581
  368loPI    C1 5873  10.482   2.521  10.354 -0.0599 -0.0746  0.0090
  368loPI    C2 5874  10.140   2.539  10.561 -0.0471 -0.1150  0.0339
  368loPI    C3 5875  10.488   2.495  10.753 -0.0122  0.0881  0.0197
  368loPI   PO4 5876  10.396   2.368  10.117 -0.0123 -0.1359  0.0694
  368loPI   GL1 5877  10.461   1.962   9.902  0.0129 -0.0272 -0.0440
  368loPI   GL2 5878  10.145   2.073   9.733 -0.0170 -0.0873 -0.1767
  368loPI   C1A 5879  10.517   1.755   9.549  0.1266  0.1584 -0.0664
  368loPI   C2A 5880  10.503   1.694   9.134  0.1323 -0.0311  0.0298
  368loPI   C3A 5881  10.498   1.585   8.633 -0.2611  0.0873  0.1174
  368loPI   C4A 5882  10.629   1.545   8.301  0.0560  0.1256  0.0221
  368loPI   C5A 5883  10.575   1.612   7.822  0.0597 -0.1855 -0.0989
  368loPI   C6A 5884  10.657   1.730   7.328  0.2171 -0.2774  0.3898
  368loPI   C1B 5885  10.035   1.792   9.502 -0.2214  0.0462 -0.0008
  368loPI   C2B 5886  10.056   1.900   9.037 -0.2222  0.0445 -0.1547
  368loPI   C3B 5887  10.053   1.779   8.585 -0.1481  0.0035  0.0023
  368loPI   C4B 5888  10.101   1.742   8.093  0.2378  0.1538 -0.0022
  369loPI    C1 5889   6.926  13.296  10.807  0.0031  0.0912  0.0521
  369loPI    C2 5890   6.622  13.248  11.062  0.0048  0.0005  0.0375
  369loPI    C3 5891   6.939  13.468  11.168 -0.0565  0.0781  0.0606
  369loPI   PO4 5892   6.764  13.348  10.548 -0.3836  0.1530  0.0704
  369loPI   GL1 5893   6.790  13.607  10.248  0.2649  0.1788 -0.0911
  369loPI   GL2 5894   7.145  13.573  10.234  0.0438 -0.1427  0.0926
  369loPI   C1A 5895   6.599  13.533   9.939 -0.1685  0.3011  0.4448
  369loPI   C2A 5896   6.669  13.665   9.508 -0.0847 -0.2441  0.1104
  369loPI   C3A 5897   6.714  13.635   8.991  0.0251 -0.0336  0.1484
  369loPI   C4A 5898   6.704  13.671   8.472  0.0265 -0.1630 -0.0189
  369loPI   C5A 5899   6.404  13.541   8.138 -0.1007 -0.1042  0.0027
  369loPI   C6A 5900   6.167  13.480   7.834  0.3129  0.1660  0.2126
  369loPI   C1B 5901   7.103  13.384   9.814  0.0899 -0.0500  0.3161
  369loPI   C2B 5902   7.125  13.486   9.436  0.1785 -0.1279  0.2706
  369loPI   C3B 5903   7.177  13.472   9.068  0.2585 -0.1980  0.1107
  369loPI   C4B 5904   7.226  13.426   8.565  0.3081 -0.1461  0.3692
  370loPI    C1 5905  11.696  10.086  11.031  0.1110 -0.0619 -0.1199
  370loPI    C2 5906  12.031  10.124  11.248  0.1952 -0.2699 -0.2102
  370loPI    C3 5907  11.678  10.228  11.405  0.2917 -0.1271 -0.0850
  370loPI   PO4 5908  11.689  10.023  10.792  0.0530 -0.0316 -0.1657
  370loPI   GL1 5909  11.606  10.057  10.480  0.2176 -0.0079  0.1086
  370loPI   GL2 5910  11.516   9.802  10.254  0.0658 -0.0306 -0.1223
  370loPI   C1A 5911  11.795  10.204  10.069  0.0457 -0.1386 -0.1264
  370loPI   C2A 5912  11.816  10.258   9.582 -0.0791  0.1972 -0.0393
  370loPI   C3A 5913  11.941  10.316   9.129 -0.0898  0.2706 -0.2770
  370loPI   C4A 5914  12.011  10.267   8.721 -0.3210 -0.1860  0.0833
  370loPI   C5A 5915  12.008  10.222   8.281 -0.2550 -0.2438 -0.0738
  370loPI   C6A 5916  11.621  10.040   7.982  0.1419 -0.0431  0.1476
  370loPI   C1B 5917  11.583   9.784   9.783  0.0786 -0.1609 -0.0722
  370loPI   C2B 5918  11.629   9.870   9.345 -0.0850 -0.0851 -0.0151
  370loPI   C3B 5919  11.632   9.773   8.847 -0.2324  0.2196  0.0994
  370loPI   C4B 5920  11.743   9.912   8.499 -0.3122  0.0520  0.1611
  371loPI    C1 5921   1.228   2.242  10.168  0.1879 -0.0378 -0.0225
  371loPI    C2 5922   1.088   1.904  10.004 -0.0200 -0.0037  0.0812
  371loPI    C3 5923   1.320   1.888  10.330  0.2897 -0.0648 -0.1377
  371loPI   PO4 5924   1.256   2.388   9.951 -0.0627 -0.1257  0.2181
  371loPI   GL1 5925   1.098   2.271   9.533 -0.0071 -0.1839 -0.1163
  371loPI   GL2 5926   0.759   2.097   9.579  0.2394 -0.2085 -0.2511
  371loPI   C1A 5927   1.151   2.405   9.060 -0.2161  0.1500 -0.3763
  371loPI   C2A 5928   1.168   2.452   8.594 -0.2706 -0.0326  0.0488
  371loPI   C3A 5929   1.108   2.600   8.211 -0.0225  0.2457 -0.4074
  371loPI   C4A 5930   0.760   2.729   7.968  0.3414 -0.4046 -0.1495
  371loPI   C5A 5931   0.570   2.940   7.641  0.0669 -0.1875  0.2017
  371loPI   C6A 5932   0.568   3.241   7.388 -0.2376 -0.2354  0.1972
  371loPI   C1B 5933   0.767   2.122   9.106  0.0343  0.3003  0.1377
  371loPI   C2B 5934   0.838   2.103   8.710 -0.1051 -0.1853  0.0544
  371loPI   C3B 5935   0.731   2.220   8.353 -0.0882 -0.0856  0.2144
  371loPI   C4B 5936   0.871   2.234   7.965  0.2897 -0.1372  0.0627
  372loPI    C1 5937   2.667  13.416  10.587 -0.1973 -0.0806 -0.0298
  372loPI    C2 5938   2.649  13.664  10.901  0.1971  0.0794 -0.1281
  372loPI    C3 5939   2.460  13.312  10.913  0.2455  0.0636  0.3072
  372loPI   PO4 5940   2.960  13.469  10.515  0.0533 -0.1585 -0.1052
  372loPI   GL1 5941   3.048  13.246  10.114  0.0890  0.1827  0.2507
  372loPI   GL2 5942   2.763  13.343  10.068 -0.0702 -0.2440  0.0994
  372loPI   C1A 5943   3.166  13.091   9.736 -0.0947  0.1092  0.0343
  372loPI   C2A 5944   3.057  13.163   9.271  0.0796 -0.2472 -0.0666
  372loPI   C3A 5945   3.128  13.121   8.847 -0.1706 -0.0313  0.0926
  372loPI   C4A 5946   3.173  13.179   8.398 -0.0864 -0.2316  0.1289
  372loPI   C5A 5947   3.270  13.532   8.114  0.3547  0.2373 -0.3303
  372loPI   C6A 5948   3.602  13.693   7.838  0.2207 -0.3243  0.1461
  372loPI   C1B 5949   2.695  13.371   9.591 -0.2581  0.5196  0.4737
  372loPI   C2B 5950   2.593  13.370   9.107 -0.1003 -0.0978 -0.2624
  372loPI   C3B 5951   2.685  13.381   8.698 -0.2041  0.1167 -0.2786
  372loPI   C4B 5952   2.811  13.522   8.249 -0.0149 -0.2037 -0.0588
  373loPI    C1 5953   1.495  10.966  10.632 -0.0325 -0.3780 -0.3485
  373loPI    C2 5954   1.450  10.717  10.942  0.0496 -0.0904 -0.1002
  373loPI    C3 5955   1.129  10.848  10.741 -0.0196 -0.1241 -0.0123
  373loPI   PO4 5956   1.603  10.834  10.414  0.3442 -0.1253  0.2301
  373loPI   GL1 5957   1.672  10.941  10.050 -0.1383 -0.2889  0.1424
  373loPI   GL2 5958   1.714  11.265   9.996 -0.1474 -0.0952 -0.1564
  373loPI   C1A 5959   1.721  10.809   9.620  0.0826 -0.0257 -0.2214
  373loPI   C2A 5960   1.701  10.872   9.223  0.4131  0.2731 -0.0042
  373loPI   C3A 5961   1.771  10.712   8.829 -0.1126 -0.2332 -0.1548
  373loPI   C4A 5962   1.715  10.661   8.374 -0.3529  0.3141 -0.3751
  373loPI   C5A 5963   1.729  10.629   8.016  0.1343 -0.1589  0.2122
  373loPI   C6A 5964   1.548  10.643   7.616  0.2033 -0.1883 -0.1160
  373loPI   C1B 5965   1.689  11.262   9.576  0.2290  0.1064 -0.0251
  373loPI   C2B 5966   1.534  11.350   9.212 -0.0062  0.0086  0.1812
  373loPI   C3B 5967   1.540  11.379   8.794 -0.2301 -0.0620 -0.1720
  373loPI   C4B 5968   1.489  11.345   8.282 -0.1867 -0.1415 -0.0191
  374loPI    C1 5969  15.574  11.894  10.358  0.0639 -0.0960  0.1770
  374loPI    C2 5970  15.193  12.014  10.348  0.0187 -0.2439  0.0853
  374loPI    C3 5971  15.362  11.913  10.696  0.1137  0.2569  0.1917
  374loPI   PO4 5972  15.591  11.680  10.212 -0.3252  0.0367  0.0856
  374loPI   GL1 5973  15.685  11.678   9.803  0.0847 -0.1293  0.0928
  374loPI   GL2 5974  15.368  11.833   9.798  0.0787 -0.0181 -0.4504
  374loPI   C1A 5975  15.861  11.542   9.419  0.0024  0.2297 -0.2199
  374loPI   C2A 5976  15.865  11.431   8.953 -0.0483 -0.1387 -0.2051
  374loPI   C3A 5977  15.843  11.474   8.535 -0.0354  0.1343 -0.2384
  374loPI   C4A 5978  15.944  11.445   8.056  0.0362 -0.0960  0.3836
  374loPI   C5A 5979  15.812  11.196   7.751  0.0930  0.1888  0.1607
  374loPI   C6A 5980  15.817  10.865   7.586  0.1370 -0.2096 -0.1539
  374loPI   C1B 5981  15.401  11.773   9.385 -0.1950  0.2956  0.0846
  374loPI   C2B 5982  15.430  11.671   8.939  0.2339  0.2022 -0.1329
  374loPI   C3B 5983  15.357  11.576   8.618  0.0914  0.2423 -0.0727
  374loPI   C4B 5984  15.506  11.636   8.212  0.1705  0.2490  0.1866
  375loPI    C1 5985   9.827   6.677  10.624  0.0057  0.1281  0.3310
  375loPI    C2 5986   9.466   6.756  10.775 -0.0616 -0.0484  0.2641
  375loPI    C3 5987   9.586   6.937  10.440 -0.2772 -0.3358  0.0254
  375loPI   PO4 5988   9.784   6.394  10.563 -0.0000  0.1766  0.1547
  375loPI   GL1 5989   9.904   6.299  10.186 -0.2657  0.1942  0.2307
  375loPI   GL2 5990  10.152   6.282  10.007 -0.0443  0.2511  0.0755
  375loPI   C1A 5991   9.650   6.208   9.864 -0.2199  0.0717 -0.3616
  375loPI   C2A 5992   9.591   6.209   9.408  0.0413 -0.3058 -0.0037
  375loPI   C3A 5993   9.610   6.254   9.008  0.0914 -0.0194  0.0863
  375loPI   C4A 5994   9.533   6.208   8.577  0.2924  0.0320  0.1708
  375loPI   C5A 5995   9.605   6.503   8.153 -0.0922  0.1118 -0.2747
  375loPI   C6A 5996   9.856   6.888   8.040 -0.3748  0.2058  0.0425
  375loPI   C1B 5997  10.050   6.197   9.573  0.0302 -0.2758  0.0623
  375loPI   C2B 5998  10.122   6.207   9.183  0.1337  0.0197  0.1932
  375loPI   C3B 5999  10.006   6.370   8.682  0.2385  0.2124 -0.1812
  375loPI   C4B 6000  10.092   6.371   8.184 -0.0719  0.0293 -0.2857
  376loPI    C1 6001   4.128  14.325  10.749  0.0504  0.1200 -0.0504
  376loPI    C2 6002   3.843  14.317  11.029  0.1002 -0.1046 -0.0038
  376loPI    C3 6003   4.088  14.632  11.002 -0.0305  0.0054  0.0773
  376loPI   PO4 6004   4.021  14.304  10.551 -0.1207  0.4029 -0.1453
  376loPI   GL1 6005   4.131  14.485  10.100  0.3855  0.3136  0.1280
  376loPI   GL2 6006   3.811  14.366  10.110  0.0637 -0.1013  0.1425
  376loPI   C1A 6007   4.221  14.755   9.767 -0.2108 -0.0169 -0.0040
  376loPI   C2A 6008   4.225  14.609   9.318 -0.2088 -0.0563 -0.0898
  376loPI   C3A 6009   4.198  14.628   8.929  0.3218 -0.3162 -0.0812
  376loPI   C4A 6010   4.286  14.585   8.395 -0.1284  0.2209  0.0015
  376loPI   C5A 6011   4.392  14.682   8.015  0.2329 -0.0862 -0.0944
  376loPI   C6A 6012   4.471  14.394   7.726  0.0097 -0.0689 -0.0616
  376loPI   C1B 6013   3.911  14.342   9.596  0.2287 -0.3553 -0.0540
  376loPI   C2B 6014   3.826  14.325   9.099 -0.2147 -0.0550  0.1864
  376loPI   C3B 6015   3.857  14.255   8.647 -0.2145 -0.0651  0.0988
  376loPI   C4B 6016   3.854  14.230   8.149  0.2257  0.0266  0.0212
  377loPI    C1 6017  14.007   6.669  10.658 -0.1914  0.1770 -0.1560
  377loPI    C2 6018  14.108   6.799  11.022  0.1434  0.0409 -0.1973
  377loPI    C3 6019  14.067   6.407  10.954 -0.2507  0.0831 -0.2263
  377loPI   PO4 6020  14.195   6.738  10.366 -0.0160 -0.0296  0.0311
  377loPI   GL1 6021  14.143   6.960   9.991 -0.0984 -0.2972  0.4343
  377loPI   GL2 6022  14.020   6.791   9.808  0.0981  0.0095 -0.0635
  377loPI   C1A 6023  14.258   7.136   9.536  0.2567  0.0120  0.0562
  377loPI   C2A 6024  14.100   7.134   9.108 -0.1885 -0.1435 -0.2028
  377loPI   C3A 6025  14.236   7.206   8.731  0.2099 -0.1926 -0.4028
  377loPI   C4A 6026  14.150   7.321   8.297 -0.0078 -0.2543 -0.0048
  377loPI   C5A 6027  13.985   7.599   8.001 -0.2291 -0.0654  0.2437
  377loPI   C6A 6028  13.664   7.760   7.759 -0.1182 -0.0789 -0.1370
  377loPI   C1B 6029  14.007   6.729   9.372 -0.1534 -0.1549  0.2311
  377loPI   C2B 6030  13.850   6.714   8.876 -0.0581  0.3213 -0.0716
  377loPI   C3B 6031  14.039   6.828   8.518 -0.0148 -0.1978  0.1282
  377loPI   C4B 6032  14.186   6.864   8.081 -0.1549 -0.2089 -0.0050
  378loPI    C1 6033  14.626  15.979  10.976  0.0690 -0.0163  0.2387
  378loPI    C2 6034  14.636  15.585  11.041 -0.0725 -0.0669 -0.0299
  378loPI    C3 6035  14.844  15.832  11.277 -0.0605 -0.2929  0.2005
  378loPI   PO4 6036  14.407  15.987  10.765 -0.3336  0.2278 -0.0459
  378loPI   GL1 6037  14.313  15.791  10.320 -0.1507 -0.1500 -0.0542
  378loPI   GL2 6038  14.556  15.657  10.370  0.0763  0.1096  0.0647
  378loPI   C1A 6039  14.199  15.821   9.953  0.0140  0.1668 -0.0280
  378loPI   C2A 6040  14.166  15.844   9.503  0.3743  0.1134  0.2585
  378loPI   C3A 6041  14.196  15.803   9.027  0.1191 -0.0292 -0.1036
  378loPI   C4A 6042  14.132  15.779   8.574  0.0139 -0.1615 -0.0271
  378loPI   C5A 6043  14.476  15.995   8.346 -0.0828  0.0932 -0.0368
  378loPI   C6A 6044  14.591  16.450   8.269  0.0848  0.1697 -0.1418
  378loPI   C1B 6045  14.674  15.575   9.853 -0.2996 -0.1485 -0.0075
  378loPI   C2B 6046  14.577  15.614   9.520 -0.0298  0.0117  0.2925
  378loPI   C3B 6047  14.672  15.621   9.063  0.0337 -0.1765  0.1860
  378loPI   C4B 6048  14.628  15.566   8.602 -0.0654 -0.1124 -0.0708
  379loPI    C1 6049   6.298   6.028  10.813  0.1143  0.2018 -0.0165
  379loPI    C2 6050   6.219   5.972  11.202 -0.1964 -0.0544 -0.1123
  379loPI    C3 6051   6.111   6.313  11.023 -0.0987  0.0431  0.0135
  379loPI   PO4 6052   6.181   5.694  10.746 -0.1230  0.0870 -0.2112
  379loPI   GL1 6053   5.855   5.555  10.441 -0.3411  0.2766 -0.0887
  379loPI   GL2 6054   6.217   5.353  10.366 -0.2371 -0.4065  0.1032
  379loPI   C1A 6055   6.056   5.750  10.026 -0.4593  0.0903  0.1260
  379loPI   C2A 6056   6.186   5.775   9.584  0.1928  0.0654  0.1217
  379loPI   C3A 6057   6.212   5.824   9.163 -0.1606  0.3686 -0.0720
  379loPI   C4A 6058   6.181   5.757   8.688  0.2128 -0.1390 -0.3306
  379loPI   C5A 6059   6.182   5.835   8.214  0.1891  0.0760 -0.0151
  379loPI   C6A 6060   6.508   5.837   7.887  0.2457  0.1393 -0.1210
  379loPI   C1B 6061   6.467   5.305   9.982  0.1196 -0.3860  0.1042
  379loPI   C2B 6062   6.525   5.279   9.633 -0.2530  0.0233  0.1649
  379loPI   C3B 6063   6.462   5.401   9.166 -0.1598 -0.2080 -0.0949
  379loPI   C4B 6064   6.485   5.304   8.720  0.0203  0.0678 -0.0732
  380loPI    C1 6065   6.914  17.058  10.502  0.1290 -0.2769 -0.0474
  380loPI    C2 6066   7.127  16.734  10.403  0.3671 -0.0988 -0.1304
  380loPI    C3 6067   7.233  16.953  10.720  0.1155 -0.1854  0.0169
  380loPI   PO4 6068   6.881  17.129  10.205 -0.1523  0.1298 -0.1047
  380loPI   GL1 6069   7.008  16.856   9.929  0.0472 -0.0978 -0.1107
  380loPI   GL2 6070   7.223  16.877   9.782  0.0155  0.0425 -0.1775
  380loPI   C1A 6071   6.836  17.037   9.534 -0.2792  0.1734 -0.0403
  380loPI   C2A 6072   6.830  17.029   9.151 -0.0793 -0.3959  0.0330
  380loPI   C3A 6073   6.659  16.998   8.680 -0.2461  0.0352 -0.1633
  380loPI   C4A 6074   6.700  16.960   8.360 -0.3153  0.1903  0.2839
  380loPI   C5A 6075   6.709  16.863   7.955  0.4310  0.0092  0.1333
  380loPI   C6A 6076   7.155  16.926   7.675  0.0458  0.0909 -0.0034
  380loPI   C1B 6077   7.261  16.818   9.363  0.1158 -0.0991  0.0499
  380loPI   C2B 6078   7.288  16.759   9.010  0.2211  0.0233  0.1274
  380loPI   C3B 6079   7.234  16.874   8.602 -0.3970 -0.2079  0.1729
  380loPI   C4B 6080   7.220  16.773   8.178 -0.1725  0.1938 -0.0929
  381loPI    C1 6081  10.960  14.095  11.034  0.0934  0.1086  0.0258
  381loPI    C2 6082  10.590  13.944  11.050  0.0727  0.1474 -0.0824
  381loPI    C3 6083  10.804  13.986  11.386  0.0955 -0.1634 -0.0551
  381loPI   PO4 6084  11.008  14.080  10.772 -0.0982 -0.0095 -0.0160
  381loPI   GL1 6085  11.061  14.202  10.349 -0.3037 -0.1053 -0.0171
  381loPI   GL2 6086  10.789  14.322  10.281 -0.0563 -0.0114 -0.0034
  381loPI   C1A 6087  11.102  14.186   9.903 -0.0631 -0.1613  0.2022
  381loPI   C2A 6088  11.120  14.326   9.440 -0.2304 -0.2221 -0.2463
  381loPI   C3A 6089  11.124  14.277   8.959 -0.0439 -0.0275 -0.0730
  381loPI   C4A 6090  11.218  14.274   8.541 -0.1262  0.0353  0.2514
  381loPI   C5A 6091  11.105  14.216   8.118  0.0907  0.1090 -0.1267
  381loPI   C6A 6092  11.450  14.229   7.784  0.1142 -0.0406 -0.0096
  381loPI   C1B 6093  10.690  14.450   9.950  0.2716 -0.2589 -0.0270
  381loPI   C2B 6094  10.676  14.472   9.569 -0.3429 -0.2171  0.6065
  381loPI   C3B 6095  10.687  14.426   9.144 -0.1561 -0.2357  0.0295
  381loPI   C4B 6096  10.765  14.435   8.691  0.0668 -0.1531  0.3146
  382loPI    C1 6097   7.319  10.945  10.969  0.1979 -0.0874 -0.1556
  382loPI    C2 6098   7.462  11.291  11.110 -0.1454  0.0142 -0.0462
  382loPI    C3 6099   7.462  10.966  11.342 -0.1721  0.0357 -0.0158
  382loPI   PO4 6100   7.187  10.971  10.795 -0.0924  0.2786 -0.0245
  382loPI   GL1 6101   7.096  10.811  10.463  0.0180 -0.1136  0.2618
  382loPI   GL2 6102   7.094  11.092  10.322  0.3427 -0.0912 -0.0960
  382loPI   C1A 6103   7.293  10.631  10.125  0.2514  0.3023  0.3234
  382loPI   C2A 6104   7.300  10.479   9.719 -0.1404 -0.3647  0.1158
  382loPI   C3A 6105   7.387  10.386   9.331  0.0410 -0.0957 -0.1760
  382loPI   C4A 6106   7.617  10.217   9.065  0.0993  0.0906 -0.4735
  382loPI   C5A 6107   7.627  10.213   8.680  0.0479 -0.2534 -0.1819
  382loPI   C6A 6108   7.662  10.315   8.251  0.0332 -0.4655  0.2236
  382loPI   C1B 6109   7.114  11.069   9.934 -0.1139  0.0458 -0.2388
  382loPI   C2B 6110   7.104  11.062   9.522  0.0159 -0.3297  0.1403
  382loPI   C3B 6111   7.137  11.005   9.142 -0.0381 -0.2465  0.1319
  382loPI   C4B 6112   7.036  11.009   8.707  0.1315 -0.4349  0.1311
  383loPI    C1 6113   1.129  14.745  10.392 -0.0251 -0.0055 -0.2277
  383loPI    C2 6114   1.334  15.069  10.280 -0.2011  0.1944  0.0198
  383loPI    C3 6115   1.302  14.976  10.668  0.0296 -0.2426 -0.0602
  383loPI   PO4 6116   1.207  14.530  10.179 -0.1543  0.2191  0.3721
  383loPI   GL1 6117   1.402  14.734   9.889 -0.2601  0.0870 -0.2052
  383loPI   GL2 6118   1.158  14.571   9.704  0.1569  0.0166 -0.2684
  383loPI   C1A 6119   1.471  14.914   9.607 -0.0659  0.1138 -0.2737
  383loPI   C2A 6120   1.558  14.849   9.216  0.1445 -0.3878  0.1880
  383loPI   C3A 6121   1.538  14.821   8.784 -0.2621  0.0564  0.0961
  383loPI   C4A 6122   1.487  14.798   8.292 -0.0781  0.0152 -0.0555
  383loPI   C5A 6123   1.573  14.468   8.175  0.0774  0.2562  0.0242
  383loPI   C6A 6124   1.552  13.939   7.997 -0.3374 -0.2146 -0.1212
  383loPI   C1B 6125   1.103  14.556   9.324 -0.1840  0.0176 -0.1970
  383loPI   C2B 6126   1.114  14.492   8.911  0.4033  0.0497 -0.0115
  383loPI   C3B 6127   0.985  14.565   8.516 -0.4546 -0.4395  0.0790
  383loPI   C4B 6128   1.059  14.551   8.107  0.1014 -0.3237  0.1486
  384loPI    C1 6129   8.296  15.302  11.108  0.2088 -0.1011 -0.0651
  384loPI    C2 6130   7.979  15.340  11.349  0.0896  0.1448 -0.2559
  384loPI    C3 6131   8.317  15.537  11.431  0.1833 -0.0861 -0.0743
  384loPI   PO4 6132   8.139  15.280  10.848  0.0177  0.0516  0.0948
  384loPI   GL1 6133   8.167  15.286  10.431 -0.0621  0.2056  0.1605
  384loPI   GL2 6134   7.885  15.334  10.322  0.2570 -0.2382 -0.1313
  384loPI   C1A 6135   8.307  15.300   9.916  0.5103 -0.2859 -0.0043
  384loPI   C2A 6136   8.407  15.384   9.537 -0.2156 -0.2430 -0.2389
  384loPI   C3A 6137   8.270  15.365   9.094 -0.3107 -0.1549  0.1103
  384loPI   C4A 6138   8.315  15.345   8.606  0.1855 -0.1067  0.0136
  384loPI   C5A 6139   8.085  15.405   8.140 -0.1989 -0.2207 -0.0270
  384loPI   C6A 6140   7.898  15.724   8.054  0.1176 -0.0556  0.0088
  384loPI   C1B 6141   7.855  15.120   9.922 -0.2685 -0.0665  0.1495
  384loPI   C2B 6142   7.901  15.033   9.454 -0.0946 -0.0052  0.1306
  384loPI   C3B 6143   7.875  15.080   9.016 -0.1878 -0.0395  0.1070
  384loPI   C4B 6144   7.719  15.095   8.588  0.0094 -0.1919 -0.1396
  385loPI    C1 6145  17.931   9.635  10.819  0.2084  0.1548  0.0419
  385loPI    C2 6146  18.185   9.332  10.763  0.1810  0.1657 -0.1492
  385loPI    C3 6147  18.160   9.508  11.121  0.0639 -0.1771  0.0164
  385loPI   PO4 6148  17.854   9.779  10.555 -0.0232  0.1025  0.0228
  385loPI   GL1 6149  17.660   9.631  10.091 -0.1166  0.2193  0.1568
  385loPI   GL2 6150  17.947   9.910  10.054 -0.1837  0.0438  0.0872
  385loPI   C1A 6151  17.636   9.391   9.797  0.3434  0.0781  0.2139
  385loPI   C2A 6152  17.549   9.289   9.441  0.3237  0.3121 -0.0883
  385loPI   C3A 6153  17.703   9.392   8.950 -0.1944 -0.1195 -0.0844
  385loPI   C4A 6154  17.736   9.467   8.532  0.2517  0.0437 -0.1892
  385loPI   C5A 6155  17.796   9.346   8.112  0.0716 -0.0945 -0.2768
  385loPI   C6A 6156  17.666   9.137   7.716  0.2533  0.0984  0.0604
  385loPI   C1B 6157  17.881   9.793   9.610 -0.2967  0.0700 -0.1190
  385loPI   C2B 6158  18.000   9.774   9.202 -0.0129 -0.2955  0.1982
  385loPI   C3B 6159  18.046   9.834   8.772  0.1527 -0.0291 -0.0296
  385loPI   C4B 6160  18.009   9.769   8.242 -0.1820  0.0849 -0.2423
  386loPI    C1 6161  17.015   6.832  10.899 -0.1099  0.0973  0.1681
  386loPI    C2 6162  16.947   7.088  11.198 -0.1175  0.2837  0.0085
  386loPI    C3 6163  17.029   6.705  11.278 -0.0515  0.3466  0.2513
  386loPI   PO4 6164  16.953   7.023  10.648 -0.0616  0.1108 -0.3182
  386loPI   GL1 6165  16.917   7.080  10.279 -0.2613 -0.0811 -0.0309
  386loPI   GL2 6166  17.175   7.190  10.019  0.1792  0.0842  0.0323
  386loPI   C1A 6167  16.691   7.204   9.981 -0.1238 -0.0442  0.0391
  386loPI   C2A 6168  16.790   7.098   9.579  0.1655 -0.0872  0.0981
  386loPI   C3A 6169  16.818   7.159   9.107  0.2066  0.0066  0.2524
  386loPI   C4A 6170  16.873   7.133   8.698 -0.1945  0.2929  0.1868
  386loPI   C5A 6171  16.811   7.146   8.312 -0.0179 -0.1437 -0.2313
  386loPI   C6A 6172  16.845   7.132   7.911 -0.1055  0.3422  0.0601
  386loPI   C1B 6173  17.310   7.121   9.565  0.1097 -0.1009  0.0703
  386loPI   C2B 6174  17.270   7.161   9.143  0.2187 -0.0973  0.1230
  386loPI   C3B 6175  17.339   7.192   8.736  0.1724 -0.0053  0.0116
  386loPI   C4B 6176  17.299   7.179   8.313  0.0596 -0.0396 -0.2417
  387loPI    C1 6177   7.813   8.175  11.119 -0.1633 -0.0025  0.0453
  387loPI    C2 6178   8.108   7.955  10.962 -0.0223  0.0921  0.1751
  387loPI    C3 6179   8.193   8.249  11.220 -0.2073  0.3144 -0.0130
  387loPI   PO4 6180   7.642   8.236  10.913  0.0689 -0.1198 -0.1517
  387loPI   GL1 6181   7.673   8.049  10.585  0.0911 -0.4502 -0.2838
  387loPI   GL2 6182   7.470   8.296  10.347  0.1453 -0.2321 -0.2466
  387loPI   C1A 6183   7.860   7.915  10.182  0.0034 -0.2301  0.0885
  387loPI   C2A 6184   7.824   7.993   9.769 -0.0504 -0.2584 -0.2753
  387loPI   C3A 6185   7.947   8.047   9.309  0.2542  0.0012  0.0843
  387loPI   C4A 6186   8.054   8.032   8.860 -0.1408  0.3504 -0.3341
  387loPI   C5A 6187   8.023   8.171   8.472  0.1256  0.2633 -0.2663
  387loPI   C6A 6188   8.167   7.955   8.041 -0.1085  0.1553 -0.4594
  387loPI   C1B 6189   7.383   8.110  10.022 -0.2062 -0.0444  0.2387
  387loPI   C2B 6190   7.360   8.025   9.519 -0.2544  0.1236 -0.2000
  387loPI   C3B 6191   7.516   7.988   9.100  0.0656  0.0289  0.0487
  387loPI   C4B 6192   7.497   7.965   8.716  0.0080  0.2198 -0.2894
  388loPI    C1 6193   9.353  13.219  10.853 -0.2160  0.0114 -0.0271
  388loPI    C2 6194   9.638  13.070  11.091 -0.2539 -0.0017  0.0101
  388loPI    C3 6195   9.431  13.394  11.204 -0.3316 -0.0593  0.0341
  388loPI   PO4 6196   9.407  13.183  10.527 -0.2455 -0.1218  0.0699
  388loPI   GL1 6197   9.616  13.477  10.235  0.2201 -0.1098 -0.0284
  388loPI   GL2 6198   9.780  13.263  10.092 -0.1240  0.4803 -0.0329
  388loPI   C1A 6199   9.480  13.492   9.796  0.0622 -0.2530 -0.0524
  388loPI   C2A 6200   9.431  13.448   9.373 -0.0794  0.2164  0.0607
  388loPI   C3A 6201   9.466  13.448   8.962 -0.1362  0.1658  0.1378
  388loPI   C4A 6202   9.474  13.434   8.496 -0.3533 -0.0964 -0.0279
  388loPI   C5A 6203   9.621  13.408   8.001 -0.0954 -0.0452 -0.0463
  388loPI   C6A 6204   9.804  13.619   7.604  0.1454 -0.3802 -0.1719
  388loPI   C1B 6205   9.899  13.240   9.692 -0.0278 -0.0305  0.2502
  388loPI   C2B 6206   9.916  13.361   9.243 -0.0363 -0.0024 -0.1045
  388loPI   C3B 6207   9.937  13.272   8.854 -0.1451  0.3064 -0.1550
  388loPI   C4B 6208   9.916  13.233   8.409 -0.1093  0.0536 -0.1675
  389loPI    C1 6209   2.791  16.035  10.767 -0.3202 -0.0047  0.1972
  389loPI    C2 6210   3.085  16.186  10.993 -0.0583 -0.1566 -0.0357
  389loPI    C3 6211   2.759  16.031  11.166 -0.0317  0.0690  0.2235
  389loPI   PO4 6212   2.848  15.864  10.550  0.1307 -0.1557 -0.0960
  389loPI   GL1 6213   2.998  16.030  10.153 -0.1980 -0.0051  0.0234
  389loPI   GL2 6214   2.711  15.925  10.086  0.0015 -0.0529 -0.0791
  389loPI   C1A 6215   3.179  16.159   9.844  0.3495 -0.1419 -0.2123
  389loPI   C2A 6216   3.160  16.097   9.374  0.0508 -0.1417  0.0711
  389loPI   C3A 6217   3.123  16.120   9.033  0.0792  0.2382 -0.0034
  389loPI   C4A 6218   3.143  15.902   8.624  0.0946  0.0547  0.1514
  389loPI   C5A 6219   3.092  16.041   8.293 -0.2901 -0.1519 -0.0026
  389loPI   C6A 6220   3.279  16.049   7.995 -0.0935 -0.0054 -0.0168
  389loPI   C1B 6221   2.828  15.851   9.725  0.0036 -0.1261  0.0842
  389loPI   C2B 6222   2.765  15.808   9.247 -0.1285  0.0807  0.2629
  389loPI   C3B 6223   2.792  15.654   8.865  0.0364 -0.3471  0.3275
  389loPI   C4B 6224   2.670  15.764   8.384 -0.0846  0.2452  0.0191
  390loPI    C1 6225  16.616  12.779  10.573 -0.2644 -0.0628 -0.0860
  390loPI    C2 6226  16.464  12.582  10.885 -0.2815  0.0157 -0.0445
  390loPI    C3 6227  16.506  12.979  10.901 -0.0239 -0.0102 -0.0351
  390loPI   PO4 6228  16.517  12.715  10.311 -0.0634 -0.4243  0.0759
  390loPI   GL1 6229  16.594  12.491  10.071  0.0171 -0.0406  0.3674
  390loPI   GL2 6230  16.684  12.673   9.824 -0.2793  0.1743 -0.0245
  390loPI   C1A 6231  16.345  12.282   9.751 -0.1550 -0.2169 -0.0427
  390loPI   C2A 6232  16.183  12.335   9.385 -0.2682 -0.1826  0.1006
  390loPI   C3A 6233  16.189  12.304   8.995  0.0655  0.5638 -0.2479
  390loPI   C4A 6234  16.301  12.344   8.494 -0.0895 -0.0605  0.1256
  390loPI   C5A 6235  16.245  12.418   8.000  0.1219  0.1055  0.2833
  390loPI   C6A 6236  15.836  12.479   7.691  0.0248  0.2526  0.0505
  390loPI   C1B 6237  16.667  12.589   9.416 -0.1024 -0.5520  0.0894
  390loPI   C2B 6238  16.725  12.576   9.031  0.0705  0.0835  0.5258
  390loPI   C3B 6239  16.846  12.592   8.640  0.0180  0.1930 -0.1565
  390loPI   C4B 6240  16.724  12.649   8.139  0.1718 -0.1350  0.0453
  391loPI    C1 6241   0.111   7.787  10.839 -0.1245 -0.0679  0.0280
  391loPI    C2 6242   0.500   7.706  10.887 -0.1666 -0.2858  0.0110
  391loPI    C3 6243   0.242   7.628  11.182 -0.1223  0.3821  0.2429
  391loPI   PO4 6244   0.105   7.658  10.560  0.0321  0.0419 -0.1581
  391loPI   GL1 6245   0.164   7.514  10.148  0.1915 -0.1029 -0.1709
  391loPI   GL2 6246  -0.233   7.575  10.179  0.2835  0.0530  0.1923
  391loPI   C1A 6247   0.271   7.632   9.724  0.1048 -0.1341  0.1121
  391loPI   C2A 6248   0.319   7.502   9.228 -0.0398 -0.1039 -0.0210
  391loPI   C3A 6249   0.324   7.565   8.720 -0.1205  0.1338  0.1393
  391loPI   C4A 6250   0.478   7.537   8.286 -0.2666 -0.0859  0.0585
  391loPI   C5A 6251   0.387   7.315   7.949  0.2187 -0.1618  0.0268
  391loPI   C6A 6252   0.441   7.160   7.617 -0.1820 -0.1569  0.2978
  391loPI   C1B 6253  -0.268   7.710   9.738 -0.0947 -0.0704  0.0372
  391loPI   C2B 6254  -0.201   7.547   9.388  0.1680 -0.1532 -0.0901
  391loPI   C3B 6255  -0.180   7.475   8.953 -0.0851 -0.1159 -0.1195
  391loPI   C4B 6256  -0.206   7.594   8.563  0.1388  0.0964  0.0890
  392loPI    C1 6257   7.911  16.161  11.019  0.0421  0.2189  0.2279
  392loPI    C2 6258   8.067  15.792  11.035  0.0792  0.2208 -0.0448
  392loPI    C3 6259   7.769  15.895  11.281  0.0979  0.0224  0.0619
  392loPI   PO4 6260   7.818  16.167  10.729  0.1137  0.1596 -0.2222
  392loPI   GL1 6261   7.768  16.126  10.252  0.0976  0.0607 -0.0796
  392loPI   GL2 6262   7.648  15.752  10.168  0.2075  0.2184  0.1307
  392loPI   C1A 6263   7.691  16.126   9.777 -0.4045  0.0402 -0.0506
  392loPI   C2A 6264   7.794  16.022   9.328  0.0355 -0.0895 -0.1326
  392loPI   C3A 6265   7.809  16.078   8.872 -0.1277  0.0268 -0.0881
  392loPI   C4A 6266   7.693  16.187   8.469  0.1192  0.0678  0.0221
  392loPI   C5A 6267   7.609  16.231   8.061 -0.0931 -0.2831  0.1180
  392loPI   C6A 6268   7.261  16.437   7.838 -0.0111  0.3964  0.0498
  392loPI   C1B 6269   7.929  15.583   9.782 -0.2580  0.1708  0.3721
  392loPI   C2B 6270   7.870  15.560   9.357 -0.0318  0.3485 -0.2002
  392loPI   C3B 6271   7.797  15.564   8.981 -0.0879 -0.0560  0.0519
  392loPI   C4B 6272   7.830  15.645   8.512 -0.0968 -0.2791  0.0957
  393loPI    C1 6273   1.259  12.251  10.886 -0.2816 -0.0543 -0.1309
  393loPI    C2 6274   1.279  11.972  11.172 -0.0200 -0.1430 -0.2326
  393loPI    C3 6275   1.136  12.336  11.257 -0.0675 -0.2093 -0.0220
  393loPI   PO4 6276   1.466  12.254  10.715 -0.1933 -0.1939  0.0521
  393loPI   GL1 6277   1.426  12.162  10.180 -0.1016  0.2323 -0.2482
  393loPI   GL2 6278   1.459  11.872  10.042  0.0688 -0.1993 -0.0753
  393loPI   C1A 6279   1.404  12.391   9.730  0.0356  0.0705 -0.1247
  393loPI   C2A 6280   1.415  12.361   9.280 -0.1173 -0.1541  0.1335
  393loPI   C3A 6281   1.457  12.341   8.802 -0.2491  0.1817  0.0829
  393loPI   C4A 6282   1.523  12.441   8.346  0.1219  0.2032 -0.0463
  393loPI   C5A 6283   1.920  12.464   8.028  0.0348  0.1427 -0.1207
  393loPI   C6A 6284   2.139  12.162   8.130  0.1854  0.0379  0.0394
  393loPI   C1B 6285   1.456  11.761   9.576 -0.3557  0.3787 -0.0884
  393loPI   C2B 6286   1.469  11.851   9.119  0.0381 -0.0048  0.0322
  393loPI   C3B 6287   1.440  11.818   8.610  0.0476  0.0853  0.0592
  393loPI   C4B 6288   1.203  11.701   8.196  0.1888 -0.2463 -0.0009
  394loPI    C1 6289   7.553  16.619  10.712 -0.2697  0.0460  0.0562
  394loPI    C2 6290   7.866  16.727  10.936 -0.0596 -0.0829 -0.1704
  394loPI    C3 6291   7.495  16.763  11.081  0.0687 -0.1194  0.1786
  394loPI   PO4 6292   7.632  16.647  10.513  0.0757 -0.0685 -0.1260
  394loPI   GL1 6293   7.854  16.598  10.103 -0.1369  0.1041 -0.1522
  394loPI   GL2 6294   7.509  16.525  10.054 -0.1531 -0.3416  0.1796
  394loPI   C1A 6295   7.729  16.650   9.621 -0.1566 -0.0437  0.2272
  394loPI   C2A 6296   7.739  16.698   9.280 -0.1836  0.5356  0.0543
  394loPI   C3A 6297   7.677  16.556   8.794 -0.1938 -0.0889 -0.0360
  394loPI   C4A 6298   7.739  16.679   8.310  0.1235 -0.0358 -0.0258
  394loPI   C5A 6299   7.608  16.988   8.025 -0.1162  0.0069 -0.2439
  394loPI   C6A 6300   7.386  17.357   7.897 -0.3213 -0.2221  0.3833
  394loPI   C1B 6301   7.351  16.376   9.544  0.1326 -0.0926 -0.0152
  394loPI   C2B 6302   7.349  16.307   9.203  0.0034 -0.2265 -0.1126
  394loPI   C3B 6303   7.273  16.273   8.815 -0.1689 -0.0598  0.0189
  394loPI   C4B 6304   7.206  16.229   8.371  0.2155  0.0300  0.0100
  395loPI    C1 6305  10.055  11.921  10.660  0.3260  0.0075 -0.0294
  395loPI    C2 6306   9.979  12.094  11.012  0.2900 -0.1318  0.0323
  395loPI    C3 6307  10.177  11.747  10.999  0.0211 -0.2835 -0.0641
  395loPI   PO4 6308   9.991  12.016  10.510  0.1147  0.2685  0.2174
  395loPI   GL1 6309   9.629  12.159  10.214  0.1848  0.2367 -0.2885
  395loPI   GL2 6310   9.746  12.440  10.297 -0.0926  0.0850  0.0051
  395loPI   C1A 6311   9.266  12.079   9.834  0.0714  0.0907 -0.0517
  395loPI   C2A 6312   9.233  12.059   9.380 -0.0152 -0.6563 -0.0191
  395loPI   C3A 6313   9.150  11.960   9.037  0.3602 -0.0012  0.1989
  395loPI   C4A 6314   9.054  12.115   8.571 -0.0380  0.2392 -0.0526
  395loPI   C5A 6315   9.110  12.241   8.213 -0.1712 -0.1534  0.0079
  395loPI   C6A 6316   9.137  12.474   7.728  0.1434  0.1695  0.1336
  395loPI   C1B 6317   9.691  12.380   9.792  0.1019 -0.3471  0.0562
  395loPI   C2B 6318   9.627  12.416   9.421  0.1180 -0.0908 -0.3532
  395loPI   C3B 6319   9.594  12.447   9.025 -0.1231  0.0754 -0.1147
  395loPI   C4B 6320   9.482  12.428   8.549  0.0736  0.1436 -0.0120
  396loPI    C1 6321  13.806   7.984  10.940  0.0464  0.2346  0.2847
  396loPI    C2 6322  13.637   7.867  11.283 -0.0582 -0.0665  0.1338
  396loPI    C3 6323  13.956   7.672  11.140 -0.0076  0.0654  0.0649
  396loPI   PO4 6324  13.670   7.996  10.802 -0.0285 -0.3507 -0.2598
  396loPI   GL1 6325  13.412   8.366  10.602 -0.0259  0.1749  0.2385
  396loPI   GL2 6326  13.430   8.079  10.396  0.3284 -0.1020  0.0097
  396loPI   C1A 6327  13.378   8.513  10.175 -0.0216 -0.1771 -0.0716
  396loPI   C2A 6328  13.433   8.512   9.740 -0.1408 -0.0217  0.1210
  396loPI   C3A 6329  13.436   8.555   9.352  0.1081 -0.1002  0.2757
  396loPI   C4A 6330  13.374   8.547   8.904 -0.2928 -0.1690 -0.2280
  396loPI   C5A 6331  13.442   8.472   8.584 -0.2744  0.0038  0.1826
  396loPI   C6A 6332  13.736   8.211   8.276 -0.1661  0.0343 -0.1545
  396loPI   C1B 6333  13.148   8.049  10.097 -0.0701  0.1007  0.2401
  396loPI   C2B 6334  13.187   8.091   9.651  0.0027  0.1635  0.0797
  396loPI   C3B 6335  13.137   8.016   9.186 -0.1301 -0.2289 -0.0070
  396loPI   C4B 6336  13.134   8.088   8.794  0.4559  0.0197  0.2195
  397loPI    C1 6337   0.320   9.740  10.773 -0.1634 -0.0958 -0.0022
  397loPI    C2 6338   0.364   9.364  10.902  0.0521 -0.1063 -0.1004
  397loPI    C3 6339   0.264   9.654  11.159  0.2507 -0.1667  0.0472
  397loPI   PO4 6340   0.114   9.696  10.544  0.1947 -0.1772 -0.3039
  397loPI   GL1 6341   0.031   9.538  10.193  0.1817  0.0989  0.3112
  397loPI   GL2 6342   0.268   9.476   9.930 -0.4015 -0.1720  0.1431
  397loPI   C1A 6343  -0.265   9.310   9.964 -0.2349  0.0397 -0.0884
  397loPI   C2A 6344  -0.287   9.377   9.451 -0.0850 -0.3858 -0.3782
  397loPI   C3A 6345  -0.115   9.353   9.078 -0.1241  0.0017  0.1330
  397loPI   C4A 6346  -0.103   9.388   8.639  0.1153 -0.1797 -0.3298
  397loPI   C5A 6347  -0.011   9.315   8.195 -0.1482  0.0513 -0.1319
  397loPI   C6A 6348  -0.145   9.504   7.778 -0.0701  0.0353 -0.2703
  397loPI   C1B 6349   0.457   9.346   9.554  0.1481  0.2640 -0.0771
  397loPI   C2B 6350   0.404   9.239   9.070 -0.0233  0.0014 -0.2700
  397loPI   C3B 6351   0.399   9.446   8.745  0.0101 -0.0556  0.1002
  397loPI   C4B 6352   0.542   9.277   8.389  0.0252 -0.0953  0.1126
  398loPI    C1 6353   9.674  14.225  10.844 -0.1326  0.1825  0.2756
  398loPI    C2 6354   9.891  14.457  10.602  0.1003 -0.2036  0.1044
  398loPI    C3 6355   9.960  14.459  10.996 -0.0013  0.1219  0.1239
  398loPI   PO4 6356   9.450  14.158  10.673 -0.0074  0.0964 -0.2319
  398loPI   GL1 6357   9.445  14.089  10.297 -0.3101  0.1876  0.2649
  398loPI   GL2 6358   9.464  14.463  10.261 -0.3892 -0.2658  0.0430
  398loPI   C1A 6359   9.415  13.991   9.873 -0.0585 -0.0118 -0.3341
  398loPI   C2A 6360   9.343  13.975   9.459  0.1646  0.0258 -0.1944
  398loPI   C3A 6361   9.415  14.033   9.055 -0.4551  0.1125 -0.2103
  398loPI   C4A 6362   9.395  13.945   8.636 -0.0117 -0.0412 -0.2552
  398loPI   C5A 6363   9.472  13.964   8.236  0.0011  0.1221 -0.0171
  398loPI   C6A 6364   9.481  14.103   7.769  0.3958  0.0986  0.3153
  398loPI   C1B 6365   9.277  14.517   9.916  0.1403 -0.0479  0.0232
  398loPI   C2B 6366   9.241  14.517   9.462 -0.2514  0.0017 -0.2294
  398loPI   C3B 6367   9.285  14.540   9.055  0.1139  0.0505  0.1080
  398loPI   C4B 6368   9.403  14.419   8.542 -0.1790 -0.0468 -0.1091
  399loPI    C1 6369   9.129   2.761  10.342 -0.2138  0.2820 -0.1255
  399loPI    C2 6370   9.026   2.822  10.723 -0.1346 -0.0199 -0.0527
  399loPI    C3 6371   9.351   2.999  10.574 -0.1849  0.1264  0.0088
  399loPI   PO4 6372   8.913   2.814  10.205  0.1036 -0.0963 -0.4337
  399loPI   GL1 6373   8.790   2.871   9.790  0.0131 -0.1358  0.0200
  399loPI   GL2 6374   8.966   3.052   9.665 -0.3072 -0.1781  0.3592
  399loPI   C1A 6375   8.822   2.668   9.438 -0.0581  0.2510  0.0863
  399loPI   C2A 6376   8.865   2.709   8.990  0.2353  0.0875 -0.0247
  399loPI   C3A 6377   9.014   2.679   8.556  0.5053 -0.1091 -0.0443
  399loPI   C4A 6378   9.200   2.665   8.175 -0.0240 -0.0705 -0.2117
  399loPI   C5A 6379   9.484   2.746   7.830 -0.1572 -0.2219 -0.2050
  399loPI   C6A 6380   9.773   2.501   7.655 -0.0218  0.2507  0.0785
  399loPI   C1B 6381   8.840   3.193   9.160  0.4266 -0.0919 -0.1183
  399loPI   C2B 6382   8.807   3.159   8.670 -0.2821  0.0578 -0.0443
  399loPI   C3B 6383   8.797   3.103   8.333 -0.0899 -0.0067  0.1151
  399loPI   C4B 6384   8.595   3.112   7.896  0.0725 -0.1837 -0.2240
  400loPI    C1 6385  17.400   7.774  10.784 -0.1234  0.1119 -0.1688
  400loPI    C2 6386  17.229   7.935  11.108 -0.0972 -0.2748  0.0434
  400loPI    C3 6387  17.624   7.867  11.102 -0.0752 -0.1413 -0.1264
  400loPI   PO4 6388  17.433   7.863  10.557 -0.1121 -0.0382  0.3076
  400loPI   GL1 6389  17.756   7.950  10.288  0.0543 -0.0440 -0.1355
  400loPI   GL2 6390  17.357   8.056  10.093 -0.0581  0.0128  0.0868
  400loPI   C1A 6391  17.809   8.095   9.800 -0.3449 -0.1076  0.1965
  400loPI   C2A 6392  17.848   8.057   9.285 -0.1020  0.2556  0.0081
  400loPI   C3A 6393  17.900   7.957   8.878  0.2833 -0.0992 -0.1609
  400loPI   C4A 6394  17.933   8.103   8.405 -0.0043  0.0546  0.0942
  400loPI   C5A 6395  18.154   8.326   8.048 -0.0544  0.1431 -0.0471
  400loPI   C6A 6396  18.517   8.247   7.747 -0.1267  0.1390 -0.0449
  400loPI   C1B 6397  17.297   8.044   9.620  0.2178  0.0044 -0.0745
  400loPI   C2B 6398  17.308   7.944   9.239  0.0795  0.1304 -0.4755
  400loPI   C3B 6399  17.385   8.067   8.800 -0.0211 -0.3825  0.0183
  400loPI   C4B 6400  17.364   8.067   8.288  0.0642 -0.0528  0.0675
  401loPI    C1 6401  17.263  14.896  10.750  0.0486  0.2196  0.1710
  401loPI    C2 6402  17.552  15.094  10.943  0.1254 -0.2816  0.5941
  401loPI    C3 6403  17.168  15.168  11.027  0.1134  0.3471  0.0694
  401loPI   PO4 6404  17.308  14.899  10.483  0.1785 -0.0266  0.2924
  401loPI   GL1 6405  17.268  14.997  10.095  0.0709 -0.1731 -0.0176
  401loPI   GL2 6406  17.050  14.766  10.030 -0.1442  0.0601 -0.2675
  401loPI   C1A 6407  16.983  15.056   9.621 -0.0509  0.2709  0.3118
  401loPI   C2A 6408  16.953  15.019   9.171 -0.2207  0.0811 -0.2579
  401loPI   C3A 6409  16.934  15.090   8.711 -0.2044  0.1902  0.0673
  401loPI   C4A 6410  17.207  15.171   8.433  0.1202  0.3775 -0.1233
  401loPI   C5A 6411  17.212  15.007   7.969  0.1188 -0.2764 -0.0321
  401loPI   C6A 6412  17.329  15.239   7.675  0.0308 -0.1815  0.0146
  401loPI   C1B 6413  17.224  14.597   9.630 -0.1853 -0.1197 -0.7828
  401loPI   C2B 6414  17.425  14.936   9.397  0.1597  0.2752 -0.0781
  401loPI   C3B 6415  17.453  15.201   9.107  0.2636 -0.0462  0.0969
  401loPI   C4B 6416  17.434  15.473   8.763  0.1271  0.1011  0.0154
  402loPI    C1 6417   2.831  16.848  10.435  0.0479  0.2114 -0.1135
  402loPI    C2 6418   2.606  16.967  10.744  0.1469 -0.1691  0.1112
  402loPI    C3 6419   2.956  16.785  10.810  0.2471 -0.1065 -0.2302
  402loPI   PO4 6420   2.712  17.030  10.240  0.2017  0.0296 -0.1392
  402loPI   GL1 6421   2.571  16.933   9.752 -0.4731 -0.2544  0.2989
  402loPI   GL2 6422   2.521  17.241   9.720 -0.0334 -0.3408 -0.1100
  402loPI   C1A 6423   2.639  16.784   9.324 -0.3237  0.1754 -0.2524
  402loPI   C2A 6424   2.694  16.683   8.876  0.0322 -0.4548  0.1149
  402loPI   C3A 6425   2.532  16.744   8.557 -0.1846 -0.2163  0.1602
  402loPI   C4A 6426   2.458  16.759   8.183  0.0031 -0.0172 -0.0360
  402loPI   C5A 6427   2.698  16.630   7.824  0.1489  0.1534 -0.1058
  402loPI   C6A 6428   2.565  16.360   7.437  0.0074 -0.0431  0.2921
  402loPI   C1B 6429   2.641  17.291   9.244  0.3329 -0.1650  0.1865
  402loPI   C2B 6430   2.551  17.233   8.869  0.0204  0.1378  0.2021
  402loPI   C3B 6431   2.528  17.292   8.374 -0.2282  0.2260  0.1172
  402loPI   C4B 6432   2.493  17.194   8.009 -0.3178 -0.0883  0.0014
  403loPI    C1 6433   2.815   0.848  10.665  0.0763  0.0492 -0.1426
  403loPI    C2 6434   3.043   1.151  10.795 -0.2052  0.3108 -0.2458
  403loPI    C3 6435   2.664   1.118  10.918 -0.1889  0.0184 -0.2651
  403loPI   PO4 6436   2.822   0.849  10.418 -0.1263 -0.5014 -0.2923
  403loPI   GL1 6437   2.955   0.945   9.986  0.0894  0.1247  0.3744
  403loPI   GL2 6438   2.688   0.730   9.911  0.0080 -0.0407 -0.0262
  403loPI   C1A 6439   3.149   1.094   9.586  0.1606 -0.1367  0.1378
  403loPI   C2A 6440   3.071   1.087   9.213  0.3000  0.0485  0.0355
  403loPI   C3A 6441   3.064   1.160   8.826 -0.1477  0.0283 -0.1960
  403loPI   C4A 6442   3.270   1.113   8.440 -0.1879  0.2406  0.0050
  403loPI   C5A 6443   3.233   0.955   7.975  0.0778 -0.2204  0.3162
  403loPI   C6A 6444   3.366   0.637   7.697 -0.1107  0.0346 -0.0406
  403loPI   C1B 6445   2.791   0.701   9.482  0.1684 -0.0686  0.2315
  403loPI   C2B 6446   2.804   0.702   8.952  0.1018  0.0868  0.3375
  403loPI   C3B 6447   2.804   0.742   8.508  0.0740 -0.3548  0.0042
  403loPI   C4B 6448   2.438   0.809   8.190  0.3006 -0.2176  0.0829
  404loPI    C1 6449   2.558  16.469  10.690  0.2766  0.0613 -0.0006
  404loPI    C2 6450   2.349  16.273  10.969  0.1360  0.0793 -0.0925
  404loPI    C3 6451   2.644  16.521  11.077  0.1401  0.0188  0.0357
  404loPI   PO4 6452   2.601  16.328  10.376  0.0087 -0.2504  0.3094
  404loPI   GL1 6453   2.716  16.510  10.055  0.0888  0.1914 -0.0978
  404loPI   GL2 6454   2.986  16.710   9.939 -0.2852  0.2826 -0.1504
  404loPI   C1A 6455   2.729  16.314   9.626  0.3071 -0.2590  0.0023
  404loPI   C2A 6456   2.662  16.251   9.216  0.3170  0.0314  0.2375
  404loPI   C3A 6457   2.651  16.160   8.783 -0.0219  0.0065 -0.0065
  404loPI   C4A 6458   2.619  16.285   8.405 -0.0707 -0.1032 -0.1463
  404loPI   C5A 6459   2.660  16.158   8.010  0.0851  0.1442  0.3604
  404loPI   C6A 6460   2.818  15.742   7.914 -0.0242  0.1052 -0.0531
  404loPI   C1B 6461   3.097  16.612   9.471  0.1001  0.1143  0.1979
  404loPI   C2B 6462   3.175  16.614   9.007 -0.0842 -0.0007  0.3166
  404loPI   C3B 6463   3.071  16.483   8.659 -0.0165 -0.0340  0.1198
  404loPI   C4B 6464   2.998  16.554   8.258  0.4165 -0.0528 -0.3153
  405loPI    C1 6465   0.256  15.254  10.240 -0.0054 -0.0909 -0.0680
  405loPI    C2 6466   0.413  15.034   9.945  0.0219 -0.0462 -0.0871
  405loPI    C3 6467   0.283  14.857  10.280 -0.0920 -0.1069 -0.1629
  405loPI   PO4 6468   0.073  15.393  10.143  0.1866  0.3252 -0.2475
  405loPI   GL1 6469   0.306  15.493   9.801 -0.1889 -0.2793  0.0659
  405loPI   GL2 6470   0.695  15.444   9.868  0.1874 -0.1340 -0.0304
  405loPI   C1A 6471   0.429  15.581   9.380  0.2645 -0.2020  0.0468
  405loPI   C2A 6472   0.520  15.784   8.991  0.0186 -0.2261  0.3944
  405loPI   C3A 6473   0.429  15.791   8.556  0.3217 -0.0496  0.1386
  405loPI   C4A 6474   0.280  15.790   8.286  0.0001  0.0553  0.1190
  405loPI   C5A 6475  -0.059  15.603   8.066 -0.3228  0.0546  0.1146
  405loPI   C6A 6476  -0.326  15.594   7.730  0.2728 -0.0734  0.0537
  405loPI   C1B 6477   0.963  15.433   9.475 -0.0999  0.3689  0.3855
  405loPI   C2B 6478   0.986  15.521   9.068  0.1921 -0.1084  0.0088
  405loPI   C3B 6479   0.896  15.613   8.645  0.0208 -0.2107  0.0030
  405loPI   C4B 6480   0.826  15.930   8.239  0.1662 -0.0035  0.0407
  406loPI    C1 6481  12.385  15.888  10.900  0.0838  0.0791 -0.0184
  406loPI    C2 6482  12.450  15.495  10.935  0.0856  0.0624 -0.1995
  406loPI    C3 6483  12.144  15.665  11.128  0.1503 -0.0083 -0.0331
  406loPI   PO4 6484  12.347  15.874  10.638  0.0415  0.2443  0.0262
  406loPI   GL1 6485  12.358  15.710  10.236 -0.1198  0.0570 -0.2492
  406loPI   GL2 6486  12.052  15.744  10.215 -0.3004  0.0773  0.1940
  406loPI   C1A 6487  12.389  15.678   9.784 -0.0336 -0.2299 -0.3095
  406loPI   C2A 6488  12.357  15.596   9.378 -0.1244  0.3069  0.1862
  406loPI   C3A 6489  12.398  15.555   8.974  0.1241 -0.1849  0.0992
  406loPI   C4A 6490  12.379  15.578   8.576  0.1667  0.1935 -0.2611
  406loPI   C5A 6491  12.380  15.474   8.089 -0.1332  0.1265 -0.1732
  406loPI   C6A 6492  12.243  15.743   7.743 -0.1798  0.1038 -0.1997
  406loPI   C1B 6493  11.908  15.788   9.875  0.0541  0.1751  0.0060
  406loPI   C2B 6494  11.873  15.895   9.368 -0.0340  0.0759 -0.1287
  406loPI   C3B 6495  11.891  15.800   8.939 -0.1847 -0.3063  0.0864
  406loPI   C4B 6496  11.826  15.901   8.562 -0.1279  0.1794  0.0777
  407loPI    C1 6497   8.462  12.926  11.155  0.1057  0.1502 -0.0962
  407loPI    C2 6498   8.173  13.185  11.254 -0.0431 -0.1324  0.2269
  407loPI    C3 6499   8.507  13.165  11.473  0.0682 -0.0555  0.0657
  407loPI   PO4 6500   8.509  12.906  10.840 -0.0100 -0.4340  0.1636
  407loPI   GL1 6501   8.595  13.056  10.316  0.0720 -0.4760 -0.3981
  407loPI   GL2 6502   8.643  12.927  10.046  0.1243 -0.3218 -0.1173
  407loPI   C1A 6503   8.461  13.327   9.941 -0.0340 -0.0752 -0.3625
  407loPI   C2A 6504   8.529  13.299   9.551  0.2369  0.1634 -0.1032
  407loPI   C3A 6505   8.503  13.328   9.101  0.1106 -0.1101 -0.2326
  407loPI   C4A 6506   8.632  13.342   8.708 -0.0831  0.1724 -0.2158
  407loPI   C5A 6507   8.573  13.509   8.273 -0.1682 -0.0021 -0.0011
  407loPI   C6A 6508   8.488  13.942   8.106 -0.1178 -0.1123 -0.1231
  407loPI   C1B 6509   8.690  12.808   9.557  0.0327  0.0525  0.0673
  407loPI   C2B 6510   8.640  12.842   9.063  0.0518  0.0564 -0.2602
  407loPI   C3B 6511   8.673  12.817   8.665 -0.0471 -0.0242  0.0832
  407loPI   C4B 6512   8.677  13.007   8.252  0.0361 -0.3628 -0.0676
  408loPI    C1 6513  13.158  15.431  10.717 -0.1265 -0.2768 -0.0408
  408loPI    C2 6514  12.926  15.253  10.989 -0.0536 -0.0056  0.2032
  408loPI    C3 6515  13.324  15.225  11.017 -0.0484 -0.1605 -0.0034
  408loPI   PO4 6516  13.107  15.440  10.494  0.2915  0.1279 -0.0078
  408loPI   GL1 6517  13.363  15.695  10.236 -0.1737 -0.1495 -0.0479
  408loPI   GL2 6518  13.642  16.002  10.160 -0.2975  0.0233 -0.0536
  408loPI   C1A 6519  13.275  15.703   9.812 -0.2818 -0.0066 -0.2319
  408loPI   C2A 6520  13.258  15.725   9.377  0.3102  0.0418  0.1795
  408loPI   C3A 6521  13.295  15.690   8.917 -0.0470 -0.1095 -0.0636
  408loPI   C4A 6522  13.209  15.685   8.460  0.0339  0.1631  0.0741
  408loPI   C5A 6523  13.048  15.623   8.073 -0.2426  0.0338 -0.1073
  408loPI   C6A 6524  12.871  15.282   7.916 -0.1809  0.0784 -0.3545
  408loPI   C1B 6525  13.738  16.018   9.752  0.1858  0.0325  0.2423
  408loPI   C2B 6526  13.694  16.012   9.342 -0.2362 -0.0881  0.3047
  408loPI   C3B 6527  13.725  15.969   8.865  0.1108  0.0531  0.2997
  408loPI   C4B 6528  13.710  16.024   8.426 -0.1031 -0.2630 -0.2112
  409loPI    C1 6529   1.772  12.614  10.883  0.0913  0.0791  0.1072
  409loPI    C2 6530   1.705  12.861  11.190  0.0452 -0.0901  0.2345
  409loPI    C3 6531   1.693  12.465  11.246 -0.0338 -0.1223 -0.0010
  409loPI   PO4 6532   1.651  12.759  10.667  0.0120 -0.1430  0.0054
  409loPI   GL1 6533   1.598  12.821  10.198 -0.0063  0.1504  0.3234
  409loPI   GL2 6534   1.837  13.024  10.083  0.0051  0.2229 -0.2066
  409loPI   C1A 6535   1.323  12.958   9.843 -0.1449  0.1624 -0.2249
  409loPI   C2A 6536   1.280  12.814   9.426  0.0709  0.0303  0.1683
  409loPI   C3A 6537   1.433  12.858   8.984  0.1383 -0.1522  0.1540
  409loPI   C4A 6538   1.402  12.940   8.613  0.5021 -0.2750  0.0890
  409loPI   C5A 6539   1.371  12.899   8.176  0.1861 -0.1060  0.2274
  409loPI   C6A 6540   1.517  13.014   7.796  0.0092  0.2749 -0.0872
  409loPI   C1B 6541   1.756  12.773   9.593  0.1570  0.1095 -0.1881
  409loPI   C2B 6542   1.885  12.722   9.239  0.0421  0.0765 -0.0629
  409loPI   C3B 6543   1.933  12.664   8.728 -0.0822 -0.1097  0.0204
  409loPI   C4B 6544   1.840  12.845   8.387 -0.0581  0.1094  0.1318
  410loPI    C1 6545  15.612  15.615  10.847 -0.0678 -0.2530  0.0661
  410loPI    C2 6546  15.520  15.345  11.128 -0.3500 -0.0001  0.2219
  410loPI    C3 6547  15.417  15.729  11.177 -0.2398  0.0802 -0.1450
  410loPI   PO4 6548  15.537  15.493  10.554  0.1715  0.0267  0.2505
  410loPI   GL1 6549  15.586  15.220  10.279  0.0456  0.0024  0.1713
  410loPI   GL2 6550  15.714  15.236   9.999 -0.1096 -0.1078  0.3302
  410loPI   C1A 6551  15.259  15.117   9.988 -0.1776 -0.1634 -0.1334
  410loPI   C2A 6552  15.188  14.960   9.426 -0.2556  0.2832 -0.0824
  410loPI   C3A 6553  15.102  14.935   8.973 -0.3690  0.0472 -0.0081
  410loPI   C4A 6554  15.112  14.927   8.500  0.1198  0.2889 -0.0858
  410loPI   C5A 6555  15.174  15.008   8.120 -0.3329 -0.3613  0.0491
  410loPI   C6A 6556  15.370  15.391   7.830 -0.0894 -0.1661  0.0578
  410loPI   C1B 6557  15.651  15.211   9.594 -0.0707  0.2517  0.2145
  410loPI   C2B 6558  15.565  15.209   9.108 -0.1707  0.1434 -0.0238
  410loPI   C3B 6559  15.609  15.302   8.667  0.1903 -0.1415  0.1604
  410loPI   C4B 6560  15.648  15.215   8.251 -0.2722 -0.0558  0.1596
  411loPI    C1 6561   4.753   9.778  10.794 -0.0262  0.0592  0.1361
  411loPI    C2 6562   4.844  10.075  10.543 -0.0463 -0.0371  0.0137
  411loPI    C3 6563   4.930  10.109  10.932 -0.1563  0.1778  0.0206
  411loPI   PO4 6564   4.577   9.690  10.585  0.1604  0.0771  0.0164
  411loPI   GL1 6565   4.504   9.681  10.195  0.0374  0.0011  0.0528
  411loPI   GL2 6566   4.297   9.480  10.078  0.2821  0.2705 -0.2173
  411loPI   C1A 6567   4.628   9.841   9.755  0.2996 -0.2304 -0.1907
  411loPI   C2A 6568   4.614   9.818   9.386 -0.1264 -0.1985 -0.1218
  411loPI   C3A 6569   4.311   9.717   8.976  0.1613 -0.0659 -0.1099
  411loPI   C4A 6570   4.352   9.712   8.505 -0.1020 -0.0426 -0.1116
  411loPI   C5A 6571   4.257   9.871   8.144 -0.0959  0.0087  0.1934
  411loPI   C6A 6572   3.963   9.956   7.862  0.3808  0.1030  0.1452
  411loPI   C1B 6573   4.286   9.399   9.688  0.0715  0.0584  0.1741
  411loPI   C2B 6574   4.407   9.310   9.322 -0.0883  0.3880  0.1170
  411loPI   C3B 6575   4.459   9.261   8.832 -0.0844 -0.1418  0.2545
  411loPI   C4B 6576   4.556   9.252   8.433 -0.1032  0.2076  0.1124
  412loPI    C1 6577  18.078   4.894  10.117  0.0494  0.0721  0.0607
  412loPI    C2 6578  18.224   4.694  10.431 -0.0224 -0.2754 -0.1219
  412loPI    C3 6579  17.830   4.756  10.398 -0.0202 -0.2870 -0.1707
  412loPI   PO4 6580  18.183   4.823   9.953 -0.0095 -0.2898 -0.1687
  412loPI   GL1 6581  18.144   4.860   9.573 -0.1097  0.1350  0.4923
  412loPI   GL2 6582  17.958   5.211   9.724  0.1824 -0.2926 -0.0644
  412loPI   C1A 6583  18.089   4.900   9.035 -0.0524  0.0170 -0.1764
  412loPI   C2A 6584  18.025   4.952   8.638 -0.0099  0.2396  0.0152
  412loPI   C3A 6585  18.105   4.953   8.169 -0.0626  0.2574 -0.0174
  412loPI   C4A 6586  18.006   4.891   7.647  0.0532  0.1364  0.0958
  412loPI   C5A 6587  18.277   4.724   7.300 -0.0678 -0.0894 -0.3134
  412loPI   C6A 6588  18.624   4.495   7.327 -0.1200  0.1668 -0.0733
  412loPI   C1B 6589  17.805   5.296   9.259 -0.4343 -0.2253  0.0314
  412loPI   C2B 6590  17.820   5.365   8.772  0.2878 -0.0446 -0.3373
  412loPI   C3B 6591  17.820   5.331   8.363 -0.3517  0.0983 -0.1462
  412loPI   C4B 6592  17.874   5.405   7.891  0.0651  0.3433  0.3428
  413loPI    C1 6593   1.661   2.690  10.456  0.1908  0.1987 -0.0285
  413loPI    C2 6594   1.943   2.414  10.525  0.0598  0.0738  0.0125
  413loPI    C3 6595   1.769   2.604  10.831  0.0407  0.0911 -0.0091
  413loPI   PO4 6596   1.640   2.601  10.182  0.0114 -0.1762  0.0366
  413loPI   GL1 6597   1.728   2.494   9.734  0.0788  0.0993  0.2202
  413loPI   GL2 6598   1.972   2.430   9.626  0.0398  0.1594  0.0900
  413loPI   C1A 6599   1.566   2.375   9.373 -0.0097 -0.2839  0.1986
  413loPI   C2A 6600   1.647   2.421   8.863  0.0332 -0.2006 -0.1866
  413loPI   C3A 6601   1.574   2.519   8.436 -0.1465  0.1525  0.1688
  413loPI   C4A 6602   1.546   2.422   8.006 -0.0801 -0.0104  0.2375
  413loPI   C5A 6603   1.837   2.328   7.653  0.0699  0.3296  0.1614
  413loPI   C6A 6604   2.303   2.276   7.606 -0.1190  0.2187 -0.0891
  413loPI   C1B 6605   2.030   2.556   9.232  0.0362 -0.0484 -0.3229
  413loPI   C2B 6606   2.126   2.607   8.828 -0.0318 -0.1452 -0.1616
  413loPI   C3B 6607   2.186   2.570   8.437  0.0186 -0.0507 -0.1450
  413loPI   C4B 6608   2.004   2.750   8.170  0.1269  0.0475  0.0669
  414loPI    C1 6609   5.695  12.282  10.846 -0.0675  0.1279 -0.1643
  414loPI    C2 6610   5.334  12.386  10.985  0.0725 -0.0562  0.3611
  414loPI    C3 6611   5.657  12.424  11.218  0.3751 -0.0396 -0.0490
  414loPI   PO4 6612   5.730  12.355  10.541 -0.2227 -0.3232 -0.2916
  414loPI   GL1 6613   6.023  12.522  10.297 -0.0954  0.0439 -0.1529
  414loPI   GL2 6614   6.248  12.573  10.290 -0.1015  0.3864  0.0481
  414loPI   C1A 6615   5.899  12.488   9.937  0.0410 -0.1580  0.4613
  414loPI   C2A 6616   5.977  12.352   9.494  0.0306  0.0257  0.0394
  414loPI   C3A 6617   5.976  12.429   9.065 -0.1467  0.0550 -0.1874
  414loPI   C4A 6618   5.873  12.435   8.643 -0.1111 -0.2074  0.0367
  414loPI   C5A 6619   5.641  12.383   8.379 -0.0909  0.1197  0.2123
  414loPI   C6A 6620   5.265  12.195   8.077 -0.0936  0.0055 -0.3130
  414loPI   C1B 6621   6.346  12.786   9.924 -0.1501  0.1142 -0.2931
  414loPI   C2B 6622   6.281  12.756   9.450 -0.0207  0.1605 -0.2451
  414loPI   C3B 6623   6.348  12.798   9.066 -0.0156  0.0910 -0.0944
  414loPI   C4B 6624   6.216  12.759   8.598  0.2202 -0.0410  0.0870
  415loPI    C1 6625   1.652  10.337  10.452  0.0647  0.1019  0.1369
  415loPI    C2 6626   1.989  10.157  10.571 -0.0091 -0.1492 -0.0253
  415loPI    C3 6627   1.849  10.474  10.772  0.1573 -0.2326  0.2269
  415loPI   PO4 6628   1.518  10.153  10.347  0.2231 -0.0330  0.1438
  415loPI   GL1 6629   1.466   9.895   9.981  0.0387 -0.1841 -0.0334
  415loPI   GL2 6630   1.161   9.911   9.798 -0.1874 -0.1395 -0.0834
  415loPI   C1A 6631   1.577   9.858   9.541  0.2436 -0.2769 -0.2327
  415loPI   C2A 6632   1.730   9.813   9.108  0.4209  0.2641 -0.1781
  415loPI   C3A 6633   1.718   9.838   8.667 -0.2057  0.0424 -0.0784
  415loPI   C4A 6634   1.675   9.780   8.313  0.0625 -0.0150 -0.1962
  415loPI   C5A 6635   2.045   9.887   8.139  0.0946 -0.3242  0.0980
  415loPI   C6A 6636   2.136  10.271   7.761  0.3323  0.2852  0.2066
  415loPI   C1B 6637   1.111   9.785   9.343  0.0495 -0.1691 -0.0814
  415loPI   C2B 6638   1.180   9.844   8.945  0.1700  0.0664 -0.0415
  415loPI   C3B 6639   1.270   9.811   8.563 -0.2394  0.2165 -0.1263
  415loPI   C4B 6640   1.140   9.914   8.199 -0.3413 -0.0053  0.1581
  416loPI    C1 6641  17.357  12.408  10.601  0.0173 -0.0622 -0.0049
  416loPI    C2 6642  17.497  12.486  10.968 -0.1670 -0.0645  0.0672
  416loPI    C3 6643  17.617  12.157  10.773 -0.1056 -0.0883  0.1447
  416loPI   PO4 6644  17.388  12.619  10.433  0.1109 -0.1508 -0.1794
  416loPI   GL1 6645  17.515  12.607   9.986  0.2518  0.3425 -0.4663
  416loPI   GL2 6646  17.287  12.725   9.875  0.0435  0.3934  0.2102
  416loPI   C1A 6647  17.704  12.500   9.586 -0.0145  0.0710 -0.0313
  416loPI   C2A 6648  17.774  12.522   9.131 -0.0314  0.4586 -0.0403
  416loPI   C3A 6649  17.765  12.588   8.713 -0.1563  0.3734 -0.0001
  416loPI   C4A 6650  17.839  12.674   8.380  0.2321 -0.1826 -0.5164
  416loPI   C5A 6651  17.584  12.784   8.086 -0.2947 -0.3254  0.2372
  416loPI   C6A 6652  17.445  13.132   7.801  0.1289  0.0451 -0.0386
  416loPI   C1B 6653  17.217  12.817   9.410 -0.1660  0.1857  0.2455
  416loPI   C2B 6654  17.166  12.846   8.933  0.0363 -0.2943  0.0142
  416loPI   C3B 6655  17.303  12.917   8.568  0.1644  0.2329 -0.0679
  416loPI   C4B 6656  17.141  12.949   8.195 -0.2122 -0.0031 -0.1228
  417loPI    C1 6657  17.994   7.536  10.892  0.0168  0.1593 -0.1842
  417loPI    C2 6658  17.775   7.319  11.147  0.0302  0.2109 -0.1286
  417loPI    C3 6659  18.164   7.241  11.101 -0.0072  0.0944 -0.2558
  417loPI   PO4 6660  17.862   7.563  10.651 -0.0270  0.1865  0.0417
  417loPI   GL1 6661  17.752   7.254  10.321  0.1849 -0.1193 -0.0622
  417loPI   GL2 6662  17.513   7.484  10.270  0.1144 -0.1053 -0.0729
  417loPI   C1A 6663  17.830   7.174   9.948 -0.0493 -0.1167 -0.0727
  417loPI   C2A 6664  17.852   7.090   9.486  0.1609  0.1517  0.3282
  417loPI   C3A 6665  17.833   7.119   9.129  0.0302 -0.1068  0.0293
  417loPI   C4A 6666  17.878   7.160   8.715 -0.0910 -0.3094 -0.2187
  417loPI   C5A 6667  17.816   7.268   8.313 -0.0767  0.0765 -0.1664
  417loPI   C6A 6668  17.818   7.122   7.827  0.2477 -0.1733  0.0085
  417loPI   C1B 6669  17.512   7.670   9.842 -0.2509 -0.0277  0.0033
  417loPI   C2B 6670  17.600   7.647   9.446  0.0684  0.0029  0.3574
  417loPI   C3B 6671  17.602   7.521   8.996  0.2056  0.1218  0.3854
  417loPI   C4B 6672  17.597   7.640   8.565  0.0348  0.3298  0.0055
  418loPI    C1 6673  18.169   8.768  10.632  0.0855  0.0418  0.0107
  418loPI    C2 6674  18.458   8.878  10.886  0.1809  0.2722 -0.1935
  418loPI    C3 6675  18.081   8.839  11.015  0.3585 -0.4048  0.1628
  418loPI   PO4 6676  18.202   8.907  10.429  0.3172  0.1523 -0.0919
  418loPI   GL1 6677  17.883   8.878  10.152  0.2587 -0.1504 -0.0825
  418loPI   GL2 6678  18.099   8.655   9.945  0.1440  0.0457 -0.0575
  418loPI   C1A 6679  17.777   8.933   9.707 -0.0973  0.0199 -0.0486
  418loPI   C2A 6680  17.790   8.878   9.293  0.0706  0.2526 -0.1028
  418loPI   C3A 6681  17.893   8.927   8.929 -0.0532  0.1916  0.0854
  418loPI   C4A 6682  17.923   8.981   8.506 -0.0243 -0.3357  0.1504
  418loPI   C5A 6683  17.958   8.870   8.037  0.1234 -0.0740  0.0577
  418loPI   C6A 6684  17.525   8.644   7.799 -0.3315  0.4624  0.0567
  418loPI   C1B 6685  18.128   8.458   9.471  0.4476 -0.1097 -0.0900
  418loPI   C2B 6686  18.095   8.418   9.004  0.1799 -0.3581  0.0064
  418loPI   C3B 6687  18.205   8.514   8.619 -0.3020 -0.2224 -0.2690
  418loPI   C4B 6688  18.422   8.703   8.198  0.3033  0.1909  0.1383
  419loPI    C1 6689   9.278  17.058  10.937 -0.3213  0.0095  0.1471
  419loPI    C2 6690   9.527  16.779  11.079  0.0361  0.2040 -0.0835
  419loPI    C3 6691   9.434  17.096  11.304 -0.2341 -0.0089  0.1121
  419loPI   PO4 6692   9.416  17.019  10.663  0.3291  0.1046  0.0550
  419loPI   GL1 6693   9.327  17.012  10.225  0.0073  0.0471 -0.0605
  419loPI   GL2 6694   9.089  16.789  10.324  0.1232 -0.1620  0.2631
  419loPI   C1A 6695   9.557  16.950   9.935 -0.0290  0.6534 -0.1028
  419loPI   C2A 6696   9.539  16.894   9.580 -0.0219  0.2893 -0.3119
  419loPI   C3A 6697   9.622  16.817   9.172 -0.0310  0.1579 -0.3330
  419loPI   C4A 6698   9.473  16.954   8.840 -0.0511  0.1830 -0.2863
  419loPI   C5A 6699   9.481  16.831   8.438  0.0631 -0.1875  0.0906
  419loPI   C6A 6700   9.847  16.613   8.257 -0.3523 -0.0578 -0.1991
  419loPI   C1B 6701   9.193  16.540   9.938 -0.2224 -0.1297  0.0292
  419loPI   C2B 6702   9.167  16.511   9.511  0.0562  0.1360 -0.0894
  419loPI   C3B 6703   9.135  16.569   9.060 -0.0872 -0.3085  0.1783
  419loPI   C4B 6704   9.099  16.579   8.592  0.0536  0.0093  0.4476
  420loPI    C1 6705  17.984   3.433  10.346  0.0435  0.1657 -0.1806
  420loPI    C2 6706  17.645   3.436  10.557  0.1209 -0.0588 -0.0489
  420loPI    C3 6707  17.980   3.291  10.719  0.2826  0.1645 -0.1770
  420loPI   PO4 6708  17.836   3.326  10.116 -0.1550 -0.2081  0.2720
  420loPI   GL1 6709  17.808   2.936   9.961 -0.0325 -0.1480  0.0758
  420loPI   GL2 6710  17.455   3.140   9.849  0.1922  0.0957 -0.0470
  420loPI   C1A 6711  17.784   2.864   9.521 -0.2580  0.1467 -0.0862
  420loPI   C2A 6712  17.804   2.830   9.071  0.0818  0.2028 -0.2895
  420loPI   C3A 6713  17.694   2.820   8.746  0.0591 -0.1124 -0.3102
  420loPI   C4A 6714  17.643   2.897   8.298 -0.0838  0.0977 -0.2669
  420loPI   C5A 6715  17.430   2.803   7.789 -0.0680  0.1517  0.0261
  420loPI   C6A 6716  17.382   2.713   7.176 -0.0558  0.2444  0.1728
  420loPI   C1B 6717  17.313   3.121   9.482 -0.0303  0.1949  0.0142
  420loPI   C2B 6718  17.319   3.090   9.047  0.2398  0.0198 -0.0556
  420loPI   C3B 6719  17.209   3.036   8.690  0.0648  0.1432  0.0146
  420loPI   C4B 6720  17.139   2.951   8.201 -0.0696  0.2838 -0.2976
  421loPI    C1 6721  10.362   7.895  10.858  0.0386  0.0522  0.1345
  421loPI    C2 6722  10.637   7.635  10.988  0.0746 -0.1273 -0.2854
  421loPI    C3 6723  10.723   8.025  10.969  0.0942 -0.1063  0.1416
  421loPI   PO4 6724  10.331   7.793  10.571  0.1598 -0.0969 -0.0398
  421loPI   GL1 6725  10.249   7.972  10.206  0.0770 -0.1536 -0.0419
  421loPI   GL2 6726   9.912   7.887  10.216  0.4013 -0.2059  0.2166
  421loPI   C1A 6727  10.044   8.113   9.766  0.2102  0.3610 -0.0682
  421loPI   C2A 6728  10.063   8.015   9.309 -0.0249  0.1886 -0.0696
  421loPI   C3A 6729  10.003   8.036   8.875  0.0017 -0.0493 -0.0888
  421loPI   C4A 6730   9.970   8.051   8.449  0.0398  0.0375 -0.1732
  421loPI   C5A 6731   9.898   8.224   8.045  0.4240  0.2654 -0.0653
  421loPI   C6A 6732  10.021   8.432   7.690  0.0422 -0.0927  0.2709
  421loPI   C1B 6733   9.798   7.623   9.840 -0.4263 -0.0839  0.3366
  421loPI   C2B 6734   9.821   7.605   9.399 -0.2300 -0.0923  0.2739
  421loPI   C3B 6735   9.746   7.599   8.932 -0.4460 -0.0989 -0.0793
  421loPI   C4B 6736   9.765   7.619   8.537 -0.0719 -0.2095 -0.2195
  422loPI    C1 6737   3.317   0.830  10.555 -0.0466 -0.0697  0.1420
  422loPI    C2 6738   3.276   1.159  10.331 -0.1293 -0.0979  0.1153
  422loPI    C3 6739   3.527   1.159  10.642 -0.0714 -0.0342  0.0690
  422loPI   PO4 6740   3.371   0.706  10.349 -0.0434  0.0319  0.0534
  422loPI   GL1 6741   3.436   0.707   9.906 -0.1254 -0.1338  0.4146
  422loPI   GL2 6742   3.389   0.362   9.882  0.1236  0.0504 -0.1057
  422loPI   C1A 6743   3.270   0.604   9.496 -0.0139  0.2339  0.1071
  422loPI   C2A 6744   3.243   0.577   9.095  0.0202 -0.0724 -0.0386
  422loPI   C3A 6745   3.261   0.686   8.674  0.0128 -0.0889 -0.0651
  422loPI   C4A 6746   3.217   0.549   8.230  0.0203  0.0785 -0.0945
  422loPI   C5A 6747   2.844   0.698   7.930 -0.0883  0.3665 -0.2170
  422loPI   C6A 6748   2.555   1.063   7.763  0.1160 -0.0039 -0.0475
  422loPI   C1B 6749   3.368   0.082   9.588  0.1142  0.1020 -0.0964
  422loPI   C2B 6750   3.330   0.128   9.213  0.1292 -0.1928 -0.2143
  422loPI   C3B 6751   3.400   0.151   8.779 -0.1820  0.2102 -0.2309
  422loPI   C4B 6752   3.328   0.046   8.381  0.1481  0.0373  0.0279
  423loPI    C1 6753   5.072   4.601  10.776  0.0963 -0.1016  0.0464
  423loPI    C2 6754   5.087   4.870  11.072  0.0353 -0.0084 -0.0344
  423loPI    C3 6755   4.923   4.511  11.136 -0.1029  0.0614  0.0070
  423loPI   PO4 6756   5.111   4.825  10.508 -0.2301 -0.0604  0.0938
  423loPI   GL1 6757   4.857   4.843   9.993  0.1562 -0.0674 -0.1243
  423loPI   GL2 6758   4.548   4.829  10.093  0.2187 -0.2349  0.0597
  423loPI   C1A 6759   5.039   4.740   9.627 -0.3283  0.0320  0.1498
  423loPI   C2A 6760   5.113   4.744   9.103  0.1417  0.0506  0.0569
  423loPI   C3A 6761   5.027   4.750   8.675 -0.0007 -0.0580  0.0059
  423loPI   C4A 6762   5.315   4.850   8.309 -0.2576  0.1984 -0.2157
  423loPI   C5A 6763   5.329   4.958   7.864 -0.0069  0.4018 -0.1316
  423loPI   C6A 6764   5.676   5.219   7.807 -0.0769  0.1254  0.0033
  423loPI   C1B 6765   4.479   4.775   9.686 -0.2456 -0.1624  0.2088
  423loPI   C2B 6766   4.631   4.682   9.329 -0.1228 -0.1373 -0.0903
  423loPI   C3B 6767   4.564   4.804   8.902 -0.1259 -0.0476 -0.1219
  423loPI   C4B 6768   4.520   4.772   8.450  0.0352  0.0677 -0.1905
  424loPI    C1 6769  16.788  16.422  10.497 -0.0157  0.1460  0.0372
  424loPI    C2 6770  17.004  16.517  10.820  0.1024  0.2485 -0.0711
  424loPI    C3 6771  16.722  16.234  10.844  0.3869 -0.0338  0.0227
  424loPI   PO4 6772  16.899  16.283  10.232 -0.2893  0.0835  0.0223
  424loPI   GL1 6773  17.062  16.130   9.880  0.0226  0.0119 -0.0798
  424loPI   GL2 6774  17.313  15.991   9.984 -0.0968  0.1309 -0.0303
  424loPI   C1A 6775  16.824  16.079   9.476  0.0718  0.0494 -0.0737
  424loPI   C2A 6776  16.909  16.067   9.023 -0.0461 -0.0214 -0.1995
  424loPI   C3A 6777  16.836  16.030   8.625 -0.1150  0.1402  0.1480
  424loPI   C4A 6778  16.818  15.992   8.185 -0.2614  0.1737 -0.2772
  424loPI   C5A 6779  17.068  15.989   7.868  0.1306  0.0205  0.2444
  424loPI   C6A 6780  17.027  15.718   7.464 -0.0677  0.0155 -0.0601
  424loPI   C1B 6781  17.326  15.859   9.554  0.0612  0.1785 -0.0625
  424loPI   C2B 6782  17.341  15.793   9.209  0.2485  0.0636 -0.0082
  424loPI   C3B 6783  17.353  15.984   8.820  0.0043 -0.1751  0.0077
  424loPI   C4B 6784  17.401  15.870   8.386 -0.2752  0.0610  0.0571
  425loPI    C1 6785   3.680   7.134  10.987 -0.1667  0.1904 -0.2087
  425loPI    C2 6786   3.735   6.851  11.264 -0.1272  0.0781 -0.3299
  425loPI    C3 6787   3.956   7.185  11.273 -0.0798  0.0453 -0.2660
  425loPI   PO4 6788   3.774   7.042  10.755  0.0320 -0.1966 -0.1432
  425loPI   GL1 6789   3.989   7.027  10.407 -0.2728  0.1353  0.0890
  425loPI   GL2 6790   3.970   6.686  10.406  0.1453  0.1557 -0.0651
  425loPI   C1A 6791   4.170   7.115  10.047 -0.1437  0.0845 -0.1782
  425loPI   C2A 6792   4.234   7.140   9.504 -0.1034  0.0646 -0.0842
  425loPI   C3A 6793   4.230   7.019   9.080 -0.4864 -0.4125  0.0074
  425loPI   C4A 6794   4.171   7.002   8.595  0.1004 -0.1244  0.1734
  425loPI   C5A 6795   3.890   7.222   8.347 -0.1952 -0.0905 -0.0789
  425loPI   C6A 6796   3.672   7.478   8.100  0.3382 -0.1839  0.0580
  425loPI   C1B 6797   3.937   6.542  10.033  0.0701 -0.2994  0.1237
  425loPI   C2B 6798   3.891   6.645   9.612  0.0286 -0.1169  0.3190
  425loPI   C3B 6799   4.022   6.610   9.174  0.1661  0.1165 -0.0760
  425loPI   C4B 6800   4.065   6.518   8.786  0.2370  0.0712  0.1420
  426loPI    C1 6801  17.144   3.939  10.472 -0.1016  0.1515  0.2345
  426loPI    C2 6802  17.543   3.943  10.501 -0.0668  0.2374 -0.1817
  426loPI    C3 6803  17.321   4.166  10.749  0.1278  0.0205  0.1972
  426loPI   PO4 6804  17.046   4.055  10.259 -0.0964 -0.0831  0.0862
  426loPI   GL1 6805  17.069   4.074   9.843  0.2900 -0.1184 -0.0872
  426loPI   GL2 6806  16.781   4.019   9.734  0.0395  0.1031  0.0323
  426loPI   C1A 6807  17.120   4.005   9.394  0.2093 -0.1050 -0.0110
  426loPI   C2A 6808  17.007   3.905   9.010 -0.0048  0.2059 -0.0198
  426loPI   C3A 6809  16.992   3.953   8.656 -0.0086 -0.0544 -0.2204
  426loPI   C4A 6810  16.943   3.910   8.294  0.0119  0.0700  0.0074
  426loPI   C5A 6811  16.960   3.801   7.883 -0.1202 -0.0184  0.3623
  426loPI   C6A 6812  16.707   3.579   7.684  0.1135  0.1616 -0.1984
  426loPI   C1B 6813  16.640   4.027   9.350 -0.2695  0.3763 -0.3047
  426loPI   C2B 6814  16.494   4.011   8.927 -0.0364  0.0483  0.0529
  426loPI   C3B 6815  16.474   3.873   8.461 -0.3211 -0.0241  0.3764
  426loPI   C4B 6816  16.442   3.851   8.044 -0.0976 -0.3128 -0.1355
  427loPI    C1 6817   3.979  18.108  10.475  0.0329  0.1508 -0.1173
  427loPI    C2 6818   4.228  18.080  10.787  0.0441 -0.0279 -0.1415
  427loPI    C3 6819   4.373  18.071  10.414  0.0211  0.0824 -0.1532
  427loPI   PO4 6820   3.888  18.326  10.442 -0.0440 -0.2715 -0.0943
  427loPI   GL1 6821   3.834  18.332   9.956 -0.1414  0.2526  0.0841
  427loPI   GL2 6822   4.173  18.145   9.979 -0.1193 -0.2682 -0.0517
  427loPI   C1A 6823   3.804  18.270   9.469  0.0275  0.2540 -0.1014
  427loPI   C2A 6824   3.772  18.255   9.077 -0.1118 -0.0461 -0.1486
  427loPI   C3A 6825   3.840  18.129   8.694  0.1102  0.2194  0.0424
  427loPI   C4A 6826   3.747  18.176   8.309 -0.0100 -0.0847  0.0061
  427loPI   C5A 6827   3.778  18.261   7.929  0.2629 -0.2543  0.1849
  427loPI   C6A 6828   3.676  18.179   7.375  0.1015 -0.1954 -0.2615
  427loPI   C1B 6829   4.343  18.119   9.587  0.1373 -0.1752 -0.0426
  427loPI   C2B 6830   4.253  18.061   9.125 -0.0953 -0.0961 -0.1045
  427loPI   C3B 6831   4.311  18.010   8.745  0.1725  0.0681  0.5060
  427loPI   C4B 6832   4.213  17.928   8.307  0.1565 -0.2197  0.1138
  428loPI    C1 6833   5.218   8.239  11.198  0.1049 -0.0878 -0.1203
  428loPI    C2 6834   5.436   8.308  11.526  0.0352  0.0118 -0.0942
  428loPI    C3 6835   5.124   8.543  11.441 -0.1588 -0.2234 -0.0474
  428loPI   PO4 6836   5.388   8.157  11.049 -0.0787  0.1480 -0.0801
  428loPI   GL1 6837   5.653   8.171  10.664 -0.3822  0.3237 -0.2776
  428loPI   GL2 6838   5.322   8.154  10.551 -0.1346 -0.0562 -0.3818
  428loPI   C1A 6839   5.898   8.295  10.230 -0.0470  0.0978  0.0088
  428loPI   C2A 6840   5.977   8.477   9.958 -0.2489  0.2414  0.2084
  428loPI   C3A 6841   6.009   8.428   9.597  0.0720 -0.2918  0.0991
  428loPI   C4A 6842   6.043   8.357   9.099 -0.0743 -0.1016 -0.0546
  428loPI   C5A 6843   6.081   8.461   8.655 -0.1730  0.3232  0.1206
  428loPI   C6A 6844   6.040   8.641   8.344 -0.0220  0.0369  0.1109
  428loPI   C1B 6845   5.412   8.347  10.139 -0.1423  0.0874 -0.0383
  428loPI   C2B 6846   5.472   8.480   9.869  0.2057  0.1530  0.0021
  428loPI   C3B 6847   5.509   8.471   9.393 -0.1720  0.2474  0.1606
  428loPI   C4B 6848   5.585   8.352   8.903  0.0289  0.1621  0.1013
  429loPI    C1 6849   1.554   4.006  10.335  0.0581  0.1679  0.0733
  429loPI    C2 6850   1.722   3.645  10.300 -0.0315  0.1049  0.2787
  429loPI    C3 6851   1.533   3.746  10.638  0.0480  0.3679  0.2468
  429loPI   PO4 6852   1.571   4.050   9.966 -0.2804  0.3094  0.0656
  429loPI   GL1 6853   1.645   3.941   9.645 -0.3020  0.3349 -0.0137
  429loPI   GL2 6854   1.941   3.967   9.531  0.2685 -0.2861 -0.1852
  429loPI   C1A 6855   1.318   3.940   9.323 -0.1328 -0.2563  0.3211
  429loPI   C2A 6856   1.248   3.946   8.945  0.0058  0.1931 -0.2290
  429loPI   C3A 6857   1.234   4.030   8.525  0.0139  0.1358  0.3529
  429loPI   C4A 6858   1.287   4.060   8.111  0.0569  0.0207 -0.2753
  429loPI   C5A 6859   1.180   3.745   7.755  0.0095  0.0778  0.0689
  429loPI   C6A 6860   0.942   3.714   7.445 -0.0298  0.0090  0.0461
  429loPI   C1B 6861   1.967   3.986   9.116 -0.2343 -0.3000 -0.0923
  429loPI   C2B 6862   1.940   3.904   8.667 -0.1276 -0.0974  0.0369
  429loPI   C3B 6863   1.725   3.993   8.365 -0.1959  0.3108 -0.3692
  429loPI   C4B 6864   1.892   3.735   8.016 -0.4433 -0.1682 -0.2203
  430loPI    C1 6865  11.875  10.579  10.983 -0.1528 -0.2115  0.2369
  430loPI    C2 6866  11.648  10.794  11.233  0.2315 -0.0699  0.4726
  430loPI    C3 6867  12.025  10.906  11.158  0.1284 -0.1160 -0.1681
  430loPI   PO4 6868  11.666  10.522  10.769  0.0489  0.0021 -0.0376
  430loPI   GL1 6869  11.526  10.621  10.294  0.1152 -0.1047 -0.0190
  430loPI   GL2 6870  11.294  10.305  10.228  0.3965 -0.3200 -0.2001
  430loPI   C1A 6871  11.630  10.653   9.879  0.3146  0.0241  0.0732
  430loPI   C2A 6872  11.661  10.767   9.545 -0.1698  0.1586  0.0016
  430loPI   C3A 6873  11.631  10.768   9.157 -0.1007 -0.3850  0.2274
  430loPI   C4A 6874  11.642  10.745   8.729 -0.5465 -0.0999  0.1117
  430loPI   C5A 6875  11.558  10.728   8.310  0.1415  0.0721  0.0770
  430loPI   C6A 6876  11.746  10.925   7.979 -0.3007  0.2005  0.1739
  430loPI   C1B 6877  11.327  10.261   9.819  0.3482 -0.0798 -0.0677
  430loPI   C2B 6878  11.389  10.287   9.338  0.0624  0.2787  0.0744
  430loPI   C3B 6879  11.479  10.249   8.961  0.1260 -0.0844  0.0735
  430loPI   C4B 6880  11.417  10.286   8.521 -0.0852  0.2102 -0.0764
  431loPI    C1 6881   4.497   8.230  11.248 -0.3377 -0.2376 -0.1866
  431loPI    C2 6882   4.693   7.891  11.327 -0.1461 -0.1307 -0.1982
  431loPI    C3 6883   4.774   8.222  11.537 -0.2949 -0.0786 -0.2222
  431loPI   PO4 6884   4.541   8.244  10.945  0.1227 -0.0495 -0.1474
  431loPI   GL1 6885   4.634   8.085  10.549  0.0410 -0.0106  0.0157
  431loPI   GL2 6886   4.512   8.311  10.331  0.2914 -0.0692  0.0211
  431loPI   C1A 6887   4.677   7.930  10.099  0.3427  0.0175  0.0957
  431loPI   C2A 6888   4.664   7.935   9.702  0.0973  0.0099 -0.2675
  431loPI   C3A 6889   4.788   7.981   9.365  0.0851 -0.0938 -0.0186
  431loPI   C4A 6890   4.747   7.902   8.840  0.3140  0.1700 -0.5443
  431loPI   C5A 6891   4.536   7.893   8.388  0.0113  0.0210  0.0542
  431loPI   C6A 6892   4.412   7.774   7.924  0.1113 -0.2055  0.5431
  431loPI   C1B 6893   4.410   8.333   9.921  0.5164 -0.1190 -0.3432
  431loPI   C2B 6894   4.493   8.358   9.544  0.0158 -0.2063  0.4701
  431loPI   C3B 6895   4.505   8.366   9.088  0.2771 -0.0104 -0.0647
  431loPI   C4B 6896   4.472   8.312   8.629  0.2509 -0.0023  0.1291
  432loPI    C1 6897  14.855   3.098  10.772 -0.0681 -0.0826  0.1828
  432loPI    C2 6898  14.539   2.936  10.957  0.0110 -0.0946  0.3086
  432loPI    C3 6899  14.905   2.889  11.109  0.0689 -0.0447  0.1861
  432loPI   PO4 6900  14.741   3.107  10.511  0.1601  0.1634 -0.1683
  432loPI   GL1 6901  14.693   2.797  10.181  0.2035 -0.2030 -0.4547
  432loPI   GL2 6902  14.360   2.728  10.047  0.1857 -0.2260 -0.0329
  432loPI   C1A 6903  14.855   2.967   9.743  0.2651 -0.3099  0.4378
  432loPI   C2A 6904  14.935   2.949   9.327  0.0221 -0.2433  0.1486
  432loPI   C3A 6905  14.937   2.958   8.921  0.0485 -0.0257  0.0076
  432loPI   C4A 6906  14.974   3.079   8.539  0.1184 -0.0122 -0.1525
  432loPI   C5A 6907  14.967   2.799   8.173 -0.0855 -0.1881 -0.5199
  432loPI   C6A 6908  14.979   2.454   7.931 -0.1892 -0.4581  0.2947
  432loPI   C1B 6909  14.494   2.634   9.591 -0.2433 -0.1615 -0.3851
  432loPI   C2B 6910  14.451   2.670   9.134 -0.0386 -0.1519  0.0273
  432loPI   C3B 6911  14.459   2.706   8.766  0.1655  0.2125  0.1158
  432loPI   C4B 6912  14.598   2.702   8.460  0.1887  0.2194 -0.1040
  433loPI    C1 6913   7.996   9.543  11.129 -0.0704  0.0191 -0.0051
  433loPI    C2 6914   8.354   9.715  11.084 -0.1557  0.1885 -0.0430
  433loPI    C3 6915   8.197   9.673  11.449 -0.0806  0.0785 -0.0229
  433loPI   PO4 6916   7.913   9.553  10.856  0.1513 -0.0900  0.2045
  433loPI   GL1 6917   7.895   9.377  10.508 -0.0921  0.2978 -0.0096
  433loPI   GL2 6918   8.109   9.331  10.370  0.0786 -0.1084 -0.0537
  433loPI   C1A 6919   7.710   9.408  10.102 -0.0818 -0.1132 -0.2853
  433loPI   C2A 6920   7.736   9.391   9.687 -0.2075  0.2649  0.0380
  433loPI   C3A 6921   7.626   9.347   9.229  0.1057 -0.0064 -0.2440
  433loPI   C4A 6922   7.646   9.395   8.737 -0.0209  0.0328 -0.4470
  433loPI   C5A 6923   7.616   9.241   8.307 -0.3278  0.1410 -0.2398
  433loPI   C6A 6924   7.481   8.933   8.022 -0.1422 -0.1817 -0.2748
  433loPI   C1B 6925   8.190   9.446  10.072 -0.2698 -0.0216  0.1136
  433loPI   C2B 6926   8.290   9.336   9.697  0.2225  0.3530 -0.1097
  433loPI   C3B 6927   8.205   9.354   9.264 -0.4450  0.0034  0.0460
  433loPI   C4B 6928   8.141   9.375   8.864 -0.0357 -0.1262 -0.0464
  434loPI    C1 6929   2.983  11.259  10.482  0.1781  0.1291 -0.0203
  434loPI    C2 6930   3.236  11.162  10.776  0.0734 -0.3113 -0.0683
  434loPI    C3 6931   2.842  11.157  10.841  0.0638  0.2918 -0.0178
  434loPI   PO4 6932   3.140  11.219  10.253  0.1281  0.0330  0.0677
  434loPI   GL1 6933   2.794  11.199  10.004 -0.3971 -0.0489  0.2407
  434loPI   GL2 6934   2.871  10.880  10.020  0.1939  0.0005 -0.2328
  434loPI   C1A 6935   2.832  11.324   9.604 -0.2818  0.1126  0.0046
  434loPI   C2A 6936   2.842  11.387   9.167  0.2568  0.2186 -0.0192
  434loPI   C3A 6937   2.615  11.194   8.839  0.1328  0.1833  0.4332
  434loPI   C4A 6938   2.773  11.246   8.362  0.2776  0.1570  0.0393
  434loPI   C5A 6939   2.549  11.363   8.045 -0.3442 -0.1710  0.2856
  434loPI   C6A 6940   2.319  11.700   7.779 -0.1839  0.2570 -0.1151
  434loPI   C1B 6941   2.736  10.801   9.603 -0.0892 -0.2541  0.0134
  434loPI   C2B 6942   2.612  10.816   9.202 -0.1367 -0.2635 -0.2686
  434loPI   C3B 6943   2.820  10.728   8.939  0.1652 -0.3580  0.0615
  434loPI   C4B 6944   2.827  10.753   8.482  0.0075  0.0487  0.1639
  435loPI    C1 6945   6.415  14.666  11.214 -0.1795  0.1138 -0.2519
  435loPI    C2 6946   6.110  14.925  11.207 -0.0386  0.2928  0.0428
  435loPI    C3 6947   6.352  14.909  11.525  0.0246 -0.1237 -0.0201
  435loPI   PO4 6948   6.648  14.742  10.900  0.1616  0.0150 -0.1721
  435loPI   GL1 6949   6.611  14.442  10.469 -0.0646  0.1168 -0.0834
  435loPI   GL2 6950   6.590  14.800  10.378 -0.0164 -0.2041  0.2879
  435loPI   C1A 6951   6.926  14.497  10.209  0.3249  0.1984 -0.1741
  435loPI   C2A 6952   7.085  14.450   9.768  0.1363  0.2349  0.2506
  435loPI   C3A 6953   7.037  14.549   9.326 -0.0288  0.1439  0.0305
  435loPI   C4A 6954   7.075  14.493   8.851  0.2146 -0.0929  0.0083
  435loPI   C5A 6955   7.100  14.456   8.367  0.1873  0.0401  0.3508
  435loPI   C6A 6956   7.529  14.338   8.107  0.0237 -0.1241  0.2131
  435loPI   C1B 6957   6.494  14.658  10.018 -0.2430 -0.1830 -0.0091
  435loPI   C2B 6958   6.607  14.736   9.541 -0.3724 -0.1716 -0.2754
  435loPI   C3B 6959   6.596  14.634   9.068  0.3179  0.2659 -0.2840
  435loPI   C4B 6960   6.533  14.658   8.689 -0.0231  0.0313  0.1553
  436loPI    C1 6961  15.592   7.317  10.609 -0.3015 -0.1490 -0.0871
  436loPI    C2 6962  15.436   7.224  10.965  0.0581  0.0028  0.1148
  436loPI    C3 6963  15.781   7.425  10.944  0.0462 -0.0137 -0.3214
  436loPI   PO4 6964  15.466   7.444  10.499  0.2827  0.0411  0.0640
  436loPI   GL1 6965  15.525   7.752  10.190  0.1433 -0.1533  0.0750
  436loPI   GL2 6966  15.316   8.026  10.354 -0.2105 -0.0380  0.1445
  436loPI   C1A 6967  15.490   7.728   9.857  0.1431 -0.2271 -0.2229
  436loPI   C2A 6968  15.444   7.601   9.523  0.0504  0.0578  0.1146
  436loPI   C3A 6969  15.474   7.610   9.040  0.4016  0.3477 -0.2167
  436loPI   C4A 6970  15.511   7.604   8.605  0.0507 -0.2416 -0.2583
  436loPI   C5A 6971  15.432   7.790   8.280 -0.1840  0.2694 -0.0961
  436loPI   C6A 6972  15.614   8.064   7.929  0.1984 -0.2544  0.1541
  436loPI   C1B 6973  15.183   8.076   9.930 -0.2114  0.0496  0.0399
  436loPI   C2B 6974  15.182   8.079   9.475  0.2564  0.0280 -0.1297
  436loPI   C3B 6975  15.291   8.172   9.051  0.1492  0.1723 -0.1899
  436loPI   C4B 6976  15.274   8.196   8.646  0.0466  0.0031 -0.0769
  437loPI    C1 6977   2.655  10.684  10.565  0.0092 -0.1218 -0.0171
  437loPI    C2 6978   2.355  10.466  10.712  0.1358 -0.1669  0.1779
  437loPI    C3 6979   2.520  10.754  10.935  0.2338 -0.1392  0.0700
  437loPI   PO4 6980   2.583  10.629  10.328  0.3956  0.2935  0.0517
  437loPI   GL1 6981   2.510  10.499   9.986  0.1758  0.3106  0.0065
  437loPI   GL2 6982   2.408  10.236   9.805  0.0314  0.1934 -0.1032
  437loPI   C1A 6983   2.254  10.628   9.577 -0.1844  0.3031 -0.2344
  437loPI   C2A 6984   2.180  10.661   9.148  0.0573 -0.2367  0.0682
  437loPI   C3A 6985   2.322  10.822   8.721 -0.0967 -0.0428  0.2597
  437loPI   C4A 6986   2.230  10.941   8.301  0.0675 -0.0601  0.5222
  437loPI   C5A 6987   2.218  10.902   7.876 -0.0603 -0.2187 -0.1095
  437loPI   C6A 6988   2.147  10.785   7.447 -0.0934  0.0246  0.0686
  437loPI   C1B 6989   2.499  10.228   9.487 -0.3013 -0.0749 -0.3294
  437loPI   C2B 6990   2.492  10.296   9.011 -0.0620  0.0855 -0.0455
  437loPI   C3B 6991   2.485  10.256   8.621 -0.2251 -0.1131  0.1913
  437loPI   C4B 6992   2.532  10.043   8.280 -0.0768  0.4289 -0.1195
  438loPI    C1 6993  14.718   1.038  10.652  0.1865 -0.0432 -0.0367
  438loPI    C2 6994  15.076   1.215  10.684  0.0414  0.2118  0.2263
  438loPI    C3 6995  14.746   1.407  10.805 -0.1902 -0.0104 -0.0367
  438loPI   PO4 6996  14.651   0.984  10.367 -0.4123  0.0189  0.3253
  438loPI   GL1 6997  14.571   1.033  10.084 -0.0590  0.1712  0.2047
  438loPI   GL2 6998  14.810   1.180   9.893 -0.0576 -0.4166 -0.0236
  438loPI   C1A 6999  14.764   0.698   9.774  0.2119 -0.2697  0.3749
  438loPI   C2A 7000  14.816   0.625   9.347  0.1607 -0.1575 -0.2050
  438loPI   C3A 7001  14.736   0.655   8.943  0.2040  0.2341  0.1975
  438loPI   C4A 7002  14.674   0.702   8.577  0.1148 -0.0964  0.3787
  438loPI   C5A 7003  14.657   0.781   8.246 -0.3921  0.0690 -0.0358
  438loPI   C6A 7004  14.607   0.609   7.936 -0.0591 -0.3522 -0.2715
  438loPI   C1B 7005  14.672   1.110   9.463  0.1932 -0.0273 -0.0935
  438loPI   C2B 7006  14.644   1.166   9.040  0.1657  0.0343 -0.2488
  438loPI   C3B 7007  14.642   1.200   8.581  0.1566  0.1251  0.1247
  438loPI   C4B 7008  14.516   1.259   8.086  0.0878 -0.0311  0.0230
  439loPI    C1 7009   9.945  16.266  11.214 -0.0580 -0.0130 -0.0295
  439loPI    C2 7010  10.165  16.432  11.504 -0.0460 -0.2906  0.1241
  439loPI    C3 7011  10.247  16.061  11.378 -0.2207 -0.2725 -0.0483
  439loPI   PO4 7012   9.902  16.434  11.025  0.0063 -0.1161  0.3005
  439loPI   GL1 7013   9.632  16.418  10.676 -0.2621 -0.2104 -0.2312
  439loPI   GL2 7014   9.750  16.676  10.506  0.0388 -0.0847 -0.2339
  439loPI   C1A 7015   9.533  16.348  10.206 -0.2094  0.2640 -0.0879
  439loPI   C2A 7016   9.575  16.311   9.767  0.1783  0.1632  0.1013
  439loPI   C3A 7017   9.631  16.266   9.327 -0.0863  0.0243 -0.0523
  439loPI   C4A 7018   9.580  16.320   8.904  0.1766  0.0379 -0.0120
  439loPI   C5A 7019   9.586  16.306   8.544  0.0965 -0.2257 -0.0150
  439loPI   C6A 7020   9.346  16.353   8.110 -0.0928  0.1169  0.2065
  439loPI   C1B 7021   9.974  16.698  10.157  0.1557  0.1604  0.1431
  439loPI   C2B 7022   9.965  16.631   9.724  0.0222  0.0877  0.4515
  439loPI   C3B 7023  10.074  16.633   9.371 -0.0421  0.0013 -0.0425
  439loPI   C4B 7024  10.022  16.726   8.856  0.5614 -0.2796 -0.0337
  440loPI    C1 7025  16.499   0.390  10.810  0.0941  0.1561  0.1746
  440loPI    C2 7026  16.314   0.092  11.002 -0.0986  0.0830 -0.1183
  440loPI    C3 7027  16.191   0.469  11.053  0.0381  0.0971  0.1229
  440loPI   PO4 7028  16.457   0.311  10.563 -0.2695  0.1537 -0.2414
  440loPI   GL1 7029  16.433   0.530  10.235 -0.2198 -0.4780 -0.0579
  440loPI   GL2 7030  16.714   0.315  10.064 -0.0657  0.2117 -0.1223
  440loPI   C1A 7031  16.230   0.564   9.854  0.1779 -0.4149 -0.0456
  440loPI   C2A 7032  16.201   0.599   9.418 -0.2040 -0.1280  0.2444
  440loPI   C3A 7033  16.121   0.508   9.048  0.0977 -0.0048 -0.0280
  440loPI   C4A 7034  16.025   0.633   8.655  0.0789  0.1040 -0.0802
  440loPI   C5A 7035  16.164   0.709   8.310  0.1439  0.1293  0.2551
  440loPI   C6A 7036  16.152   0.999   7.994  0.0279 -0.2028  0.0128
  440loPI   C1B 7037  16.613   0.405   9.661 -0.2135  0.0067 -0.2118
  440loPI   C2B 7038  16.619   0.373   9.199 -0.0007  0.1224 -0.3367
  440loPI   C3B 7039  16.583   0.465   8.732  0.2683  0.3487 -0.0566
  440loPI   C4B 7040  16.685   0.500   8.319  0.1383 -0.3409  0.1556
  441loPI    C1 7041   9.419  11.277  10.904 -0.0793 -0.1416  0.0891
  441loPI    C2 7042   9.750  11.290  11.129 -0.0465 -0.3503  0.0553
  441loPI    C3 7043   9.419  11.113  11.269 -0.0044 -0.5443 -0.0856
  441loPI   PO4 7044   9.439  11.196  10.583 -0.3733 -0.0296  0.2247
  441loPI   GL1 7045   9.357  11.067  10.261  0.1046  0.1543  0.1913
  441loPI   GL2 7046   9.350  10.744  10.054  0.1920  0.1569  0.1472
  441loPI   C1A 7047   9.147  11.154   9.864  0.0321  0.0300 -0.3433
  441loPI   C2A 7048   9.108  11.133   9.414 -0.4918 -0.0977  0.2486
  441loPI   C3A 7049   8.934  11.251   9.074  0.2536 -0.0921 -0.1156
  441loPI   C4A 7050   9.006  11.252   8.687 -0.3115  0.1848 -0.1822
  441loPI   C5A 7051   9.280  11.161   8.354  0.0355 -0.0923  0.1040
  441loPI   C6A 7052   9.610  11.485   8.160 -0.2238  0.1303  0.2825
  441loPI   C1B 7053   9.470  10.741   9.593 -0.1197  0.1710 -0.0229
  441loPI   C2B 7054   9.481  10.709   9.183 -0.2230  0.0826  0.0305
  441loPI   C3B 7055   9.604  10.769   8.735 -0.0543  0.2122  0.1539
  441loPI   C4B 7056   9.634  10.669   8.316 -0.0955 -0.0309  0.0210
  442loPI    C1 7057  10.205   9.710  11.133 -0.0269 -0.1301  0.0953
  442loPI    C2 7058  10.409   9.807  11.463 -0.0788  0.0575  0.0736
  442loPI    C3 7059  10.082   9.579  11.490 -0.0561  0.0329  0.1460
  442loPI   PO4 7060  10.343   9.705  10.851  0.1021 -0.1394 -0.0723
  442loPI   GL1 7061  10.709   9.756  10.577  0.0760 -0.1072  0.2433
  442loPI   GL2 7062  11.017   9.984  10.470  0.2284  0.1647  0.0543
  442loPI   C1A 7063  10.477   9.829  10.133 -0.0264  0.0306  0.2166
  442loPI   C2A 7064  10.535   9.919   9.631 -0.1363  0.1720  0.3176
  442loPI   C3A 7065  10.487   9.838   9.176 -0.0776 -0.1538  0.2691
  442loPI   C4A 7066  10.647   9.788   8.734 -0.0783  0.1616 -0.1303
  442loPI   C5A 7067  10.697   9.755   8.219  0.0658  0.1849  0.3225
  442loPI   C6A 7068  11.044   9.858   7.816 -0.1983  0.0636 -0.5090
  442loPI   C1B 7069  10.983   9.868  10.105 -0.1468 -0.4835  0.0707
  442loPI   C2B 7070  11.097   9.826   9.693  0.0420  0.0174  0.1321
  442loPI   C3B 7071  11.126   9.866   9.244 -0.4458  0.0147  0.0002
  442loPI   C4B 7072  11.160   9.913   8.802  0.2805  0.1315  0.2583
  443loPI    C1 7073   2.364  11.055  10.568  0.0667  0.3270  0.3150
  443loPI    C2 7074   1.983  11.129  10.470  0.0174 -0.0337  0.2223
  443loPI    C3 7075   2.071  10.971  10.827  0.0380 -0.3411  0.0848
  443loPI   PO4 7076   2.485  11.236  10.474  0.0460  0.1152 -0.0391
  443loPI   GL1 7077   2.517  11.542  10.270  0.0520  0.0199 -0.0891
  443loPI   GL2 7078   2.835  11.663  10.202 -0.1366  0.0132 -0.0383
  443loPI   C1A 7079   2.449  11.590   9.891 -0.1861  0.2130  0.1948
  443loPI   C2A 7080   2.435  11.617   9.404 -0.1302  0.1692 -0.0307
  443loPI   C3A 7081   2.341  11.572   8.946 -0.0605 -0.0766 -0.1276
  443loPI   C4A 7082   2.255  11.381   8.533 -0.1137  0.1179  0.1661
  443loPI   C5A 7083   1.979  11.321   8.112 -0.1000 -0.1538  0.0110
  443loPI   C6A 7084   1.571  11.079   7.872 -0.0685 -0.0274  0.0649
  443loPI   C1B 7085   2.939  11.729   9.871  0.1819 -0.1423  0.0134
  443loPI   C2B 7086   2.889  11.881   9.456 -0.1558 -0.1857  0.1645
  443loPI   C3B 7087   2.841  11.865   9.054  0.1163 -0.1530  0.1305
  443loPI   C4B 7088   2.804  11.634   8.698  0.0043  0.1313 -0.2663
  444loPI    C1 7089  10.837   4.672  10.780  0.1820 -0.1467  0.1693
  444loPI    C2 7090  10.637   4.411  11.007  0.1083 -0.0061  0.2681
  444loPI    C3 7091  10.695   4.784  11.137  0.2325  0.0207  0.1377
  444loPI   PO4 7092  10.644   4.763  10.541  0.0622 -0.2450 -0.0639
  444loPI   GL1 7093  10.723   4.577  10.087  0.2224  0.3723 -0.2362
  444loPI   GL2 7094  10.663   4.868   9.914  0.2643 -0.0703 -0.0780
  444loPI   C1A 7095  10.615   4.487   9.661 -0.1339 -0.1517 -0.0355
  444loPI   C2A 7096  10.686   4.414   9.266 -0.1316 -0.0337  0.0729
  444loPI   C3A 7097  10.564   4.408   8.823 -0.3676  0.3057 -0.0143
  444loPI   C4A 7098  10.522   4.550   8.382  0.1570  0.0615  0.0984
  444loPI   C5A 7099  10.581   4.711   7.980 -0.2011 -0.0454 -0.1062
  444loPI   C6A 7100  10.217   4.888   7.748 -0.0866 -0.1699  0.2972
  444loPI   C1B 7101  10.965   4.870   9.560 -0.2431  0.0950 -0.1926
  444loPI   C2B 7102  10.991   4.865   9.168 -0.1492 -0.1253  0.0962
  444loPI   C3B 7103  10.835   4.947   8.779 -0.1657 -0.0356  0.0630
  444loPI   C4B 7104  10.839   4.945   8.344  0.1641 -0.2310  0.2462
  445loPI    C1 7105  15.678   2.649  10.868 -0.2649 -0.0159  0.0079
  445loPI    C2 7106  15.297   2.658  10.988 -0.2484  0.2672  0.0458
  445loPI    C3 7107  15.587   2.785  11.233 -0.1020 -0.1666  0.1064
  445loPI   PO4 7108  15.643   2.515  10.650  0.1255  0.0294  0.0412
  445loPI   GL1 7109  15.463   2.464  10.320  0.0183  0.0500  0.2763
  445loPI   GL2 7110  15.170   2.548  10.277 -0.0860  0.0000 -0.2770
  445loPI   C1A 7111  15.420   2.251   9.874  0.0243 -0.0594  0.0979
  445loPI   C2A 7112  15.480   2.219   9.428 -0.1587  0.1460 -0.0675
  445loPI   C3A 7113  15.363   2.233   9.031 -0.1642 -0.4256 -0.2583
  445loPI   C4A 7114  15.468   2.313   8.662 -0.3584 -0.2925 -0.1177
  445loPI   C5A 7115  15.382   2.414   8.177 -0.1741  0.1147  0.0057
  445loPI   C6A 7116  15.430   2.721   7.940 -0.1460 -0.4149 -0.1085
  445loPI   C1B 7117  14.997   2.547   9.879  0.1438  0.0402 -0.1703
  445loPI   C2B 7118  14.923   2.360   9.514 -0.3597  0.1665 -0.0807
  445loPI   C3B 7119  14.857   2.388   9.068  0.1018 -0.1046 -0.0893
  445loPI   C4B 7120  15.070   2.575   8.686  0.2115  0.0321 -0.2290
  446loPI    C1 7121  11.042   0.910  10.611  0.2300  0.0910 -0.0157
  446loPI    C2 7122  11.269   0.869  10.938  0.0194 -0.3050  0.0879
  446loPI    C3 7123  10.885   0.975  10.973  0.0449 -0.1641 -0.0473
  446loPI   PO4 7124  11.168   0.833  10.466  0.0176 -0.1271  0.0062
  446loPI   GL1 7125  11.285   0.704  10.132  0.1835  0.0107 -0.3320
  446loPI   GL2 7126  11.117   0.321  10.025  0.1543 -0.1569 -0.0954
  446loPI   C1A 7127  11.465   0.676   9.704  0.1317  0.0515 -0.3030
  446loPI   C2A 7128  11.476   0.552   9.345  0.0188  0.0306 -0.0942
  446loPI   C3A 7129  11.574   0.594   8.900 -0.0901  0.1328 -0.1188
  446loPI   C4A 7130  11.707   0.565   8.481  0.0469  0.0901 -0.0235
  446loPI   C5A 7131  11.682   0.518   8.028 -0.0836  0.2066  0.2565
  446loPI   C6A 7132  11.460   0.683   7.753  0.1284 -0.4525  0.1366
  446loPI   C1B 7133  10.974   0.306   9.631 -0.4234 -0.1087 -0.1453
  446loPI   C2B 7134  10.990   0.318   9.196 -0.2408 -0.2880 -0.0731
  446loPI   C3B 7135  11.094   0.255   8.816  0.2504  0.1375  0.0666
  446loPI   C4B 7136  11.300   0.302   8.341  0.0877 -0.1535  0.1779
  447loPI    C1 7137  14.263   3.586  10.559  0.0248 -0.0818  0.0748
  447loPI    C2 7138  14.436   3.855  10.800  0.1714 -0.0097 -0.1086
  447loPI    C3 7139  14.489   3.464  10.866  0.1330  0.0083  0.0318
  447loPI   PO4 7140  14.199   3.749  10.331 -0.2060  0.0305 -0.2369
  447loPI   GL1 7141  14.319   3.786   9.902 -0.1804  0.2558  0.4980
  447loPI   GL2 7142  14.044   3.692   9.833  0.1377  0.3644 -0.0032
  447loPI   C1A 7143  14.391   3.714   9.507 -0.0173 -0.0493 -0.0126
  447loPI   C2A 7144  14.320   3.692   9.160 -0.0984  0.1590 -0.1844
  447loPI   C3A 7145  14.336   3.797   8.780  0.0781  0.0686 -0.0746
  447loPI   C4A 7146  14.266   3.858   8.319 -0.0367 -0.1875 -0.0366
  447loPI   C5A 7147  14.101   4.156   8.096 -0.1376 -0.0773 -0.1723
  447loPI   C6A 7148  13.852   4.264   7.835 -0.1948  0.1415  0.0698
  447loPI   C1B 7149  13.900   3.872   9.508 -0.1274  0.0086 -0.3132
  447loPI   C2B 7150  13.840   3.881   9.059 -0.0409  0.4391  0.0548
  447loPI   C3B 7151  13.821   3.850   8.625 -0.0005 -0.0590  0.0100
  447loPI   C4B 7152  13.700   3.910   8.239 -0.0202  0.1758 -0.1033
  448loPI    C1 7153  11.604  12.828  10.750  0.1159  0.0618  0.1456
  448loPI    C2 7154  11.787  13.086  10.995  0.0282  0.1928  0.0748
  448loPI    C3 7155  11.490  12.856  11.133  0.1195  0.1145  0.1429
  448loPI   PO4 7156  11.736  12.783  10.622  0.1182  0.0537  0.1127
  448loPI   GL1 7157  11.906  12.848  10.256  0.0008  0.3766 -0.1069
  448loPI   GL2 7158  11.844  13.114  10.049  0.1241 -0.0111 -0.3665
  448loPI   C1A 7159  11.920  12.646   9.811 -0.0201  0.1272  0.1191
  448loPI   C2A 7160  11.857  12.486   9.417 -0.1282  0.0300 -0.1752
  448loPI   C3A 7161  11.743  12.347   8.919 -0.1322  0.2146 -0.0085
  448loPI   C4A 7162  11.608  12.547   8.534  0.1309 -0.2899  0.0363
  448loPI   C5A 7163  11.407  12.516   8.248  0.1555 -0.0191  0.1111
  448loPI   C6A 7164  11.196  12.312   7.889  0.1160  0.1094  0.2320
  448loPI   C1B 7165  11.745  13.045   9.606 -0.0533 -0.1197 -0.0976
  448loPI   C2B 7166  11.727  13.063   9.223  0.4096  0.2655 -0.0829
  448loPI   C3B 7167  11.732  12.959   8.853  0.3182 -0.3234  0.2320
  448loPI   C4B 7168  11.709  13.011   8.308  0.0365  0.0235  0.5372
  449loPI    C1 7169  14.045  17.720  10.661  0.0768  0.1732 -0.0646
  449loPI    C2 7170  14.149  18.029  10.431  0.1093  0.1923 -0.0244
  449loPI    C3 7171  14.047  18.090  10.812 -0.0813  0.1776 -0.0720
  449loPI   PO4 7172  13.876  17.581  10.455 -0.1320  0.2157  0.2961
  449loPI   GL1 7173  13.900  17.729  10.125 -0.0218 -0.0371 -0.2243
  449loPI   GL2 7174  13.874  17.957  10.022  0.1857  0.3202  0.3919
  449loPI   C1A 7175  13.935  17.393   9.768 -0.0397  0.2531  0.0262
  449loPI   C2A 7176  13.961  17.337   9.213 -0.0512  0.0108 -0.1858
  449loPI   C3A 7177  14.048  17.366   8.821 -0.1714  0.0444 -0.0906
  449loPI   C4A 7178  14.063  17.458   8.368  0.1637  0.0622 -0.1413
  449loPI   C5A 7179  14.455  17.374   8.153 -0.2440  0.1603 -0.2400
  449loPI   C6A 7180  14.839  17.541   8.227 -0.0056 -0.3376  0.2357
  449loPI   C1B 7181  13.817  17.867   9.622  0.0316  0.1174 -0.1353
  449loPI   C2B 7182  13.943  17.863   9.204  0.0611 -0.1348  0.2994
  449loPI   C3B 7183  13.939  17.819   8.698  0.0080 -0.0377  0.0061
  449loPI   C4B 7184  13.691  17.715   8.250 -0.0980  0.3636 -0.2665
  450loPI    C1 7185  16.113   4.424  10.542  0.0539 -0.1042  0.0797
  450loPI    C2 7186  16.186   4.709  10.813  0.1135  0.0415 -0.0883
  450loPI    C3 7187  15.874   4.464  10.861  0.1375  0.0506  0.1238
  450loPI   PO4 7188  16.166   4.515  10.325  0.0660  0.2634 -0.0045
  450loPI   GL1 7189  16.165   4.356   9.849  0.4268  0.1340 -0.1491
  450loPI   GL2 7190  15.976   4.556   9.887  0.0094  0.1548  0.0841
  450loPI   C1A 7191  16.379   4.431   9.538 -0.0339 -0.0513 -0.0823
  450loPI   C2A 7192  16.281   4.439   9.082  0.1006 -0.0364 -0.0717
  450loPI   C3A 7193  16.176   4.427   8.688 -0.0046  0.3663 -0.4090
  450loPI   C4A 7194  16.182   4.486   8.219 -0.1845 -0.0593 -0.2068
  450loPI   C5A 7195  15.877   4.259   7.955 -0.0305 -0.3989 -0.2380
  450loPI   C6A 7196  15.555   4.100   7.772  0.1887  0.0022  0.0262
  450loPI   C1B 7197  15.985   4.747   9.487  0.4344  0.0663  0.1163
  450loPI   C2B 7198  15.966   4.901   9.139  0.1853 -0.0056 -0.2912
  450loPI   C3B 7199  15.914   4.886   8.791  0.0976  0.2437  0.0765
  450loPI   C4B 7200  15.864   4.948   8.351 -0.0595 -0.1519  0.0003
  451loPI    C1 7201   0.219  14.438  10.616 -0.0930 -0.2578  0.0632
  451loPI    C2 7202   0.455  14.442  10.939  0.3793  0.1649 -0.2712
  451loPI    C3 7203   0.228  14.760  10.853  0.1390 -0.0058 -0.2785
  451loPI   PO4 7204   0.358  14.367  10.428 -0.1368  0.1261  0.0689
  451loPI   GL1 7205   0.377  14.296   9.975  0.2546 -0.1815 -0.0117
  451loPI   GL2 7206   0.196  14.528   9.833  0.0153 -0.1613 -0.1480
  451loPI   C1A 7207   0.352  14.130   9.523  0.0372 -0.1290  0.0001
  451loPI   C2A 7208   0.266  14.131   9.111  0.2004  0.2310  0.0030
  451loPI   C3A 7209   0.197  14.324   8.645  0.0984  0.4091 -0.3234
  451loPI   C4A 7210   0.160  14.648   8.403  0.2032 -0.1556 -0.0683
  451loPI   C5A 7211   0.150  14.745   7.996  0.0487  0.0932 -0.4504
  451loPI   C6A 7212  -0.207  14.733   7.629 -0.0747  0.0397  0.6071
  451loPI   C1B 7213   0.027  14.604   9.454 -0.1123 -0.2738 -0.5324
  451loPI   C2B 7214  -0.043  14.560   8.995  0.0741  0.2731 -0.1423
  451loPI   C3B 7215  -0.300  14.540   8.653  0.0155  0.1910 -0.0325
  451loPI   C4B 7216  -0.253  14.832   8.325 -0.1130 -0.1194 -0.0445
  452loPI    C1 7217  12.615  11.148  10.732  0.0812 -0.2724 -0.2634
  452loPI    C2 7218  12.440  11.475  10.583 -0.0389 -0.2347 -0.0439
  452loPI    C3 7219  12.236  11.232  10.826  0.1058 -0.3780 -0.0639
  452loPI   PO4 7220  12.718  11.049  10.596 -0.2415 -0.1016 -0.2867
  452loPI   GL1 7221  12.893  11.177  10.187  0.0229 -0.0584 -0.1227
  452loPI   GL2 7222  12.741  10.820  10.153  0.0628  0.1230 -0.0106
  452loPI   C1A 7223  12.898  11.224   9.712  0.0274 -0.1169  0.1733
  452loPI   C2A 7224  12.844  11.280   9.258  0.2131  0.0001  0.1121
  452loPI   C3A 7225  12.771  11.187   8.929  0.0368 -0.1502  0.1613
  452loPI   C4A 7226  13.034  11.333   8.484  0.0713 -0.1811  0.0976
  452loPI   C5A 7227  13.381  11.521   8.244  0.1090 -0.0606 -0.3175
  452loPI   C6A 7228  13.439  11.774   7.840 -0.0581  0.1507 -0.0364
  452loPI   C1B 7229  12.588  10.754   9.756 -0.2330  0.0380 -0.0053
  452loPI   C2B 7230  12.627  10.831   9.348 -0.0937  0.1548  0.2902
  452loPI   C3B 7231  12.610  10.674   8.898 -0.3964  0.0823 -0.3183
  452loPI   C4B 7232  12.664  10.958   8.444  0.1823 -0.1054  0.1096
  453loPI    C1 7233   8.017  17.830  10.725 -0.0712  0.0711  0.0280
  453loPI    C2 7234   8.254  18.101  10.901  0.0675 -0.0857  0.0850
  453loPI    C3 7235   7.908  17.997  11.072 -0.2043  0.3826 -0.1592
  453loPI   PO4 7236   8.298  17.826  10.504  0.0258 -0.0422 -0.2112
  453loPI   GL1 7237   8.473  17.599  10.182 -0.1060  0.2227  0.4847
  453loPI   GL2 7238   8.218  17.369  10.200 -0.3631 -0.0232 -0.0446
  453loPI   C1A 7239   8.552  17.531   9.782 -0.0788  0.0029 -0.1273
  453loPI   C2A 7240   8.557  17.467   9.330  0.2683 -0.3535 -0.1416
  453loPI   C3A 7241   8.520  17.294   8.969  0.2233 -0.0136  0.2989
  453loPI   C4A 7242   8.523  17.334   8.466 -0.0216  0.0668  0.2476
  453loPI   C5A 7243   8.461  17.490   7.999 -0.2689  0.5225 -0.0322
  453loPI   C6A 7244   8.179  17.521   7.608  0.3195  0.1669 -0.4393
  453loPI   C1B 7245   7.946  17.047   9.897 -0.1152  0.3673  0.3093
  453loPI   C2B 7246   7.688  17.160   9.534 -0.1918  0.2426 -0.0122
  453loPI   C3B 7247   7.561  17.163   9.103  0.0458  0.0791  0.0687
  453loPI   C4B 7248   7.705  17.120   8.679 -0.1163 -0.1291  0.0086
  454loPI    C1 7249   2.787   5.682  10.354 -0.0788  0.0213  0.0236
  454loPI    C2 7250   2.724   5.663  10.748  0.0957  0.2576  0.0652
  454loPI    C3 7251   3.017   5.448  10.582 -0.1857 -0.0959  0.0125
  454loPI   PO4 7252   2.483   5.660  10.298  0.0434  0.0942  0.0552
  454loPI   GL1 7253   2.427   5.586   9.932  0.0753  0.0724  0.2658
  454loPI   GL2 7254   2.099   5.689   9.875  0.2390  0.1885 -0.1949
  454loPI   C1A 7255   2.513   5.684   9.537 -0.0149  0.1945 -0.0750
  454loPI   C2A 7256   2.340   5.731   9.121  0.2193 -0.0651 -0.1272
  454loPI   C3A 7257   2.383   5.745   8.697  0.1324 -0.0675  0.1044
  454loPI   C4A 7258   2.279   5.774   8.184 -0.0943 -0.2072 -0.1494
  454loPI   C5A 7259   2.376   5.631   7.816  0.2602  0.0931  0.2341
  454loPI   C6A 7260   2.547   5.817   7.441  0.2617  0.0956 -0.5172
  454loPI   C1B 7261   1.894   5.636   9.473 -0.0419  0.1087  0.0498
  454loPI   C2B 7262   1.757   5.705   9.058  0.0425 -0.1869  0.1752
  454loPI   C3B 7263   1.776   5.762   8.666 -0.0472  0.1567 -0.0184
  454loPI   C4B 7264   1.762   5.742   8.269 -0.2863 -0.2184 -0.0050
  455loPI    C1 7265  18.260   0.446  10.439  0.1100  0.0564 -0.2794
  455loPI    C2 7266  18.624   0.462  10.606  0.0675 -0.0397 -0.1764
  455loPI    C3 7267  18.343   0.727  10.712  0.1039  0.0279 -0.2481
  455loPI   PO4 7268  18.304   0.371  10.226  0.0936  0.0720  0.0426
  455loPI   GL1 7269  18.562   0.409   9.939  0.0738 -0.0137  0.0538
  455loPI   GL2 7270  18.630   0.717   9.674  0.2320  0.0834  0.1127
  455loPI   C1A 7271  18.467   0.154   9.588 -0.1536  0.0695  0.2305
  455loPI   C2A 7272  18.597   0.094   9.181  0.1821 -0.0288  0.2213
  455loPI   C3A 7273  18.513   0.005   8.717  0.1544  0.3833  0.0029
  455loPI   C4A 7274  18.435  -0.020   8.208  0.0278 -0.3147 -0.0757
  455loPI   C5A 7275  18.166  -0.013   7.883 -0.5043  0.2018 -0.1582
  455loPI   C6A 7276  17.880   0.222   7.604  0.0412  0.1800 -0.1369
  455loPI   C1B 7277  18.529   0.668   9.282  0.4501  0.0044  0.2318
  455loPI   C2B 7278  18.554   0.457   8.859 -0.1286 -0.1461 -0.1342
  455loPI   C3B 7279  18.423   0.494   8.400 -0.1273 -0.0639 -0.2921
  455loPI   C4B 7280  18.287   0.447   7.885  0.0326  0.1552  0.0724
  456loPI    C1 7281  13.104  14.700  10.731  0.1412 -0.0976  0.0146
  456loPI    C2 7282  12.942  14.787  11.086 -0.0098  0.2364 -0.1325
  456loPI    C3 7283  13.338  14.742  11.053  0.0331  0.4785  0.0279
  456loPI   PO4 7284  13.021  14.876  10.583  0.3623  0.2640  0.1006
  456loPI   GL1 7285  13.058  15.033  10.253  0.0381  0.0677  0.2030
  456loPI   GL2 7286  13.305  15.233  10.062  0.1752  0.0526  0.4558
  456loPI   C1A 7287  12.906  14.961   9.808 -0.0459 -0.1050 -0.1644
  456loPI   C2A 7288  12.984  15.018   9.474 -0.1061  0.0637 -0.1850
  456loPI   C3A 7289  12.943  14.866   9.007 -0.4452 -0.1983  0.2586
  456loPI   C4A 7290  12.939  14.871   8.536 -0.2612  0.3610 -0.0105
  456loPI   C5A 7291  12.939  14.811   8.105 -0.1223 -0.2847  0.0514
  456loPI   C6A 7292  12.643  14.798   7.836  0.4137 -0.2140  0.0253
  456loPI   C1B 7293  13.379  15.256   9.592 -0.0144  0.1756 -0.0744
  456loPI   C2B 7294  13.329  15.265   9.138 -0.0225 -0.1779 -0.1944
  456loPI   C3B 7295  13.294  15.140   8.679  0.1497 -0.2088  0.1123
  456loPI   C4B 7296  13.268  15.193   8.233  0.1407 -0.0022 -0.0293
  457loPI    C1 7297   5.932  13.203  10.863  0.0308  0.0877  0.0273
  457loPI    C2 7298   5.707  13.135  11.187 -0.1059  0.0845 -0.0673
  457loPI    C3 7299   6.020  13.383  11.209  0.0109 -0.0769  0.1188
  457loPI   PO4 7300   5.690  13.303  10.609 -0.4047 -0.2503 -0.1463
  457loPI   GL1 7301   5.784  13.446  10.241 -0.3023 -0.0446 -0.2126
  457loPI   GL2 7302   5.495  13.272  10.170  0.1867 -0.0120  0.2272
  457loPI   C1A 7303   5.724  13.517   9.815  0.0037  0.1868  0.1586
  457loPI   C2A 7304   5.822  13.376   9.421 -0.2126  0.1660 -0.2056
  457loPI   C3A 7305   5.790  13.418   9.019 -0.0675  0.0738  0.0661
  457loPI   C4A 7306   5.775  13.498   8.589  0.0968 -0.0217  0.1726
  457loPI   C5A 7307   5.836  13.740   8.167  0.2039 -0.0477  0.0570
  457loPI   C6A 7308   6.183  14.069   7.983 -0.2807  0.1134 -0.0438
  457loPI   C1B 7309   5.382  13.189   9.714  0.0474 -0.0889  0.0320
  457loPI   C2B 7310   5.293  13.248   9.408 -0.0284  0.0110  0.0386
  457loPI   C3B 7311   5.349  13.138   8.919  0.0253  0.0628 -0.0876
  457loPI   C4B 7312   5.318  13.202   8.520 -0.0076  0.0325 -0.2845
  458loPI    C1 7313  16.491   2.109  10.302  0.0016  0.0612 -0.1070
  458loPI    C2 7314  16.856   2.270  10.335 -0.0602  0.1787  0.0135
  458loPI    C3 7315  16.559   2.397  10.571 -0.1198 -0.0867  0.0847
  458loPI   PO4 7316  16.467   1.953  10.223  0.2190 -0.0559  0.0106
  458loPI   GL1 7317  16.459   1.949   9.739  0.1641 -0.0850  0.2153
  458loPI   GL2 7318  16.793   1.920   9.873 -0.1314  0.2041 -0.2242
  458loPI   C1A 7319  16.385   1.927   9.341 -0.3242  0.1130  0.0308
  458loPI   C2A 7320  16.377   1.918   8.939  0.0261  0.0101 -0.1322
  458loPI   C3A 7321  16.379   1.906   8.444  0.3396  0.1054  0.0548
  458loPI   C4A 7322  16.601   1.934   8.016  0.0494  0.0905 -0.1928
  458loPI   C5A 7323  16.890   1.691   7.742 -0.0435 -0.1148 -0.0027
  458loPI   C6A 7324  17.300   1.688   7.429  0.0032 -0.1067  0.1301
  458loPI   C1B 7325  16.883   1.713   9.436  0.0729  0.2499 -0.1677
  458loPI   C2B 7326  16.817   1.648   9.034 -0.2196  0.0427 -0.3402
  458loPI   C3B 7327  16.934   1.745   8.590  0.0870 -0.1818 -0.4592
  458loPI   C4B 7328  16.897   1.593   8.214  0.0799  0.2453 -0.1565
  459loPI    C1 7329  12.488  14.914  10.936 -0.1002 -0.0701  0.0726
  459loPI    C2 7330  12.115  14.786  11.003 -0.1305 -0.0908 -0.1283
  459loPI    C3 7331  12.271  15.076  11.230 -0.2407 -0.1359  0.0064
  459loPI   PO4 7332  12.559  14.722  10.745  0.0917 -0.0002  0.2762
  459loPI   GL1 7333  12.571  14.860  10.312 -0.1482 -0.1325 -0.3594
  459loPI   GL2 7334  12.439  15.190  10.088 -0.0220  0.3238  0.0402
  459loPI   C1A 7335  12.459  14.712   9.880  0.0971  0.0888  0.0516
  459loPI   C2A 7336  12.519  14.672   9.462 -0.0587  0.3483 -0.2754
  459loPI   C3A 7337  12.523  14.619   9.025  0.3399  0.1847  0.1778
  459loPI   C4A 7338  12.524  14.572   8.588  0.1174 -0.1243  0.0975
  459loPI   C5A 7339  12.284  14.540   8.165 -0.0776 -0.1188  0.0444
  459loPI   C6A 7340  11.884  14.455   7.961 -0.1150  0.0156 -0.0403
  459loPI   C1B 7341  12.496  15.173   9.639 -0.1196  0.2316  0.2695
  459loPI   C2B 7342  12.505  15.114   9.216  0.4310  0.0289  0.0162
  459loPI   C3B 7343  12.448  15.048   8.727  0.0292 -0.0073  0.1020
  459loPI   C4B 7344  12.438  15.000   8.300 -0.1892 -0.1932  0.4236
  460loPI    C1 7345  17.213   8.910  10.846  0.1424 -0.0259  0.0020
  460loPI    C2 7346  17.209   8.578  11.069 -0.1310  0.0387  0.0973
  460loPI    C3 7347  17.497   8.851  11.121  0.0035 -0.1076  0.1289
  460loPI   PO4 7348  17.088   8.789  10.594  0.3075  0.5076 -0.1818
  460loPI   GL1 7349  17.007   8.984  10.250 -0.0718  0.1383 -0.1217
  460loPI   GL2 7350  17.373   9.079  10.225 -0.2199 -0.2725 -0.5219
  460loPI   C1A 7351  16.827   8.871   9.939  0.2153 -0.1807  0.1106
  460loPI   C2A 7352  16.804   8.898   9.574  0.5218  0.0201 -0.0167
  460loPI   C3A 7353  16.897   8.935   9.185  0.0475 -0.3971 -0.0244
  460loPI   C4A 7354  16.867   8.995   8.776  0.0059  0.0386 -0.2516
  460loPI   C5A 7355  16.978   9.074   8.402  0.0859  0.2234  0.2929
  460loPI   C6A 7356  16.890   8.976   7.990  0.0369 -0.2765  0.1107
  460loPI   C1B 7357  17.311   8.960   9.820 -0.1346  0.2002 -0.1638
  460loPI   C2B 7358  17.311   8.875   9.434 -0.2296  0.2308  0.2474
  460loPI   C3B 7359  17.393   8.897   8.990 -0.2236 -0.3312 -0.2035
  460loPI   C4B 7360  17.457   9.006   8.644  0.0120  0.2286 -0.0438
  461loPI    C1 7361  14.025   1.789  10.644 -0.0489  0.0047 -0.0676
  461loPI    C2 7362  14.085   1.526  10.939 -0.3246  0.1665  0.1376
  461loPI    C3 7363  14.234   1.896  10.967 -0.0477  0.0757 -0.0916
  461loPI   PO4 7364  14.043   1.700  10.387  0.1899  0.1090 -0.1601
  461loPI   GL1 7365  14.279   1.746  10.106  0.0954  0.1151  0.1512
  461loPI   GL2 7366  14.251   1.361  10.051 -0.0015 -0.0860 -0.0379
  461loPI   C1A 7367  14.550   1.638   9.652  0.0111 -0.3298  0.1632
  461loPI   C2A 7368  14.600   1.596   9.242 -0.0034  0.1716 -0.1850
  461loPI   C3A 7369  14.576   1.628   8.856  0.2338  0.0994  0.3201
  461loPI   C4A 7370  14.570   1.670   8.400  0.1017  0.0904 -0.0266
  461loPI   C5A 7371  14.824   1.817   8.020  0.0261  0.1781  0.1949
  461loPI   C6A 7372  14.674   2.084   7.686  0.0601  0.1270  0.0205
  461loPI   C1B 7373  14.161   1.373   9.570  0.2267  0.1221  0.0825
  461loPI   C2B 7374  14.154   1.361   9.159  0.1787 -0.0725  0.1879
  461loPI   C3B 7375  14.146   1.415   8.724  0.2853  0.2497  0.1667
  461loPI   C4B 7376  14.115   1.494   8.264  0.2536  0.0044  0.1810
  462loPI    C1 7377   3.571   3.659  10.507  0.0457 -0.0657 -0.1296
  462loPI    C2 7378   3.479   4.004  10.687 -0.3960 -0.1229 -0.2334
  462loPI    C3 7379   3.448   3.659  10.887 -0.2757 -0.1323 -0.2303
  462loPI   PO4 7380   3.763   3.713  10.298 -0.3002  0.0314 -0.0462
  462loPI   GL1 7381   3.888   3.862   9.884  0.1200 -0.0463  0.2132
  462loPI   GL2 7382   3.817   4.164   9.816 -0.1196  0.2663 -0.1072
  462loPI   C1A 7383   4.019   3.850   9.357 -0.2006 -0.2505  0.1137
  462loPI   C2A 7384   4.085   3.990   8.897  0.1787 -0.1107 -0.0331
  462loPI   C3A 7385   3.949   4.013   8.551 -0.1431 -0.3884 -0.2584
  462loPI   C4A 7386   4.066   3.926   8.179  0.1793  0.1421 -0.0000
  462loPI   C5A 7387   4.288   3.921   7.674  0.4079  0.0127  0.1015
  462loPI   C6A 7388   4.480   3.769   7.212 -0.0533  0.1119  0.0020
  462loPI   C1B 7389   3.806   4.331   9.381 -0.1309  0.0046 -0.0505
  462loPI   C2B 7390   3.746   4.360   9.006  0.2285  0.3568  0.0966
  462loPI   C3B 7391   3.671   4.410   8.628  0.1815 -0.1659  0.0473
  462loPI   C4B 7392   3.792   4.361   8.209  0.1861 -0.0335  0.0269
  463loPI    C1 7393  15.818   5.015  10.685  0.1936  0.0210 -0.1055
  463loPI    C2 7394  15.780   5.398  10.797  0.2426  0.0619 -0.2272
  463loPI    C3 7395  16.110   5.192  10.894  0.2176  0.0512 -0.1646
  463loPI   PO4 7396  15.743   5.035  10.348  0.0580  0.1823 -0.2581
  463loPI   GL1 7397  15.898   5.083   9.947 -0.0482 -0.1323  0.0364
  463loPI   GL2 7398  16.164   5.013   9.854 -0.1339  0.1445 -0.0649
  463loPI   C1A 7399  15.723   5.268   9.561 -0.0682 -0.1509 -0.0380
  463loPI   C2A 7400  15.711   5.278   9.233  0.1079 -0.0896  0.0138
  463loPI   C3A 7401  15.657   5.277   8.860 -0.2087  0.0489 -0.1979
  463loPI   C4A 7402  15.742   5.389   8.559 -0.2676  0.0927 -0.0193
  463loPI   C5A 7403  15.838   5.460   8.154 -0.1695  0.1039  0.2690
  463loPI   C6A 7404  16.163   5.526   7.799  0.0714 -0.0030 -0.2231
  463loPI   C1B 7405  16.186   5.335   9.378  0.1422  0.0114  0.2352
  463loPI   C2B 7406  16.162   5.419   8.972 -0.2180  0.0672  0.0519
  463loPI   C3B 7407  16.233   5.406   8.494  0.3072 -0.2229 -0.1382
  463loPI   C4B 7408  16.339   5.245   8.165 -0.1758  0.1328  0.2575
  464loPI    C1 7409   5.445  18.190  10.530 -0.4850  0.3434  0.0094
  464loPI    C2 7410   5.577  18.533  10.688  0.0636  0.0844  0.1368
  464loPI    C3 7411   5.393  18.263  10.920 -0.3749  0.2868  0.0351
  464loPI   PO4 7412   5.584  18.138  10.345 -0.1983 -0.0597 -0.2048
  464loPI   GL1 7413   5.540  18.055   9.858  0.0428 -0.0391  0.2714
  464loPI   GL2 7414   5.196  17.935  10.057 -0.2855 -0.0002 -0.0283
  464loPI   C1A 7415   5.652  18.014   9.379  0.1686 -0.1225  0.0668
  464loPI   C2A 7416   5.712  17.857   8.986  0.1714  0.0507  0.2370
  464loPI   C3A 7417   5.627  17.879   8.543 -0.0613  0.0574 -0.2670
  464loPI   C4A 7418   5.790  17.842   8.119  0.1854  0.2112  0.0043
  464loPI   C5A 7419   5.860  17.742   7.734  0.0817  0.1768 -0.1667
  464loPI   C6A 7420   5.714  17.311   7.430  0.0932 -0.0115  0.1195
  464loPI   C1B 7421   5.055  18.226   9.646 -0.0077  0.1732  0.0886
  464loPI   C2B 7422   5.139  18.193   9.210  0.0628  0.4022  0.1233
  464loPI   C3B 7423   5.276  18.123   8.882  0.1176  0.0230 -0.2082
  464loPI   C4B 7424   5.146  18.041   8.466 -0.1128 -0.0332 -0.1566
  465loPI    C1 7425   3.613  12.759  10.867 -0.2811  0.0576 -0.0693
  465loPI    C2 7426   3.583  12.558  11.212 -0.1157 -0.0863 -0.1371
  465loPI    C3 7427   3.439  12.931  11.184 -0.2116 -0.1071  0.0597
  465loPI   PO4 7428   3.590  12.610  10.712  0.2188 -0.1668 -0.2019
  465loPI   GL1 7429   3.648  12.656  10.303  0.1986  0.0508 -0.1529
  465loPI   GL2 7430   3.570  12.934  10.137  0.3694 -0.0764  0.0008
  465loPI   C1A 7431   3.781  12.552   9.940 -0.0565 -0.0038 -0.1609
  465loPI   C2A 7432   3.659  12.439   9.556 -0.2158 -0.0864  0.1430
  465loPI   C3A 7433   3.682  12.382   9.155  0.1707  0.0357 -0.0778
  465loPI   C4A 7434   3.587  12.375   8.688 -0.1426 -0.1460 -0.1812
  465loPI   C5A 7435   3.624  12.581   8.222 -0.3416 -0.0456 -0.1375
  465loPI   C6A 7436   3.915  12.891   7.900  0.2016  0.0818 -0.2299
  465loPI   C1B 7437   3.722  13.011   9.775 -0.0245 -0.1797 -0.3354
  465loPI   C2B 7438   3.640  12.963   9.412 -0.1020  0.0999 -0.0435
  465loPI   C3B 7439   3.571  12.976   8.967  0.0581 -0.2762  0.0938
  465loPI   C4B 7440   3.602  12.865   8.629  0.0831  0.1395 -0.1724
  466loPI    C1 7441  11.737  14.231  10.611  0.0964  0.1740  0.0858
  466loPI    C2 7442  11.811  14.413  10.959 -0.1967  0.1132  0.1820
  466loPI    C3 7443  11.501  14.162  10.926  0.0151 -0.1246 -0.0375
  466loPI   PO4 7444  11.698  14.372  10.413 -0.0550 -0.1378  0.1139
  466loPI   GL1 7445  11.438  14.497  10.180  0.0600 -0.1094  0.2341
  466loPI   GL2 7446  11.135  14.641  10.145 -0.1375  0.0234  0.0664
  466loPI   C1A 7447  11.637  14.555   9.779  0.1359  0.0868  0.1446
  466loPI   C2A 7448  11.641  14.552   9.338  0.2262  0.1825 -0.3002
  466loPI   C3A 7449  11.599  14.523   8.851  0.0303 -0.0980  0.1374
  466loPI   C4A 7450  11.563  14.569   8.333  0.0224 -0.0259 -0.2483
  466loPI   C5A 7451  11.536  14.896   7.991  0.0871  0.3204 -0.0912
  466loPI   C6A 7452  11.751  15.358   7.834 -0.0031  0.2425 -0.1373
  466loPI   C1B 7453  11.113  14.799   9.656 -0.2028 -0.0818  0.1486
  466loPI   C2B 7454  11.261  14.786   9.168 -0.1133 -0.3574 -0.0416
  466loPI   C3B 7455  11.153  14.764   8.684  0.1153 -0.1159  0.0542
  466loPI   C4B 7456  11.105  14.772   8.315 -0.3409 -0.1434 -0.0739
  467loPI    C1 7457  17.645  17.549  10.539 -0.4129  0.1264 -0.1413
  467loPI    C2 7458  17.377  17.768  10.740 -0.1200  0.1833  0.1970
  467loPI    C3 7459  17.768  17.833  10.792 -0.0342 -0.0563 -0.1138
  467loPI   PO4 7460  17.532  17.537  10.344  0.0518  0.4055 -0.1471
  467loPI   GL1 7461  17.615  17.545  10.003 -0.0915 -0.1050 -0.1514
  467loPI   GL2 7462  17.255  17.807   9.977  0.0443 -0.0923 -0.2712
  467loPI   C1A 7463  17.619  17.568   9.627 -0.1831 -0.2453 -0.0399
  467loPI   C2A 7464  17.697  17.390   9.269  0.2519 -0.0143  0.0186
  467loPI   C3A 7465  17.609  17.277   8.947  0.2050  0.0425 -0.0805
  467loPI   C4A 7466  17.654  17.190   8.490  0.0575 -0.2019  0.1479
  467loPI   C5A 7467  17.482  17.320   8.164 -0.0954  0.0057 -0.0589
  467loPI   C6A 7468  17.482  17.276   7.713  0.0406  0.1554 -0.0517
  467loPI   C1B 7469  17.102  17.941   9.581 -0.0070 -0.0070 -0.2788
  467loPI   C2B 7470  17.145  17.997   9.082 -0.1120 -0.1978 -0.2070
  467loPI   C3B 7471  17.164  18.036   8.691  0.0433 -0.1707  0.3030
  467loPI   C4B 7472  17.016  17.987   8.287 -0.1437 -0.2667 -0.0684
  468loPI    C1 7473  16.773  13.340  10.447  0.1468 -0.0935  0.0883
  468loPI    C2 7474  16.978  13.536  10.728  0.1236 -0.0449  0.0715
  468loPI    C3 7475  16.586  13.472  10.775  0.1391 -0.1233  0.0962
  468loPI   PO4 7476  16.828  13.346  10.218  0.0502  0.1116  0.0498
  468loPI   GL1 7477  16.534  13.286   9.906  0.1155 -0.2302 -0.4269
  468loPI   GL2 7478  16.421  13.065   9.964  0.2874  0.0315  0.0040
  468loPI   C1A 7479  16.325  13.359   9.459 -0.3358  0.0659 -0.2818
  468loPI   C2A 7480  16.228  13.304   9.079 -0.2262  0.2589  0.1936
  468loPI   C3A 7481  16.282  13.385   8.678 -0.3848  0.1554  0.0346
  468loPI   C4A 7482  16.000  13.399   8.332  0.1440 -0.0365 -0.1432
  468loPI   C5A 7483  15.835  13.381   7.955 -0.0041  0.3580  0.1957
  468loPI   C6A 7484  15.614  13.425   7.620 -0.0161  0.1550  0.0867
  468loPI   C1B 7485  16.248  12.853   9.593  0.2158  0.1912 -0.0255
  468loPI   C2B 7486  16.212  12.766   9.206 -0.1173 -0.0527  0.0867
  468loPI   C3B 7487  16.409  12.802   8.733  0.2690  0.3411 -0.0077
  468loPI   C4B 7488  16.342  12.979   8.319  0.0900  0.3743  0.1709
  469loPI    C1 7489   2.753  10.068  10.773 -0.2291  0.0672 -0.0357
  469loPI    C2 7490   2.673  10.270  11.109  0.0869 -0.0355  0.1049
  469loPI    C3 7491   2.719   9.873  11.120  0.0166 -0.0496 -0.0753
  469loPI   PO4 7492   2.934  10.262  10.588  0.0369 -0.0163 -0.2196
  469loPI   GL1 7493   2.942  10.350  10.135 -0.0642 -0.0340 -0.2895
  469loPI   GL2 7494   2.931  10.031  10.067  0.1365  0.0627 -0.0503
  469loPI   C1A 7495   2.947  10.276   9.671  0.2121  0.2273  0.0535
  469loPI   C2A 7496   2.956  10.246   9.180 -0.2583  0.1991  0.2712
  469loPI   C3A 7497   3.027  10.261   8.706  0.1771  0.0359  0.0038
  469loPI   C4A 7498   3.362  10.138   8.308  0.2394  0.0917  0.1109
  469loPI   C5A 7499   3.781  10.081   8.315 -0.2153  0.2763 -0.0814
  469loPI   C6A 7500   4.133  10.325   8.144  0.1773 -0.2309  0.2191
  469loPI   C1B 7501   3.070   9.824   9.625  0.1301  0.2464  0.1421
  469loPI   C2B 7502   2.868   9.737   9.267 -0.0009 -0.0772 -0.0371
  469loPI   C3B 7503   2.731   9.854   8.842  0.2347  0.1272  0.3049
  469loPI   C4B 7504   2.918   9.794   8.458 -0.0242 -0.3381 -0.1547
  470loPI    C1 7505  16.210  16.985  10.613  0.1338 -0.0237  0.1843
  470loPI    C2 7506  15.976  17.142  10.898 -0.1941 -0.2134  0.0251
  470loPI    C3 7507  16.182  17.382  10.653 -0.0858 -0.0468  0.2763
  470loPI   PO4 7508  16.087  16.855  10.496  0.4797  0.1196 -0.1559
  470loPI   GL1 7509  15.875  16.778  10.132 -0.0458  0.2815  0.3762
  470loPI   GL2 7510  15.593  16.828  10.245 -0.3889 -0.1256  0.0635
  470loPI   C1A 7511  15.866  17.012   9.773  0.2752 -0.0073 -0.0332
  470loPI   C2A 7512  15.833  17.070   9.329 -0.1716 -0.1542 -0.2323
  470loPI   C3A 7513  15.862  17.018   8.925  0.0624 -0.0551 -0.0935
  470loPI   C4A 7514  15.786  17.014   8.477 -0.2837 -0.0844 -0.3044
  470loPI   C5A 7515  15.533  16.719   8.260 -0.0181  0.0946 -0.1551
  470loPI   C6A 7516  15.598  16.424   7.887 -0.1286  0.2338 -0.2222
  470loPI   C1B 7517  15.481  16.708   9.852  0.0741 -0.1765 -0.0962
  470loPI   C2B 7518  15.381  16.759   9.452  0.3520 -0.0791  0.2505
  470loPI   C3B 7519  15.373  16.786   9.112  0.0121  0.0115 -0.0707
  470loPI   C4B 7520  15.408  16.731   8.796  0.1405 -0.0706 -0.0838
  471loPI    C1 7521  11.089   8.966  11.070  0.2259  0.1413 -0.0202
  471loPI    C2 7522  11.295   9.307  11.100 -0.0198  0.2717  0.2215
  471loPI    C3 7523  11.024   9.212  11.378 -0.3142  0.1220 -0.1095
  471loPI   PO4 7524  11.172   8.868  10.940 -0.0252 -0.0098  0.0553
  471loPI   GL1 7525  11.128   8.840  10.489 -0.1362  0.0327  0.0736
  471loPI   GL2 7526  11.327   8.636  10.286  0.3892 -0.1904  0.0409
  471loPI   C1A 7527  11.075   8.970  10.069 -0.0579  0.1077  0.0658
  471loPI   C2A 7528  11.072   8.959   9.690 -0.0918 -0.2797 -0.0826
  471loPI   C3A 7529  11.096   9.059   9.259  0.1436  0.1855  0.1072
  471loPI   C4A 7530  11.114   8.953   8.902 -0.0059 -0.2164 -0.0761
  471loPI   C5A 7531  11.092   9.004   8.486 -0.1456 -0.2352  0.2165
  471loPI   C6A 7532  10.916   9.318   8.305 -0.0435  0.0650  0.1222
  471loPI   C1B 7533  11.395   8.512   9.832 -0.1810  0.1123 -0.2004
  471loPI   C2B 7534  11.257   8.581   9.443  0.0291  0.3221  0.0233
  471loPI   C3B 7535  11.352   8.576   9.072  0.1130  0.1758 -0.0567
  471loPI   C4B 7536  11.256   8.560   8.659 -0.0176 -0.0223  0.2512
  472loPI    C1 7537  12.377   6.311  10.505 -0.0971 -0.0578 -0.0068
  472loPI    C2 7538  12.595   6.537  10.753 -0.0424 -0.0765 -0.0378
  472loPI    C3 7539  12.365   6.245  10.899  0.2830 -0.3380 -0.0364
  472loPI   PO4 7540  12.404   6.453  10.263  0.0070 -0.2429  0.0134
  472loPI   GL1 7541  12.589   6.622   9.963  0.1011 -0.0004 -0.1333
  472loPI   GL2 7542  12.923   6.716   9.977 -0.2167 -0.1187 -0.1115
  472loPI   C1A 7543  12.390   6.672   9.632  0.0416  0.0072  0.0724
  472loPI   C2A 7544  12.410   6.706   9.262 -0.4729  0.2097 -0.1148
  472loPI   C3A 7545  12.387   6.765   8.890  0.1918 -0.0414  0.2591
  472loPI   C4A 7546  12.440   6.811   8.495 -0.0137 -0.0076 -0.0455
  472loPI   C5A 7547  12.342   6.896   8.084  0.0658  0.3209  0.1475
  472loPI   C6A 7548  12.070   7.158   7.766  0.2008  0.0860 -0.1557
  472loPI   C1B 7549  12.884   6.758   9.514 -0.0672  0.0638  0.1563
  472loPI   C2B 7550  12.894   6.698   9.106 -0.2890  0.2026  0.2388
  472loPI   C3B 7551  12.945   6.796   8.632  0.0858  0.2440 -0.1960
  472loPI   C4B 7552  12.890   6.845   8.180 -0.1378  0.1005 -0.1570
  473loPI    C1 7553   9.840   9.066  10.848  0.1423 -0.1743  0.2413
  473loPI    C2 7554   9.731   9.287  11.163 -0.0901  0.1744 -0.0735
  473loPI    C3 7555  10.098   9.127  11.147 -0.0555  0.2014  0.3416
  473loPI   PO4 7556   9.823   9.225  10.575  0.1101 -0.1051  0.0829
  473loPI   GL1 7557   9.803   9.526  10.358  0.1745  0.1603  0.0703
  473loPI   GL2 7558   9.978   9.800  10.240 -0.0677  0.1747  0.1885
  473loPI   C1A 7559   9.785   9.428   9.959  0.0556 -0.2954  0.1309
  473loPI   C2A 7560   9.779   9.472   9.595  0.0250  0.1148  0.1660
  473loPI   C3A 7561   9.736   9.331   9.203  0.1029  0.2609  0.0644
  473loPI   C4A 7562   9.818   9.421   8.826  0.2563  0.0175  0.2661
  473loPI   C5A 7563   9.669   9.438   8.450  0.0855 -0.0492 -0.0758
  473loPI   C6A 7564   9.629   9.803   8.182 -0.0423 -0.2364 -0.1445
  473loPI   C1B 7565  10.039   9.852   9.735  0.1549  0.1325  0.1917
  473loPI   C2B 7566  10.043   9.855   9.363 -0.2007 -0.0884 -0.1574
  473loPI   C3B 7567  10.001   9.861   8.981 -0.0925 -0.2720  0.0599
  473loPI   C4B 7568  10.008   9.756   8.570  0.0009  0.1870 -0.0236
  474loPI    C1 7569  11.127   0.247  10.505  0.1531  0.0868 -0.0263
  474loPI    C2 7570  11.205   0.161  10.888  0.0909  0.0475 -0.0222
  474loPI    C3 7571  10.949   0.455  10.796  0.0913  0.0444 -0.0336
  474loPI   PO4 7572  11.111  -0.027  10.419  0.1056 -0.1782  0.0718
  474loPI   GL1 7573  10.846  -0.168  10.032 -0.0151  0.3550  0.2479
  474loPI   GL2 7574  10.588  -0.346  10.024 -0.2813 -0.1706 -0.0724
  474loPI   C1A 7575  11.089  -0.181   9.585  0.2607  0.1033  0.0143
  474loPI   C2A 7576  11.098  -0.157   9.165 -0.4292  0.1511  0.2125
  474loPI   C3A 7577  11.207  -0.262   8.710  0.3020 -0.0029 -0.3167
  474loPI   C4A 7578  11.120  -0.202   8.237 -0.0234  0.1938 -0.0458
  474loPI   C5A 7579  10.807  -0.489   7.972  0.1216 -0.1035 -0.2357
  474loPI   C6A 7580  10.396  -0.626   8.090 -0.0652  0.1226  0.1355
  474loPI   C1B 7581  10.693  -0.468   9.605 -0.0457 -0.0162  0.1169
  474loPI   C2B 7582  10.699  -0.507   9.184  0.0313  0.0351  0.0560
  474loPI   C3B 7583  10.793  -0.475   8.840 -0.1542 -0.1588 -0.0120
  474loPI   C4B 7584  10.749  -0.585   8.460  0.3060  0.1144 -0.0068
  475loPI    C1 7585   4.766  10.906  10.822  0.0376  0.1894 -0.0427
  475loPI    C2 7586   4.929  10.620  11.049 -0.1281  0.0206 -0.1343
  475loPI    C3 7587   4.818  10.968  11.213 -0.2307 -0.0935  0.0408
  475loPI   PO4 7588   4.824  10.763  10.614 -0.0621  0.1028 -0.1320
  475loPI   GL1 7589   4.977  10.827  10.259  0.0786 -0.1059  0.1444
  475loPI   GL2 7590   5.140  10.616  10.125  0.0840  0.0347 -0.0545
  475loPI   C1A 7591   4.794  10.922   9.907  0.2072 -0.1134 -0.0092
  475loPI   C2A 7592   4.720  11.036   9.496 -0.2642  0.1021  0.0474
  475loPI   C3A 7593   4.784  10.927   9.182  0.0447 -0.0624  0.1823
  475loPI   C4A 7594   4.625  10.940   8.769  0.1880 -0.1940  0.1915
  475loPI   C5A 7595   4.738  10.572   8.586 -0.1789 -0.1831 -0.2600
  475loPI   C6A 7596   4.520  10.241   8.411 -0.2332  0.1291 -0.0843
  475loPI   C1B 7597   5.160  10.611   9.730  0.2642 -0.2571  0.2927
  475loPI   C2B 7598   5.259  10.638   9.311  0.0249  0.1861  0.1255
  475loPI   C3B 7599   5.105  10.734   8.897 -0.0888 -0.0575  0.1826
  475loPI   C4B 7600   5.230  10.648   8.419 -0.0146 -0.4579 -0.0536
  476loPI    C1 7601   3.148   2.149  10.456  0.0075 -0.0479 -0.0021
  476loPI    C2 7602   3.143   2.493  10.661 -0.1278 -0.0853  0.0583
  476loPI    C3 7603   3.125   2.144  10.856 -0.1645 -0.1229 -0.0122
  476loPI   PO4 7604   3.109   2.260  10.214  0.0637 -0.0486  0.0484
  476loPI   GL1 7605   3.341   2.273   9.882  0.0276 -0.1402  0.2338
  476loPI   GL2 7606   3.456   2.008   9.734  0.1314 -0.2134  0.1353
  476loPI   C1A 7607   3.178   2.385   9.515  0.0045 -0.0576  0.1708
  476loPI   C2A 7608   3.269   2.413   9.036 -0.1329 -0.1324  0.1109
  476loPI   C3A 7609   3.233   2.671   8.687 -0.1895 -0.1241 -0.4010
  476loPI   C4A 7610   3.292   2.691   8.325  0.2024  0.2141  0.2893
  476loPI   C5A 7611   3.084   2.515   7.922  0.3411  0.0079  0.2487
  476loPI   C6A 7612   3.085   2.287   7.536 -0.0767  0.4427 -0.3864
  476loPI   C1B 7613   3.480   2.016   9.303 -0.1599  0.1846 -0.5509
  476loPI   C2B 7614   3.595   1.969   8.898  0.0916  0.1306 -0.2160
  476loPI   C3B 7615   3.556   2.282   8.528 -0.0681  0.1637 -0.0989
  476loPI   C4B 7616   3.520   2.301   8.103  0.1936 -0.1978 -0.2822
  477loPI    C1 7617  15.507   6.291  10.393 -0.1747  0.0701  0.1001
  477loPI    C2 7618  15.693   6.439  10.714  0.2464 -0.3317  0.0523
  477loPI    C3 7619  15.410   6.161  10.759  0.0740 -0.1530  0.0896
  477loPI   PO4 7620  15.647   6.427  10.188 -0.1899  0.5061 -0.1490
  477loPI   GL1 7621  15.762   6.733  10.004  0.1774  0.2208  0.1788
  477loPI   GL2 7622  16.026   6.657   9.897 -0.2848 -0.1510 -0.0834
  477loPI   C1A 7623  15.450   6.772   9.670  0.2001  0.0550 -0.2982
  477loPI   C2A 7624  15.481   6.756   9.249 -0.2437  0.2884 -0.2142
  477loPI   C3A 7625  15.555   6.740   8.788  0.0032  0.3060  0.0362
  477loPI   C4A 7626  15.582   6.823   8.343  0.0115 -0.1325 -0.2270
  477loPI   C5A 7627  15.710   6.777   7.895 -0.2439 -0.1342  0.0039
  477loPI   C6A 7628  16.012   6.574   7.643 -0.0509 -0.1179  0.1566
  477loPI   C1B 7629  15.910   6.759   9.538  0.2604  0.1422  0.0085
  477loPI   C2B 7630  16.035   6.733   9.105  0.0942 -0.0286 -0.3041
  477loPI   C3B 7631  16.050   6.744   8.702 -0.1648  0.3318 -0.0115
  477loPI   C4B 7632  16.096   6.769   8.216 -0.1336  0.0128 -0.0171
  478loPI    C1 7633   8.580   5.570  10.774 -0.1866  0.0732  0.1902
  478loPI    C2 7634   8.284   5.304  10.728  0.1729 -0.3338  0.1711
  478loPI    C3 7635   8.535   5.273  11.038  0.2975 -0.0911  0.0970
  478loPI   PO4 7636   8.624   5.596  10.526 -0.3319 -0.0988  0.1441
  478loPI   GL1 7637   8.583   5.823  10.144  0.1774 -0.0250  0.1067
  478loPI   GL2 7638   8.360   5.798   9.953  0.1671  0.0786 -0.2064
  478loPI   C1A 7639   8.805   5.816   9.757 -0.1590  0.0708 -0.0381
  478loPI   C2A 7640   8.779   5.787   9.388 -0.1274 -0.1248 -0.2450
  478loPI   C3A 7641   8.754   5.798   9.002  0.2763 -0.1150 -0.1132
  478loPI   C4A 7642   8.736   5.777   8.555  0.3720  0.0161  0.0180
  478loPI   C5A 7643   8.611   5.768   8.069 -0.2600 -0.1020 -0.1169
  478loPI   C6A 7644   9.011   5.762   7.863  0.0202  0.3172  0.2224
  478loPI   C1B 7645   8.255   5.821   9.572 -0.1707  0.0089  0.0045
  478loPI   C2B 7646   8.227   5.821   9.133  0.2016 -0.0066  0.0586
  478loPI   C3B 7647   8.261   5.899   8.716  0.0699 -0.0343 -0.1587
  478loPI   C4B 7648   8.134   5.761   8.345 -0.1448  0.3754  0.0383
  479loPI    C1 7649   6.362  13.532  10.806  0.2441 -0.0964  0.2047
  479loPI    C2 7650   6.148  13.841  10.943  0.0312 -0.2047  0.1217
  479loPI    C3 7651   6.513  13.769  11.091  0.0184 -0.0082  0.2531
  479loPI   PO4 7652   6.229  13.487  10.539  0.2640 -0.1783 -0.0924
  479loPI   GL1 7653   6.367  13.228  10.226 -0.1181  0.1943  0.3472
  479loPI   GL2 7654   6.048  13.031  10.241  0.3429 -0.0019  0.0500
  479loPI   C1A 7655   6.215  13.255   9.832  0.0857 -0.0611  0.2437
  479loPI   C2A 7656   6.302  13.314   9.474  0.0618  0.0465  0.1739
  479loPI   C3A 7657   6.357  13.334   9.011  0.1700 -0.2100 -0.2061
  479loPI   C4A 7658   6.222  13.287   8.666 -0.1147 -0.0714  0.1474
  479loPI   C5A 7659   6.158  13.117   8.200  0.2446  0.1465 -0.0342
  479loPI   C6A 7660   6.009  12.728   8.106 -0.3936 -0.1843  0.1628
  479loPI   C1B 7661   5.802  12.947   9.828 -0.2610 -0.1600  0.2970
  479loPI   C2B 7662   5.808  12.859   9.359  0.1347  0.2982 -0.0231
  479loPI   C3B 7663   5.840  12.896   8.897 -0.2699 -0.0166 -0.0407
  479loPI   C4B 7664   5.735  12.963   8.513  0.3518  0.0241  0.0450
  480loPI    C1 7665  14.430  11.254  10.615  0.2077  0.0622  0.0893
  480loPI    C2 7666  14.272  11.326  10.975  0.1608 -0.1491  0.1121
  480loPI    C3 7667  14.035  11.301  10.654  0.1614 -0.3216  0.1238
  480loPI   PO4 7668  14.567  11.371  10.487 -0.3327 -0.0019 -0.1583
  480loPI   GL1 7669  14.594  11.588  10.126 -0.1205 -0.2697 -0.0805
  480loPI   GL2 7670  14.871  11.829   9.962 -0.0978 -0.0628 -0.2998
  480loPI   C1A 7671  14.492  11.671   9.761 -0.0882 -0.2153  0.0990
  480loPI   C2A 7672  14.496  11.690   9.305  0.2592  0.1455  0.0031
  480loPI   C3A 7673  14.577  11.753   8.888 -0.3140  0.1222 -0.0388
  480loPI   C4A 7674  14.768  11.584   8.472 -0.0765  0.1786 -0.1332
  480loPI   C5A 7675  14.981  11.495   7.939  0.2023 -0.1544 -0.0295
  480loPI   C6A 7676  14.728  11.187   7.687 -0.1360 -0.1624 -0.1934
  480loPI   C1B 7677  14.955  12.012   9.600  0.2044  0.0344 -0.0579
  480loPI   C2B 7678  14.994  11.994   9.144  0.0901 -0.0318 -0.2167
  480loPI   C3B 7679  15.068  11.942   8.723  0.0891  0.3598 -0.1806
  480loPI   C4B 7680  15.076  12.000   8.220 -0.3734  0.4697 -0.2666
  481loPI    C1 7681   5.346  14.367  10.755 -0.1680  0.0312  0.0023
  481loPI    C2 7682   5.265  14.037  10.966  0.0633  0.0585  0.1370
  481loPI    C3 7683   5.355  14.378  11.155  0.1111  0.1251 -0.0046
  481loPI   PO4 7684   5.431  14.251  10.552 -0.0546 -0.1610 -0.0209
  481loPI   GL1 7685   5.703  14.236  10.214 -0.0497  0.1658  0.0495
  481loPI   GL2 7686   5.644  14.436  10.037  0.2418 -0.1036 -0.0929
  481loPI   C1A 7687   5.692  14.017   9.841  0.0313  0.0689  0.1613
  481loPI   C2A 7688   5.707  13.965   9.488 -0.0637  0.0158 -0.0797
  481loPI   C3A 7689   5.663  14.097   9.065 -0.1481  0.3574  0.0765
  481loPI   C4A 7690   5.672  13.990   8.598  0.0307 -0.0674 -0.0910
  481loPI   C5A 7691   5.537  14.156   8.175 -0.0256  0.0032 -0.0735
  481loPI   C6A 7692   5.190  14.125   7.969 -0.3238 -0.1887  0.1608
  481loPI   C1B 7693   5.532  14.509   9.583 -0.0751  0.2408 -0.3272
  481loPI   C2B 7694   5.581  14.567   9.134 -0.0021  0.2297 -0.1868
  481loPI   C3B 7695   5.548  14.473   8.659 -0.1260  0.0099 -0.1818
  481loPI   C4B 7696   5.737  14.610   8.283 -0.0348  0.4593 -0.1752
  482loPI    C1 7697   3.610  10.822  10.809  0.1904 -0.0140  0.0441
  482loPI    C2 7698   3.846  10.882  11.127  0.0756 -0.1307  0.1521
  482loPI    C3 7699   3.585  10.578  11.125 -0.0183 -0.0503  0.0007
  482loPI   PO4 7700   3.731  10.877  10.605 -0.0326  0.0852  0.0062
  482loPI   GL1 7701   4.015  10.745  10.273 -0.0040 -0.1407  0.1449
  482loPI   GL2 7702   3.973  11.081  10.242 -0.1535  0.2644 -0.4536
  482loPI   C1A 7703   4.362  10.677  10.026  0.3441  0.4452  0.0483
  482loPI   C2A 7704   4.293  10.672   9.604 -0.0091  0.1691  0.2725
  482loPI   C3A 7705   4.303  10.722   9.224  0.0545 -0.2450  0.0863
  482loPI   C4A 7706   4.196  10.669   8.864 -0.0505 -0.0498  0.1636
  482loPI   C5A 7707   4.228  10.694   8.478  0.0435 -0.1201  0.1247
  482loPI   C6A 7708   4.389  11.033   8.224 -0.2239  0.2837 -0.3206
  482loPI   C1B 7709   3.925  10.895   9.802 -0.0823 -0.3082  0.1509
  482loPI   C2B 7710   3.838  10.912   9.296 -0.0319 -0.0940 -0.3902
  482loPI   C3B 7711   3.776  10.896   8.914 -0.1214 -0.0363  0.0710
  482loPI   C4B 7712   3.748  10.669   8.523 -0.0093 -0.0158 -0.0272
  483loPI    C1 7713  12.949   6.892  10.675 -0.0441  0.1023 -0.0379
  483loPI    C2 7714  12.638   6.915  10.424 -0.0080  0.1660 -0.0770
  483loPI    C3 7715  12.600   7.040  10.802 -0.1141 -0.0919 -0.0002
  483loPI   PO4 7716  13.119   6.954  10.569 -0.2282  0.0612  0.1909
  483loPI   GL1 7717  13.172   7.281  10.261  0.0661 -0.0707  0.1457
  483loPI   GL2 7718  13.106   7.636  10.348  0.0865  0.1220 -0.0748
  483loPI   C1A 7719  13.171   7.155   9.807  0.2793  0.3850  0.1010
  483loPI   C2A 7720  13.199   7.136   9.402 -0.2019  0.1557 -0.0577
  483loPI   C3A 7721  13.097   7.168   8.916 -0.1474 -0.2292  0.0684
  483loPI   C4A 7722  13.216   7.267   8.470  0.3974  0.0923  0.1580
  483loPI   C5A 7723  13.327   7.328   7.947  0.1530 -0.2628 -0.1474
  483loPI   C6A 7724  13.291   7.500   7.506 -0.1842  0.0188  0.0275
  483loPI   C1B 7725  13.008   7.625   9.897  0.2174 -0.2484 -0.1385
  483loPI   C2B 7726  12.899   7.663   9.400  0.1439  0.4278 -0.0334
  483loPI   C3B 7727  12.833   7.651   8.979 -0.0452  0.2265  0.4087
  483loPI   C4B 7728  12.940   7.694   8.487 -0.2952  0.5441  0.2991
  484loPI    C1 7729   1.630  11.763  10.829 -0.2870 -0.1779 -0.0754
  484loPI    C2 7730   1.728  11.377  10.857 -0.1688 -0.1346  0.1287
  484loPI    C3 7731   1.384  11.507  11.013 -0.2422 -0.1694 -0.0030
  484loPI   PO4 7732   1.709  11.756  10.541  0.0625 -0.0073 -0.0418
  484loPI   GL1 7733   1.913  11.882  10.297 -0.2740 -0.1950  0.0141
  484loPI   GL2 7734   1.976  11.635  10.157  0.1457 -0.0999  0.0822
  484loPI   C1A 7735   1.871  12.064   9.858  0.2032  0.1032 -0.2579
  484loPI   C2A 7736   1.921  12.263   9.454  0.0005  0.0206 -0.1051
  484loPI   C3A 7737   1.868  12.228   9.026  0.2044  0.0074 -0.0034
  484loPI   C4A 7738   1.849  12.153   8.559  0.0768  0.0125  0.0234
  484loPI   C5A 7739   1.639  12.047   8.123 -0.4311  0.0631  0.0783
  484loPI   C6A 7740   1.703  11.714   7.880  0.1775 -0.1088 -0.2063
  484loPI   C1B 7741   2.033  11.692   9.637  0.1254 -0.0568 -0.0281
  484loPI   C2B 7742   1.914  11.760   9.308 -0.3356 -0.0308 -0.1502
  484loPI   C3B 7743   1.881  11.744   8.878  0.1851  0.0151  0.0696
  484loPI   C4B 7744   1.875  11.661   8.442 -0.3061  0.2967 -0.0730
  485loPI    C1 7745  12.308  13.084  10.926  0.2139  0.1023 -0.2985
  485loPI    C2 7746  12.235  12.754  10.712 -0.1640 -0.0311  0.0217
  485loPI    C3 7747  12.393  12.724  11.078  0.2090  0.1770 -0.1160
  485loPI   PO4 7748  12.346  13.255  10.782 -0.0779  0.3706 -0.2984
  485loPI   GL1 7749  12.353  13.079  10.357  0.1349 -0.0474 -0.1179
  485loPI   GL2 7750  12.403  12.770  10.255  0.2377  0.2171 -0.0006
  485loPI   C1A 7751  12.655  13.236   9.971 -0.1712 -0.2221 -0.1525
  485loPI   C2A 7752  12.589  13.245   9.527 -0.0373  0.0983  0.0600
  485loPI   C3A 7753  12.562  13.156   9.117 -0.3399 -0.2778 -0.0359
  485loPI   C4A 7754  12.681  13.099   8.717 -0.0403  0.1989  0.0848
  485loPI   C5A 7755  12.687  13.098   8.320 -0.1842  0.1210  0.1804
  485loPI   C6A 7756  12.875  12.910   8.010 -0.2337 -0.1442  0.1617
  485loPI   C1B 7757  12.306  12.916   9.884 -0.1198  0.2922  0.0911
  485loPI   C2B 7758  12.248  12.902   9.461 -0.1558 -0.1612 -0.0445
  485loPI   C3B 7759  12.193  12.858   9.057 -0.0184 -0.0372 -0.3466
  485loPI   C4B 7760  12.167  12.843   8.573  0.1959  0.1314 -0.0536
  486loPI    C1 7761  11.312  17.901  10.712  0.2937 -0.1133  0.0799
  486loPI    C2 7762  11.070  17.655  10.915  0.0483 -0.1413 -0.2371
  486loPI    C3 7763  11.048  18.050  10.972  0.0437 -0.1546 -0.1451
  486loPI   PO4 7764  11.338  17.857  10.524 -0.2094  0.4442 -0.1797
  486loPI   GL1 7765  11.553  17.846  10.144 -0.0310  0.0333  0.3763
  486loPI   GL2 7766  11.488  18.139  10.055 -0.2510  0.0421  0.1179
  486loPI   C1A 7767  11.636  17.489   9.969 -0.3610 -0.1228  0.2804
  486loPI   C2A 7768  11.726  17.309   9.609  0.4928 -0.2309  0.1117
  486loPI   C3A 7769  11.764  17.320   9.214  0.0423 -0.0468  0.2314
  486loPI   C4A 7770  11.773  17.343   8.832 -0.0619 -0.0522  0.0154
  486loPI   C5A 7771  11.705  17.424   8.448 -0.1872  0.1518 -0.0300
  486loPI   C6A 7772  11.802  17.657   8.103  0.1830 -0.1589  0.1627
  486loPI   C1B 7773  11.598  17.999   9.680  0.1956  0.1775  0.0845
  486loPI   C2B 7774  11.690  17.935   9.275 -0.1352  0.0973 -0.0778
  486loPI   C3B 7775  11.666  17.824   8.785 -0.1208 -0.2216 -0.0208
  486loPI   C4B 7776  11.565  17.983   8.387 -0.2443  0.2621  0.1639
  487loPI    C1 7777   8.993   5.312  10.718  0.1673 -0.2747  0.0966
  487loPI    C2 7778   9.273   5.151  10.953  0.1842 -0.0202  0.2546
  487loPI    C3 7779   9.071   5.474  11.076 -0.0922 -0.1277  0.0894
  487loPI   PO4 7780   9.108   5.221  10.451  0.0873 -0.0236  0.0451
  487loPI   GL1 7781   9.048   5.397   9.926  0.0202  0.3365  0.1363
  487loPI   GL2 7782   8.740   5.339  10.081 -0.0533 -0.1571  0.0578
  487loPI   C1A 7783   8.929   5.345   9.556  0.0244  0.2769 -0.1598
  487loPI   C2A 7784   9.016   5.409   9.190 -0.1145 -0.0527 -0.4202
  487loPI   C3A 7785   8.976   5.301   8.666 -0.2321 -0.1985 -0.2965
  487loPI   C4A 7786   8.957   5.428   8.264  0.2130 -0.0757  0.2494
  487loPI   C5A 7787   8.898   5.301   7.894 -0.3917 -0.0643  0.1420
  487loPI   C6A 7788   8.635   4.902   7.705 -0.3099  0.1831  0.1877
  487loPI   C1B 7789   8.415   5.358   9.719 -0.3631  0.0419 -0.2396
  487loPI   C2B 7790   8.511   5.347   9.330  0.0893 -0.2231  0.0338
  487loPI   C3B 7791   8.531   5.357   8.955  0.1603 -0.1321 -0.0372
  487loPI   C4B 7792   8.434   5.349   8.506  0.0047 -0.3913  0.2536
  488loPI    C1 7793   7.589  14.528  11.111  0.0638  0.0718  0.1399
  488loPI    C2 7794   7.627  14.881  11.294  0.1032  0.0163  0.2394
  488loPI    C3 7795   7.769  14.550  11.467  0.1004 -0.0431  0.1288
  488loPI   PO4 7796   7.674  14.559  10.887 -0.1874  0.3193 -0.0151
  488loPI   GL1 7797   7.698  14.489  10.486  0.0830 -0.0596  0.0055
  488loPI   GL2 7798   7.429  14.456  10.365  0.1831 -0.1282  0.1231
  488loPI   C1A 7799   7.950  14.671  10.131 -0.1757 -0.1169 -0.0109
  488loPI   C2A 7800   7.985  14.526   9.647 -0.0925 -0.1214  0.0796
  488loPI   C3A 7801   7.878  14.597   9.179  0.1287 -0.4178  0.0936
  488loPI   C4A 7802   7.907  14.612   8.859 -0.2210  0.1078  0.0844
  488loPI   C5A 7803   7.960  14.543   8.490  0.0223 -0.1259  0.1418
  488loPI   C6A 7804   8.055  14.476   8.045  0.0685 -0.0591 -0.1636
  488loPI   C1B 7805   7.624  14.291   9.949  0.1093  0.3809 -0.1761
  488loPI   C2B 7806   7.481  14.253   9.453 -0.1128 -0.0764 -0.0854
  488loPI   C3B 7807   7.481  14.287   8.994 -0.2450  0.0073 -0.3347
  488loPI   C4B 7808   7.593  14.259   8.580  0.0456  0.3450 -0.4889
  489loPI    C1 7809   1.310  13.593  10.587 -0.0583  0.0124 -0.0215
  489loPI    C2 7810   0.933  13.591  10.452 -0.0727  0.0436  0.0180
  489loPI    C3 7811   1.006  13.552  10.844 -0.0296 -0.0810 -0.0017
  489loPI   PO4 7812   1.418  13.743  10.398 -0.0264 -0.0938  0.0193
  489loPI   GL1 7813   1.119  14.046  10.184  0.0277  0.0424  0.0290
  489loPI   GL2 7814   0.894  14.163   9.975  0.0803  0.1927  0.2516
  489loPI   C1A 7815   1.251  13.799   9.797  0.0191  0.1037  0.1956
  489loPI   C2A 7816   1.288  13.745   9.355 -0.0403  0.2148  0.2411
  489loPI   C3A 7817   1.179  13.992   8.990  0.1125 -0.1639 -0.3981
  489loPI   C4A 7818   1.166  14.016   8.591 -0.3624  0.2043 -0.3206
  489loPI   C5A 7819   0.966  14.090   8.154  0.2602 -0.0396  0.2522
  489loPI   C6A 7820   0.633  14.111   7.720 -0.1971  0.1011 -0.1590
  489loPI   C1B 7821   0.982  14.110   9.542  0.1284 -0.1377  0.0052
  489loPI   C2B 7822   0.745  14.097   9.123 -0.1607 -0.2234 -0.0190
  489loPI   C3B 7823   0.678  14.162   8.645  0.2243 -0.0531  0.0568
  489loPI   C4B 7824   0.564  14.437   8.285 -0.2512 -0.0346  0.0513
  490loPI    C1 7825   7.555   6.555  11.067  0.0200  0.2193  0.2521
  490loPI    C2 7826   7.501   6.159  11.086 -0.0551  0.2158  0.0057
  490loPI    C3 7827   7.767   6.336  11.326 -0.0767  0.0274  0.1716
  490loPI   PO4 7828   7.565   6.617  10.844  0.1648 -0.3882 -0.1866
  490loPI   GL1 7829   7.621   6.763  10.415 -0.2892 -0.0354 -0.2072
  490loPI   GL2 7830   7.573   6.514  10.215  0.0096  0.3290  0.0453
  490loPI   C1A 7831   7.302   6.972  10.258  0.0627  0.0154 -0.2774
  490loPI   C2A 7832   7.287   7.210  10.038 -0.1678  0.1059 -0.0404
  490loPI   C3A 7833   7.419   7.128   9.656  0.0071  0.0033 -0.0526
  490loPI   C4A 7834   7.387   7.097   9.171  0.2466  0.2172  0.1555
  490loPI   C5A 7835   7.313   6.999   8.762  0.2265 -0.1174 -0.1035
  490loPI   C6A 7836   7.071   7.192   8.499  0.0881 -0.0686 -0.1339
  490loPI   C1B 7837   7.564   6.663   9.787  0.0522  0.0697  0.0082
  490loPI   C2B 7838   7.688   6.706   9.377  0.1072 -0.3281 -0.1544
  490loPI   C3B 7839   7.730   6.646   8.905 -0.0147 -0.0199 -0.3378
  490loPI   C4B 7840   7.663   6.639   8.521 -0.0709  0.1001 -0.0191
  491loPI    C1 7841   7.666   7.745  11.014 -0.0064 -0.1251  0.0811
  491loPI    C2 7842   7.858   7.436  11.180  0.0841 -0.0554  0.1067
  491loPI    C3 7843   7.791   7.768  11.393  0.1395  0.0082  0.0260
  491loPI   PO4 7844   7.534   7.588  10.746  0.0492  0.3049 -0.1845
  491loPI   GL1 7845   7.403   7.714  10.323 -0.2429 -0.1519 -0.0415
  491loPI   GL2 7846   7.112   7.515  10.443 -0.3376  0.1916  0.4132
  491loPI   C1A 7847   7.587   7.611   9.894  0.1710  0.1468  0.4169
  491loPI   C2A 7848   7.625   7.588   9.476  0.1807  0.1956  0.3002
  491loPI   C3A 7849   7.784   7.612   9.097  0.0240 -0.1677  0.1837
  491loPI   C4A 7850   7.633   7.418   8.683 -0.0138 -0.0285 -0.1913
  491loPI   C5A 7851   7.573   7.173   8.263  0.0185 -0.0847  0.0312
  491loPI   C6A 7852   7.615   7.271   7.822  0.0987 -0.2553 -0.0618
  491loPI   C1B 7853   6.980   7.626  10.105 -0.0255  0.4795  0.0911
  491loPI   C2B 7854   7.133   7.603   9.668  0.3342  0.0667 -0.1525
  491loPI   C3B 7855   7.228   7.590   9.215 -0.0769  0.1804  0.0741
  491loPI   C4B 7856   7.146   7.580   8.788  0.2079  0.1771  0.1892
  492loPI    C1 7857   9.773  18.028  10.779  0.1838 -0.2610 -0.1590
  492loPI    C2 7858   9.647  18.188  11.123  0.1896  0.0750 -0.3101
  492loPI    C3 7859   9.858  17.848  11.126 -0.0117 -0.0510  0.0004
  492loPI   PO4 7860   9.650  18.175  10.626  0.1001 -0.0664 -0.1566
  492loPI   GL1 7861   9.552  18.203  10.163 -0.1312  0.2461  0.3864
  492loPI   GL2 7862   9.463  18.463   9.943 -0.2174  0.0364 -0.2846
  492loPI   C1A 7863   9.352  18.013   9.780  0.2620 -0.1683  0.0149
  492loPI   C2A 7864   9.413  17.904   9.339 -0.3056 -0.1051  0.0344
  492loPI   C3A 7865   9.310  17.936   8.952 -0.3336  0.0121 -0.1452
  492loPI   C4A 7866   9.266  17.895   8.505 -0.0911 -0.0968  0.0505
  492loPI   C5A 7867   9.524  17.757   8.297 -0.0286  0.0173 -0.0232
  492loPI   C6A 7868   9.779  17.416   8.109 -0.2494  0.0179 -0.1871
  492loPI   C1B 7869   9.701  18.275   9.489 -0.2236  0.0658  0.0255
  492loPI   C2B 7870   9.809  18.240   9.062 -0.3510 -0.0785  0.1707
  492loPI   C3B 7871   9.810  18.124   8.658  0.1139 -0.2717  0.2941
  492loPI   C4B 7872   9.641  18.217   8.319 -0.1070  0.2975  0.1115
  493loPI    C1 7873   7.016   5.005  10.862 -0.0715 -0.1173 -0.0565
  493loPI    C2 7874   7.379   5.114  10.992 -0.0019 -0.1393 -0.2297
  493loPI    C3 7875   7.065   5.355  11.048  0.0297 -0.1420 -0.0357
  493loPI   PO4 7876   7.129   4.931  10.573 -0.0505 -0.1423 -0.1340
  493loPI   GL1 7877   7.296   5.131  10.204 -0.0985 -0.0565  0.0481
  493loPI   GL2 7878   7.584   5.323  10.051 -0.1234  0.1406 -0.0988
  493loPI   C1A 7879   6.976   5.143   9.899 -0.1829  0.2185 -0.1031
  493loPI   C2A 7880   7.002   5.213   9.446 -0.3487  0.1285 -0.0833
  493loPI   C3A 7881   6.906   5.267   9.040  0.1165  0.0094 -0.0000
  493loPI   C4A 7882   7.020   5.223   8.628  0.0489  0.2890  0.0362
  493loPI   C5A 7883   7.113   5.317   8.178  0.1765 -0.1336  0.1141
  493loPI   C6A 7884   7.227   5.003   7.834  0.3255  0.3051 -0.1218
  493loPI   C1B 7885   7.411   5.341   9.693 -0.3350  0.0019 -0.2643
  493loPI   C2B 7886   7.422   5.277   9.233  0.1620 -0.3685  0.2938
  493loPI   C3B 7887   7.462   5.334   8.774  0.0846  0.0327 -0.0512
  493loPI   C4B 7888   7.586   5.302   8.308  0.3845  0.0427  0.3008
  494loPI    C1 7889  15.317  14.477  10.703 -0.0626  0.0766 -0.0196
  494loPI    C2 7890  15.151  14.225  10.441  0.0021  0.0915 -0.0751
  494loPI    C3 7891  15.052  14.204  10.828  0.1405 -0.1374 -0.0506
  494loPI   PO4 7892  15.366  14.692  10.580  0.1118  0.1515 -0.0225
  494loPI   GL1 7893  15.508  14.744  10.161 -0.0529 -0.1078  0.1865
  494loPI   GL2 7894  15.296  14.467  10.054 -0.2831 -0.0972 -0.3058
  494loPI   C1A 7895  15.605  14.739   9.715 -0.0393  0.0281 -0.1910
  494loPI   C2A 7896  15.580  14.683   9.265  0.0215 -0.0296  0.3013
  494loPI   C3A 7897  15.614  14.773   8.863  0.1017  0.0353 -0.0149
  494loPI   C4A 7898  15.611  14.745   8.501 -0.0381  0.1383  0.0826
  494loPI   C5A 7899  15.619  14.591   8.038 -0.0958  0.0989 -0.0011
  494loPI   C6A 7900  15.575  14.406   7.694 -0.1728  0.3932  0.0681
  494loPI   C1B 7901  15.187  14.339   9.687  0.2171  0.1513  0.3665
  494loPI   C2B 7902  15.136  14.371   9.286 -0.2473  0.0210 -0.3095
  494loPI   C3B 7903  15.200  14.346   8.844  0.3394  0.2946  0.0330
  494loPI   C4B 7904  15.255  14.413   8.387  0.2197 -0.1124  0.1150
  495loPI    C1 7905  13.730   8.513  10.918 -0.2853  0.0991 -0.0192
  495loPI    C2 7906  13.614   8.713  11.244 -0.1138  0.0283  0.0862
  495loPI    C3 7907  13.782   8.352  11.280  0.2069  0.1600 -0.0565
  495loPI   PO4 7908  13.949   8.640  10.826 -0.0433 -0.2097 -0.0129
  495loPI   GL1 7909  14.162   8.643  10.422 -0.0820 -0.1004 -0.0142
  495loPI   GL2 7910  13.875   8.416  10.344 -0.1155  0.0367 -0.0417
  495loPI   C1A 7911  14.516   8.569  10.033 -0.1965  0.2270 -0.0895
  495loPI   C2A 7912  14.421   8.485   9.593 -0.0399  0.2515 -0.0136
  495loPI   C3A 7913  14.385   8.540   9.230 -0.5597  0.0616  0.2195
  495loPI   C4A 7914  14.500   8.574   8.709  0.1711  0.3877  0.1602
  495loPI   C5A 7915  14.591   8.650   8.328 -0.0640 -0.0708  0.0849
  495loPI   C6A 7916  14.938   8.777   7.966  0.1254 -0.1159 -0.0639
  495loPI   C1B 7917  13.954   8.494   9.965 -0.3485 -0.2039 -0.0478
  495loPI   C2B 7918  13.914   8.524   9.512  0.1209 -0.0717  0.0995
  495loPI   C3B 7919  13.902   8.536   9.061 -0.2123 -0.2298 -0.1947
  495loPI   C4B 7920  14.000   8.514   8.666  0.1844 -0.0307 -0.0307
  496loPI    C1 7921  11.453  15.500  10.830 -0.0994  0.1183 -0.0046
  496loPI    C2 7922  11.430  15.394  11.215  0.0343  0.1060  0.0003
  496loPI    C3 7923  11.659  15.704  11.106  0.0546  0.0636 -0.0780
  496loPI   PO4 7924  11.493  15.352  10.728  0.2444  0.0707 -0.0475
  496loPI   GL1 7925  11.663  15.361  10.314  0.2588  0.0423  0.2949
  496loPI   GL2 7926  11.491  15.601  10.178  0.1226  0.1226  0.2218
  496loPI   C1A 7927  11.903  15.315  10.003  0.0156  0.0687 -0.1333
  496loPI   C2A 7928  11.949  15.391   9.596 -0.1766 -0.1393  0.1334
  496loPI   C3A 7929  12.001  15.313   9.155 -0.2262 -0.3233  0.2801
  496loPI   C4A 7930  11.962  15.328   8.797 -0.1522 -0.2276  0.1918
  496loPI   C5A 7931  11.956  15.452   8.388  0.0229  0.2792 -0.2574
  496loPI   C6A 7932  11.894  15.765   8.057  0.0632 -0.1172 -0.2272
  496loPI   C1B 7933  11.501  15.534   9.699 -0.3478 -0.1865  0.4109
  496loPI   C2B 7934  11.573  15.549   9.186 -0.0218  0.0468 -0.1415
  496loPI   C3B 7935  11.550  15.512   8.675  0.1118 -0.2350 -0.0260
  496loPI   C4B 7936  11.527  15.490   8.283  0.0210  0.4738 -0.0187
  497loPI    C1 7937  13.706   5.814  10.265  0.1263 -0.2656  0.1355
  497loPI    C2 7938  14.084   5.692  10.218  0.2457  0.0605  0.2225
  497loPI    C3 7939  13.915   5.685  10.581  0.1114 -0.2361  0.1574
  497loPI   PO4 7940  13.688   5.998  10.149 -0.0132  0.4925  0.2565
  497loPI   GL1 7941  13.719   6.117   9.768 -0.1542 -0.0834 -0.2784
  497loPI   GL2 7942  13.518   5.878   9.666 -0.3007  0.1255  0.2164
  497loPI   C1A 7943  13.726   6.394   9.524  0.1923  0.2335 -0.2285
  497loPI   C2A 7944  13.677   6.267   9.152 -0.0826  0.0872  0.0334
  497loPI   C3A 7945  13.622   6.328   8.684 -0.2559 -0.1692 -0.4241
  497loPI   C4A 7946  13.802   6.433   8.266 -0.0315  0.0205 -0.0554
  497loPI   C5A 7947  13.934   6.221   7.888  0.4376  0.1921  0.1387
  497loPI   C6A 7948  13.966   6.201   7.441  0.1412 -0.0125  0.1891
  497loPI   C1B 7949  13.387   5.883   9.252 -0.2711  0.1055  0.0800
  497loPI   C2B 7950  13.414   5.916   8.831 -0.3398 -0.4024 -0.1031
  497loPI   C3B 7951  13.235   5.802   8.454 -0.1179 -0.3832 -0.1926
  497loPI   C4B 7952  13.133   5.891   8.020 -0.1861 -0.0376  0.2097
  498loPI    C1 7953   5.508   9.025  10.886  0.1645 -0.1076 -0.1527
  498loPI    C2 7954   5.200   8.913  11.116  0.0015  0.2254 -0.2040
  498loPI    C3 7955   5.480   8.647  11.014 -0.1471 -0.0258  0.0316
  498loPI   PO4 7956   5.376   9.233  10.705 -0.0285 -0.0189 -0.2994
  498loPI   GL1 7957   5.268   9.137  10.283  0.0493 -0.2176  0.3619
  498loPI   GL2 7958   5.397   9.443  10.202  0.1271 -0.1538  0.5203
  498loPI   C1A 7959   5.148   8.885  10.028  0.4216  0.1256 -0.0167
  498loPI   C2A 7960   5.249   8.827   9.599 -0.1640 -0.1262 -0.0076
  498loPI   C3A 7961   5.368   8.840   9.106  0.1233 -0.1351  0.1427
  498loPI   C4A 7962   5.269   8.713   8.702  0.2602  0.1000  0.1358
  498loPI   C5A 7963   5.500   8.483   8.399  0.0842  0.1239  0.1102
  498loPI   C6A 7964   5.658   8.328   8.080 -0.0955  0.2045  0.0321
  498loPI   C1B 7965   5.394   9.320   9.772 -0.0957  0.4787  0.2147
  498loPI   C2B 7966   5.467   9.243   9.331 -0.1747  0.2025  0.0495
  498loPI   C3B 7967   5.606   9.331   8.901  0.1132 -0.1670 -0.1171
  498loPI   C4B 7968   5.877   9.543   8.630  0.0850 -0.0871 -0.1332
  499loPI    C1 7969   0.480  12.644  10.330  0.2060  0.0555 -0.1435
  499loPI    C2 7970   0.771  12.593  10.599  0.0930  0.0505 -0.0209
  499loPI    C3 7971   0.453  12.818  10.689 -0.1020 -0.2169 -0.0289
  499loPI   PO4 7972   0.612  12.426  10.145 -0.2459  0.0503 -0.3251
  499loPI   GL1 7973   0.983  12.311   9.963 -0.0466 -0.1357 -0.1452
  499loPI   GL2 7974   0.977  12.644   9.875 -0.0590  0.0180  0.0182
  499loPI   C1A 7975   1.020  12.056   9.753  0.0266 -0.0052 -0.0308
  499loPI   C2A 7976   0.958  12.022   9.284  0.0342 -0.0279  0.1952
  499loPI   C3A 7977   1.033  11.985   8.826 -0.0966 -0.0838 -0.2143
  499loPI   C4A 7978   1.113  12.198   8.472 -0.2371 -0.1129  0.0938
  499loPI   C5A 7979   1.094  12.297   8.004  0.0333 -0.1978 -0.1171
  499loPI   C6A 7980   1.543  12.424   7.697  0.0175  0.0609 -0.2171
  499loPI   C1B 7981   0.870  12.528   9.410 -0.2178 -0.2301 -0.0474
  499loPI   C2B 7982   1.017  12.474   8.987  0.0795 -0.2637  0.0965
  499loPI   C3B 7983   0.932  12.616   8.581 -0.1132 -0.0924  0.1273
  499loPI   C4B 7984   0.848  12.687   8.130 -0.2313  0.0623 -0.2785
  500loPI    C1 7985   0.602   4.642  10.254 -0.2430  0.2218 -0.0457
  500loPI    C2 7986   0.740   4.420  10.556 -0.0273  0.3771 -0.0282
  500loPI    C3 7987   0.353   4.521  10.543 -0.1361 -0.0263 -0.0549
  500loPI   PO4 7988   0.719   4.430  10.032 -0.1539 -0.1248 -0.0115
  500loPI   GL1 7989   0.483   4.129   9.803 -0.1678 -0.5330  0.1441
  500loPI   GL2 7990   0.271   3.960   9.564  0.1798 -0.0207  0.0927
  500loPI   C1A 7991   0.492   4.384   9.411 -0.5053 -0.1218 -0.2295
  500loPI   C2A 7992   0.399   4.510   9.092  0.0561 -0.1042  0.3686
  500loPI   C3A 7993   0.430   4.480   8.688 -0.3977 -0.0976 -0.1377
  500loPI   C4A 7994   0.417   4.457   8.261  0.1809 -0.1336 -0.0266
  500loPI   C5A 7995   0.471   4.405   7.910  0.1235  0.3651  0.2784
  500loPI   C6A 7996   0.749   4.619   7.575 -0.0466  0.1692 -0.1468
  500loPI   C1B 7997   0.281   4.035   9.221  0.1047  0.2402  0.0828
  500loPI   C2B 7998   0.200   4.056   8.798 -0.1213 -0.0640  0.1798
  500loPI   C3B 7999   0.247   3.992   8.357 -0.0866 -0.1646 -0.0012
  500loPI   C4B 8000   0.133   4.031   7.932 -0.2895  0.1786 -0.0283
  501loPI    C1 8001  14.805  14.666  10.710 -0.0424  0.1783  0.0997
  501loPI    C2 8002  14.614  14.815  11.028 -0.0460 -0.1007  0.2313
  501loPI    C3 8003  14.959  14.618  11.076 -0.0174 -0.0945  0.0557
  501loPI   PO4 8004  14.635  14.535  10.562  0.0527  0.1394 -0.1264
  501loPI   GL1 8005  14.444  14.425  10.219 -0.0979  0.1192 -0.0902
  501loPI   GL2 8006  14.380  14.158  10.205 -0.1946 -0.0679 -0.0119
  501loPI   C1A 8007  14.735  14.516   9.896 -0.0571  0.0848  0.1298
  501loPI   C2A 8008  14.747  14.560   9.464  0.1696 -0.1768  0.3352
  501loPI   C3A 8009  14.642  14.563   9.026  0.0213 -0.0121 -0.1543
  501loPI   C4A 8010  14.736  14.556   8.581  0.1262 -0.1282  0.0147
  501loPI   C5A 8011  14.844  14.648   8.175 -0.2299  0.0416 -0.1293
  501loPI   C6A 8012  14.889  14.693   7.680  0.1030  0.2432 -0.2643
  501loPI   C1B 8013  14.350  14.263   9.722 -0.1071 -0.0099  0.1995
  501loPI   C2B 8014  14.342  14.250   9.211  0.2472  0.0242 -0.0714
  501loPI   C3B 8015  14.286  14.263   8.827  0.1429  0.3421  0.0518
  501loPI   C4B 8016  14.332  14.290   8.278  0.3047 -0.0845  0.1340
  502loPI    C1 8017   0.371  10.201  10.996 -0.0623 -0.0530 -0.0582
  502loPI    C2 8018   0.465  10.446  11.298 -0.0796  0.0824 -0.1615
  502loPI    C3 8019   0.202  10.150  11.355 -0.1431  0.1568 -0.0649
  502loPI   PO4 8020   0.268  10.339  10.674  0.1306  0.1550 -0.4420
  502loPI   GL1 8021   0.293  10.303  10.181  0.0049  0.0996 -0.0980
  502loPI   GL2 8022   0.157  10.033  10.104 -0.1173  0.1770 -0.1667
  502loPI   C1A 8023   0.338  10.220   9.684  0.1015  0.2160  0.0934
  502loPI   C2A 8024   0.430  10.197   9.198 -0.0799  0.0731  0.2003
  502loPI   C3A 8025   0.488  10.253   8.795  0.1859 -0.0542  0.3873
  502loPI   C4A 8026   0.307  10.535   8.530  0.0039  0.1440  0.0083
  502loPI   C5A 8027   0.189  10.777   8.181  0.2047 -0.0506 -0.1523
  502loPI   C6A 8028   0.367  10.609   7.753  0.1330  0.0508 -0.0524
  502loPI   C1B 8029   0.003   9.811   9.749  0.2878  0.3941 -0.0288
  502loPI   C2B 8030   0.145   9.680   9.357 -0.1070  0.1292  0.1271
  502loPI   C3B 8031   0.221   9.841   8.918  0.0649 -0.2408 -0.0281
  502loPI   C4B 8032   0.196   9.767   8.436 -0.0191 -0.1247  0.0059
  503loPI    C1 8033   2.297  15.214  10.705 -0.1935 -0.0282  0.1171
  503loPI    C2 8034   2.085  15.553  10.728 -0.2486 -0.0617  0.1062
  503loPI    C3 8035   2.125  15.319  11.050 -0.0046  0.0781  0.1798
  503loPI   PO4 8036   2.154  15.130  10.481  0.1610  0.0817 -0.0715
  503loPI   GL1 8037   2.068  15.211  10.092 -0.0660  0.1485  0.0675
  503loPI   GL2 8038   2.125  15.490  10.149 -0.1868  0.2409 -0.1055
  503loPI   C1A 8039   1.961  15.182   9.659  0.2089 -0.3434 -0.0225
  503loPI   C2A 8040   1.964  15.153   9.162 -0.2531  0.3284 -0.1069
  503loPI   C3A 8041   1.957  15.086   8.781  0.0366  0.1329 -0.1536
  503loPI   C4A 8042   2.034  15.142   8.360 -0.0121  0.2093  0.1060
  503loPI   C5A 8043   2.369  15.375   8.107 -0.0304 -0.0820  0.0026
  503loPI   C6A 8044   2.317  15.458   7.740  0.1165 -0.0768  0.2376
  503loPI   C1B 8045   2.428  15.562   9.901  0.1412  0.0762 -0.0190
  503loPI   C2B 8046   2.307  15.503   9.491  0.0040  0.0790 -0.0815
  503loPI   C3B 8047   2.403  15.418   9.031  0.0302 -0.1555  0.0350
  503loPI   C4B 8048   2.360  15.366   8.620 -0.3461  0.1728  0.1003
  504loPI    C1 8049  11.584  16.311  10.674 -0.1157 -0.0137 -0.0548
  504loPI    C2 8050  11.875  16.100  10.850 -0.2035 -0.2271 -0.1623
  504loPI    C3 8051  11.635  15.925  10.581 -0.2457  0.0238 -0.2907
  504loPI   PO4 8052  11.677  16.479  10.577 -0.1024  0.3549 -0.2078
  504loPI   GL1 8053  11.857  16.692  10.285  0.1950 -0.0093 -0.0378
  504loPI   GL2 8054  12.113  16.709  10.133 -0.3217 -0.2333  0.1430
  504loPI   C1A 8055  11.703  16.837   9.843  0.1090  0.1775  0.3127
  504loPI   C2A 8056  11.820  16.838   9.382  0.0601 -0.2486 -0.0422
  504loPI   C3A 8057  11.840  16.841   8.927  0.0306  0.1978 -0.2007
  504loPI   C4A 8058  11.830  16.864   8.530 -0.0451 -0.0886 -0.2635
  504loPI   C5A 8059  11.978  17.208   8.140 -0.0882  0.1912 -0.1207
  504loPI   C6A 8060  12.080  17.333   7.802  0.0525 -0.0274 -0.1973
  504loPI   C1B 8061  12.242  16.691   9.680  0.0926  0.0708  0.1110
  504loPI   C2B 8062  12.273  16.671   9.242 -0.1273 -0.2185 -0.1132
  504loPI   C3B 8063  12.263  16.561   8.851  0.0569 -0.1840 -0.0583
  504loPI   C4B 8064  12.300  16.585   8.358  0.0551 -0.3447 -0.1624
  505loPI    C1 8065  13.337  13.605  10.901 -0.1229  0.1253  0.2670
  505loPI    C2 8066  13.571  13.287  10.961 -0.1903  0.0178 -0.0206
  505loPI    C3 8067  13.234  13.330  11.171 -0.1430 -0.0611  0.0722
  505loPI   PO4 8068  13.289  13.638  10.624 -0.1801 -0.1116 -0.0467
  505loPI   GL1 8069  13.556  13.874  10.360 -0.0568  0.2262  0.2527
  505loPI   GL2 8070  13.855  14.074  10.329  0.1573 -0.0549 -0.1771
  505loPI   C1A 8071  13.482  13.660   9.949 -0.0365  0.0664 -0.1937
  505loPI   C2A 8072  13.397  13.708   9.607 -0.0264 -0.3843  0.2293
  505loPI   C3A 8073  13.479  13.708   9.141  0.0584 -0.2586  0.5664
  505loPI   C4A 8074  13.543  13.665   8.735  0.1991 -0.1977 -0.0713
  505loPI   C5A 8075  13.446  13.737   8.251  0.1468 -0.1786 -0.4598
  505loPI   C6A 8076  13.490  13.677   7.836 -0.2274  0.0655  0.0632
  505loPI   C1B 8077  13.889  14.004   9.887  0.1859 -0.0412  0.1601
  505loPI   C2B 8078  13.867  13.951   9.393  0.1925 -0.1108  0.0721
  505loPI   C3B 8079  13.867  14.024   8.955  0.2598 -0.2588  0.0746
  505loPI   C4B 8080  13.882  14.016   8.578 -0.0020 -0.0993 -0.1325
  506loPI    C1 8081  10.257   1.516  10.573 -0.1374 -0.0573  0.1202
  506loPI    C2 8082   9.889   1.669  10.614 -0.0972  0.0518  0.0761
  506loPI    C3 8083  10.100   1.567  10.938 -0.0877  0.1782  0.1103
  506loPI   PO4 8084  10.209   1.372  10.341 -0.0931  0.1907  0.0808
  506loPI   GL1 8085  10.213   1.478   9.862 -0.0004  0.0371 -0.2184
  506loPI   GL2 8086  10.362   1.199   9.861  0.0508 -0.1223 -0.0486
  506loPI   C1A 8087  10.067   1.290   9.416 -0.1994  0.2929  0.3543
  506loPI   C2A 8088  10.110   1.402   8.980  0.1077  0.0137  0.0559
  506loPI   C3A 8089  10.076   1.295   8.615  0.0247  0.0170  0.0269
  506loPI   C4A 8090  10.238   1.206   8.294 -0.0349  0.1453 -0.1196
  506loPI   C5A 8091  10.246   1.119   7.914 -0.3126 -0.0256  0.2303
  506loPI   C6A 8092  10.483   0.827   7.809  0.0187  0.4003  0.2446
  506loPI   C1B 8093  10.603   1.084   9.538  0.0410 -0.0320  0.1206
  506loPI   C2B 8094  10.586   1.223   9.104  0.0221 -0.0638  0.2866
  506loPI   C3B 8095  10.666   1.110   8.632 -0.0347 -0.0412  0.1087
  506loPI   C4B 8096  10.674   0.997   8.239 -0.3135  0.2048 -0.0470
  507loPI    C1 8097  14.425  12.102  10.939  0.1283  0.1332  0.0987
  507loPI    C2 8098  14.196  11.829  11.121  0.1684 -0.0868 -0.1752
  507loPI    C3 8099  14.555  11.921  11.271  0.0382  0.0232  0.0745
  507loPI   PO4 8100  14.220  12.258  10.753  0.0440 -0.1504 -0.1640
  507loPI   GL1 8101  13.946  12.177  10.477 -0.2523  0.0063  0.0235
  507loPI   GL2 8102  13.786  11.941  10.336  0.1586 -0.2898 -0.1438
  507loPI   C1A 8103  13.956  12.370  10.038 -0.4187 -0.2112  0.0723
  507loPI   C2A 8104  13.927  12.449   9.586 -0.0624  0.0939  0.1818
  507loPI   C3A 8105  14.022  12.423   9.101  0.0084 -0.1072 -0.3069
  507loPI   C4A 8106  14.100  12.511   8.707  0.2630  0.1304  0.0203
  507loPI   C5A 8107  14.069  12.269   8.348  0.3083 -0.2775  0.0328
  507loPI   C6A 8108  13.829  12.251   7.960 -0.1774 -0.2794 -0.1471
  507loPI   C1B 8109  13.697  11.807   9.959  0.3298  0.3308  0.0438
  507loPI   C2B 8110  13.626  11.718   9.450 -0.0686 -0.0235  0.1413
  507loPI   C3B 8111  13.559  11.633   9.122  0.1357 -0.3352  0.2946
  507loPI   C4B 8112  13.687  11.542   8.713 -0.0584  0.0513 -0.0129
  508loPI    C1 8113  13.291   1.834  10.344  0.0687  0.1743 -0.0653
  508loPI    C2 8114  13.149   1.969  10.693 -0.0558 -0.3218  0.0851
  508loPI    C3 8115  13.541   1.905  10.648 -0.0043  0.0075  0.0352
  508loPI   PO4 8116  13.165   1.561  10.363  0.0852 -0.0021 -0.0642
  508loPI   GL1 8117  12.831   1.472  10.139 -0.0560  0.2610 -0.1747
  508loPI   GL2 8118  12.705   1.722  10.049 -0.2747 -0.3498 -0.1442
  508loPI   C1A 8119  12.828   1.434   9.646  0.1204 -0.1132  0.3243
  508loPI   C2A 8120  12.812   1.592   9.285  0.1850  0.0276  0.1843
  508loPI   C3A 8121  12.873   1.535   8.826  0.3842  0.0859 -0.2850
  508loPI   C4A 8122  12.799   1.622   8.353  0.1173  0.0243 -0.1197
  508loPI   C5A 8123  12.589   1.836   8.015 -0.1493 -0.3537 -0.2130
  508loPI   C6A 8124  12.277   1.847   7.711  0.0763  0.1306 -0.0178
  508loPI   C1B 8125  12.690   1.934   9.653 -0.0714  0.1321  0.1523
  508loPI   C2B 8126  12.622   2.051   9.250  0.2784  0.0873 -0.0094
  508loPI   C3B 8127  12.713   2.047   8.840  0.0232 -0.0441 -0.2297
  508loPI   C4B 8128  12.752   2.118   8.500 -0.0691  0.3190 -0.3208
  509loPI    C1 8129  11.376   4.337  10.244  0.1340 -0.3842 -0.1350
  509loPI    C2 8130  11.047   4.344  10.472  0.1440 -0.1177 -0.1258
  509loPI    C3 8131  11.407   4.397  10.638  0.1503  0.0906 -0.2021
  509loPI   PO4 8132  11.276   4.469  10.083  0.1551 -0.0344 -0.0736
  509loPI   GL1 8133  10.987   4.208   9.854  0.0886 -0.3032  0.0639
  509loPI   GL2 8134  10.817   3.906   9.822  0.1971 -0.1695 -0.0258
  509loPI   C1A 8135  11.145   4.398   9.413 -0.0325  0.0898 -0.0163
  509loPI   C2A 8136  11.069   4.461   8.947  0.1179 -0.2070 -0.1335
  509loPI   C3A 8137  11.035   4.372   8.548  0.1756 -0.0246  0.0525
  509loPI   C4A 8138  11.054   4.506   8.100 -0.2084 -0.0496  0.2491
  509loPI   C5A 8139  10.955   4.977   7.885  0.2851  0.3541 -0.0685
  509loPI   C6A 8140  10.593   5.163   7.851 -0.2321  0.0173  0.2424
  509loPI   C1B 8141  10.852   3.953   9.376 -0.3065 -0.3229  0.1064
  509loPI   C2B 8142  10.881   4.038   8.933  0.1530 -0.0936 -0.2291
  509loPI   C3B 8143  10.747   3.940   8.415 -0.2187  0.2116  0.0556
  509loPI   C4B 8144  10.681   4.112   8.051  0.0623 -0.0322 -0.1871
  510loPI    C1 8145  16.799  17.797  10.718 -0.1695  0.0100 -0.0685
  510loPI    C2 8146  16.669  18.172  10.674  0.1184  0.1086 -0.1012
  510loPI    C3 8147  16.711  18.017  11.040 -0.1146  0.0655 -0.0911
  510loPI   PO4 8148  16.599  17.682  10.585 -0.1032 -0.2399  0.3197
  510loPI   GL1 8149  16.354  17.595  10.252 -0.1314 -0.2292 -0.3352
  510loPI   GL2 8150  16.227  17.245  10.142 -0.0351 -0.0300 -0.0612
  510loPI   C1A 8151  16.157  17.823   9.816  0.4457  0.0697 -0.2170
  510loPI   C2A 8152  16.232  17.880   9.424 -0.0393 -0.0025  0.2040
  510loPI   C3A 8153  16.160  17.817   8.912  0.3487  0.2493  0.1335
  510loPI   C4A 8154  16.150  17.931   8.614  0.0856 -0.0931 -0.1689
  510loPI   C5A 8155  16.033  17.866   8.190 -0.1893 -0.5690 -0.0739
  510loPI   C6A 8156  15.783  17.934   7.790  0.3011  0.0113  0.0306
  510loPI   C1B 8157  16.330  17.379   9.711  0.1042 -0.1023 -0.3255
  510loPI   C2B 8158  16.246  17.398   9.341  0.4484  0.1240  0.0173
  510loPI   C3B 8159  16.225  17.338   9.015 -0.0420  0.3617  0.3104
  510loPI   C4B 8160  16.352  17.433   8.631 -0.0890  0.1218 -0.0559
  511loPI    C1 8161   4.270   3.642  10.603  0.1257 -0.0432 -0.1359
  511loPI    C2 8162   3.985   3.838  10.804  0.2457 -0.0778  0.0707
  511loPI    C3 8163   3.947   3.446  10.734  0.1295 -0.0345 -0.1131
  511loPI   PO4 8164   4.273   3.739  10.363 -0.1542  0.0051  0.2470
  511loPI   GL1 8165   4.450   3.573   9.931 -0.0584 -0.3022 -0.0666
  511loPI   GL2 8166   4.201   3.465   9.724 -0.4551 -0.2881  0.1743
  511loPI   C1A 8167   4.528   3.812   9.646  0.0051  0.0245 -0.2451
  511loPI   C2A 8168   4.541   3.928   9.179 -0.0976  0.2781 -0.2141
  511loPI   C3A 8169   4.578   3.886   8.738  0.0885  0.5743 -0.2295
  511loPI   C4A 8170   4.551   3.905   8.378 -0.4203 -0.3701 -0.0456
  511loPI   C5A 8171   4.726   4.085   8.034 -0.0809  0.0515 -0.0108
  511loPI   C6A 8172   4.898   4.496   8.065  0.0280  0.2733  0.1109
  511loPI   C1B 8173   4.408   3.399   9.372  0.1746 -0.0742 -0.1939
  511loPI   C2B 8174   4.323   3.482   8.910  0.0474 -0.3706  0.0892
  511loPI   C3B 8175   4.292   3.544   8.589 -0.6483 -0.2772 -0.1034
  511loPI   C4B 8176   4.371   3.526   8.092  0.1147  0.1550  0.0765
  512loPI    C1 8177  11.582   0.499  10.730  0.1906 -0.0920 -0.0673
  512loPI    C2 8178  11.779   0.772  10.946 -0.0239 -0.2102  0.2861
  512loPI    C3 8179  11.885   0.386  10.966  0.0470 -0.2035  0.0661
  512loPI   PO4 8180  11.586   0.569  10.538 -0.0080  0.0899 -0.1462
  512loPI   GL1 8181  11.557   0.277  10.156  0.3005  0.3673 -0.0132
  512loPI   GL2 8182  11.779   0.543  10.111 -0.0329 -0.1758 -0.3996
  512loPI   C1A 8183  11.456   0.187   9.735 -0.3646  0.0061 -0.1196
  512loPI   C2A 8184  11.539   0.077   9.234  0.2666  0.4730  0.2344
  512loPI   C3A 8185  11.674   0.128   8.739 -0.1576 -0.3116 -0.2084
  512loPI   C4A 8186  11.822   0.060   8.232  0.0554 -0.2270  0.0331
  512loPI   C5A 8187  12.207  -0.093   8.048 -0.0177  0.0220 -0.3648
  512loPI   C6A 8188  12.611  -0.316   7.980  0.1928 -0.1723  0.1215
  512loPI   C1B 8189  11.920   0.417   9.688 -0.2855 -0.1593 -0.0489
  512loPI   C2B 8190  11.937   0.305   9.187 -0.1591 -0.0533 -0.1240
  512loPI   C3B 8191  12.128   0.301   8.664 -0.3178  0.0629 -0.1692
  512loPI   C4B 8192  12.122   0.454   8.247 -0.1305  0.3298  0.0708
  513loPI    C1 8193  11.416   5.323  10.321  0.1682 -0.2787 -0.0241
  513loPI    C2 8194  11.649   5.294  10.645  0.1734  0.2460  0.0270
  513loPI    C3 8195  11.286   5.460  10.673  0.1146  0.1609 -0.2087
  513loPI   PO4 8196  11.486   5.500  10.173  0.0170  0.1481 -0.1738
  513loPI   GL1 8197  11.594   5.699   9.920  0.1597  0.0356 -0.0765
  513loPI   GL2 8198  11.344   5.759   9.737  0.0100  0.0950  0.3742
  513loPI   C1A 8199  11.897   5.801   9.612  0.0817  0.1247 -0.1761
  513loPI   C2A 8200  11.955   5.825   9.140 -0.0152 -0.0367 -0.0426
  513loPI   C3A 8201  11.906   5.850   8.701  0.0668  0.2083  0.3141
  513loPI   C4A 8202  11.711   5.859   8.299 -0.2361 -0.0397  0.1624
  513loPI   C5A 8203  11.629   5.718   7.942 -0.2077  0.0831  0.1572
  513loPI   C6A 8204  11.603   5.602   7.587 -0.2334  0.0088  0.0394
  513loPI   C1B 8205  11.452   5.745   9.359 -0.0859 -0.3262 -0.4222
  513loPI   C2B 8206  11.378   5.856   9.012  0.0555 -0.0167 -0.1897
  513loPI   C3B 8207  11.249   5.874   8.608 -0.1355  0.0190  0.0432
  513loPI   C4B 8208  11.190   5.795   8.173  0.0583 -0.0841  0.1792
  514loPI    C1 8209   5.328  12.616  10.559  0.1841 -0.1872  0.1697
  514loPI    C2 8210   5.625  12.821  10.385  0.0936 -0.1421  0.0679
  514loPI    C3 8211   5.596  12.811  10.784  0.0252  0.1503  0.0726
  514loPI   PO4 8212   5.084  12.669  10.387 -0.3121 -0.0812  0.1385
  514loPI   GL1 8213   4.986  12.848  10.069 -0.0325  0.0398  0.0488
  514loPI   GL2 8214   5.345  12.760  10.000 -0.2127  0.0883 -0.0169
  514loPI   C1A 8215   4.975  12.843   9.626 -0.1202 -0.1389 -0.0800
  514loPI   C2A 8216   4.989  12.888   9.191 -0.1833  0.0276  0.1935
  514loPI   C3A 8217   4.919  12.867   8.746  0.0395 -0.3354  0.0162
  514loPI   C4A 8218   4.909  12.872   8.344  0.1221  0.2739  0.0636
  514loPI   C5A 8219   5.201  13.181   8.071  0.2914  0.2294 -0.0793
  514loPI   C6A 8220   5.688  13.196   8.075  0.1806 -0.2033  0.2793
  514loPI   C1B 8221   5.447  12.643   9.651  0.0690 -0.0092  0.1956
  514loPI   C2B 8222   5.416  12.696   9.141  0.0704 -0.1675 -0.0941
  514loPI   C3B 8223   5.366  12.644   8.670  0.2386  0.0335  0.2063
  514loPI   C4B 8224   5.323  12.709   8.214  0.1914  0.4378 -0.0147
  515loPI    C1 8225   1.613   6.949  10.970  0.0130  0.0798 -0.0870
  515loPI    C2 8226   2.011   6.980  10.983  0.0289  0.0007 -0.3298
  515loPI    C3 8227   1.796   7.032  11.316  0.2542 -0.1354 -0.1593
  515loPI   PO4 8228   1.553   6.896  10.682  0.0987 -0.0117 -0.0889
  515loPI   GL1 8229   1.639   7.149  10.242  0.1049  0.0703  0.0677
  515loPI   GL2 8230   1.852   7.555  10.247  0.1591  0.0123  0.0505
  515loPI   C1A 8231   1.646   7.163   9.794  0.3304  0.2444 -0.1237
  515loPI   C2A 8232   1.566   7.016   9.336 -0.2199 -0.3664  0.0463
  515loPI   C3A 8233   1.580   7.090   8.923 -0.0205  0.0990  0.2152
  515loPI   C4A 8234   1.724   6.986   8.495 -0.3119 -0.0764 -0.1707
  515loPI   C5A 8235   1.803   6.721   8.260  0.0545  0.1067  0.1035
  515loPI   C6A 8236   1.446   6.436   7.953 -0.0053  0.3037 -0.0326
  515loPI   C1B 8237   1.884   7.635   9.796  0.0013  0.3148  0.1250
  515loPI   C2B 8238   1.799   7.510   9.415  0.0444  0.3009  0.1586
  515loPI   C3B 8239   1.875   7.474   8.942  0.3312  0.0617  0.3452
  515loPI   C4B 8240   1.897   7.497   8.577 -0.0999 -0.3993  0.0052
  516loPI    C1 8241  11.914  13.886  10.926  0.1170 -0.1658 -0.0558
  516loPI    C2 8242  11.970  13.535  11.110 -0.2460 -0.0990  0.1942
  516loPI    C3 8243  12.099  13.873  11.281 -0.1341 -0.0837  0.0810
  516loPI   PO4 8244  11.910  13.743  10.664  0.1030  0.0655 -0.2427
  516loPI   GL1 8245  12.266  13.621  10.444  0.1178 -0.2448 -0.0466
  516loPI   GL2 8246  12.198  13.966  10.307 -0.0464  0.1263 -0.2560
  516loPI   C1A 8247  12.164  13.433   9.937 -0.2722 -0.0224 -0.0895
  516loPI   C2A 8248  12.100  13.375   9.584 -0.0671 -0.0969  0.2925
  516loPI   C3A 8249  12.143  13.331   9.169  0.0050 -0.1043  0.0868
  516loPI   C4A 8250  12.203  13.299   8.699 -0.1215 -0.2601  0.2230
  516loPI   C5A 8251  12.167  13.239   8.244 -0.1377 -0.3179 -0.2101
  516loPI   C6A 8252  12.113  13.138   7.835 -0.2183 -0.1140  0.1078
  516loPI   C1B 8253  12.148  13.934   9.915 -0.0507  0.2364 -0.0794
  516loPI   C2B 8254  12.122  13.885   9.444 -0.0632 -0.0914 -0.0019
  516loPI   C3B 8255  12.117  13.864   8.935 -0.1816 -0.2456  0.2643
  516loPI   C4B 8256  12.250  13.742   8.501  0.3848  0.1075 -0.2682
  517loPI    C1 8257   0.788   8.998  10.964 -0.2382  0.1157 -0.0493
  517loPI    C2 8258   0.514   8.837  11.208 -0.1703  0.0039 -0.0462
  517loPI    C3 8259   0.710   9.168  11.317 -0.1241 -0.0583  0.0615
  517loPI   PO4 8260   0.652   9.004  10.749  0.2354  0.0204 -0.1744
  517loPI   GL1 8261   0.788   8.943  10.329 -0.1696  0.3143  0.0919
  517loPI   GL2 8262   1.125   8.943  10.170 -0.0273 -0.0046 -0.5524
  517loPI   C1A 8263   0.635   8.983   9.928 -0.0042  0.1083 -0.1918
  517loPI   C2A 8264   0.647   8.910   9.483 -0.0396  0.0288  0.2722
  517loPI   C3A 8265   0.627   8.801   9.062  0.0092 -0.0265  0.0071
  517loPI   C4A 8266   0.729   8.854   8.698  0.3139  0.1099  0.0544
  517loPI   C5A 8267   0.640   8.750   8.220 -0.0481 -0.0008  0.1128
  517loPI   C6A 8268   0.441   8.642   7.831 -0.0691 -0.1226  0.0042
  517loPI   C1B 8269   1.136   8.980   9.687 -0.2799 -0.0368 -0.0047
  517loPI   C2B 8270   1.107   8.866   9.322  0.1639  0.2785 -0.0668
  517loPI   C3B 8271   1.263   8.855   8.926  0.3531  0.3632  0.4072
  517loPI   C4B 8272   1.223   8.904   8.539  0.0438 -0.1606 -0.0565
  518loPI    C1 8273  11.477   1.721  10.496 -0.0018  0.3168 -0.0725
  518loPI    C2 8274  11.834   1.558  10.577 -0.2011 -0.1056 -0.0170
  518loPI    C3 8275  11.636   1.760  10.861 -0.0139  0.1215 -0.0453
  518loPI   PO4 8276  11.476   1.713  10.249  0.1287 -0.2076 -0.0049
  518loPI   GL1 8277  11.587   1.799   9.892  0.0966  0.4065 -0.0781
  518loPI   GL2 8278  11.781   1.990   9.703 -0.0904  0.0998 -0.1071
  518loPI   C1A 8279  11.399   1.661   9.535  0.0092  0.1760  0.0885
  518loPI   C2A 8280  11.386   1.702   9.076  0.1062 -0.2248 -0.1547
  518loPI   C3A 8281  11.411   1.672   8.702  0.4436 -0.1085 -0.0630
  518loPI   C4A 8282  11.447   1.787   8.344 -0.0640 -0.0337  0.2300
  518loPI   C5A 8283  11.399   1.904   7.905 -0.2273  0.1429  0.1148
  518loPI   C6A 8284  11.083   1.741   7.639 -0.1763  0.2495  0.0851
  518loPI   C1B 8285  11.781   1.952   9.281  0.3603 -0.1719 -0.0528
  518loPI   C2B 8286  11.800   1.951   8.845  0.2067  0.2114  0.0149
  518loPI   C3B 8287  11.897   2.094   8.423  0.1664  0.1771 -0.1913
  518loPI   C4B 8288  11.908   2.041   7.964 -0.1821 -0.0919 -0.0413
  519loPI    C1 8289   0.335  16.369  10.713  0.0171 -0.0414  0.1322
  519loPI    C2 8290   0.507  16.713  10.605  0.0165 -0.0297  0.1687
  519loPI    C3 8291   0.700  16.461  10.848  0.1973 -0.2522 -0.1958
  519loPI   PO4 8292   0.300  16.171  10.474 -0.2955 -0.1994 -0.2238
  519loPI   GL1 8293   0.301  15.982  10.049 -0.1430  0.1085 -0.1493
  519loPI   GL2 8294  -0.032  15.906  10.056  0.1560 -0.1237  0.0091
  519loPI   C1A 8295   0.424  16.038   9.756  0.3077 -0.0904 -0.1049
  519loPI   C2A 8296   0.472  16.293   9.378 -0.1283 -0.0268  0.1576
  519loPI   C3A 8297   0.374  16.286   8.874 -0.2153  0.1028 -0.2032
  519loPI   C4A 8298   0.421  16.269   8.408  0.0983  0.2960 -0.1716
  519loPI   C5A 8299   0.404  16.218   7.952  0.1500 -0.0024  0.0246
  519loPI   C6A 8300   0.722  16.172   7.699 -0.0716 -0.3712 -0.5458
  519loPI   C1B 8301  -0.004  16.031   9.582  0.0068  0.3408 -0.0458
  519loPI   C2B 8302   0.118  15.945   9.225 -0.6074  0.1329 -0.0373
  519loPI   C3B 8303  -0.075  16.051   8.909  0.2432  0.1589 -0.1891
  519loPI   C4B 8304  -0.060  16.025   8.567  0.0237 -0.0354  0.0730
  520loPI    C1 8305   7.475  17.917  10.262 -0.1047  0.0819 -0.0213
  520loPI    C2 8306   7.720  18.147  10.479 -0.0378 -0.0899  0.0874
  520loPI    C3 8307   7.476  17.888  10.661 -0.1455 -0.0729 -0.0317
  520loPI   PO4 8308   7.462  18.060  10.051  0.0647  0.1392 -0.2924
  520loPI   GL1 8309   7.668  18.152   9.734 -0.2594  0.1571  0.1509
  520loPI   GL2 8310   7.941  18.037   9.592  0.3370 -0.0750  0.3272
  520loPI   C1A 8311   7.467  18.105   9.281  0.0947 -0.2255  0.2414
  520loPI   C2A 8312   7.433  18.114   8.980 -0.1262  0.1929 -0.1921
  520loPI   C3A 8313   7.448  18.200   8.535 -0.0937 -0.0959 -0.1457
  520loPI   C4A 8314   7.211  18.331   8.205 -0.2245 -0.0151 -0.1643
  520loPI   C5A 8315   7.142  18.426   7.796 -0.1903 -0.0618 -0.2894
  520loPI   C6A 8316   6.806  18.255   7.495 -0.1500  0.1296  0.0938
  520loPI   C1B 8317   7.953  18.010   9.177 -0.2212  0.1670  0.1135
  520loPI   C2B 8318   7.892  17.995   8.734 -0.3995  0.2437 -0.0639
  520loPI   C3B 8319   7.932  18.003   8.259  0.3335  0.0567  0.1847
  520loPI   C4B 8320   8.202  17.937   7.898  0.1885 -0.2517 -0.1735
  521loPI    C1 8321  16.241   8.681  10.885 -0.2768  0.1456 -0.0781
  521loPI    C2 8322  15.890   8.491  10.868 -0.2445  0.0403  0.3280
  521loPI    C3 8323  16.125   8.449  11.189  0.1616  0.0745  0.0432
  521loPI   PO4 8324  16.081   8.931  10.681  0.1293 -0.1154 -0.0899
  521loPI   GL1 8325  16.125   8.876  10.173  0.1039 -0.2124  0.1243
  521loPI   GL2 8326  15.966   8.603   9.964  0.0664  0.0613 -0.2004
  521loPI   C1A 8327  16.283   8.927   9.799  0.0537  0.0300 -0.1543
  521loPI   C2A 8328  16.314   8.921   9.410 -0.0062 -0.0957 -0.0145
  521loPI   C3A 8329  16.331   8.962   9.056 -0.0831 -0.2748  0.0332
  521loPI   C4A 8330  16.380   9.004   8.629 -0.3035  0.0569  0.1087
  521loPI   C5A 8331  16.385   9.105   8.194 -0.1656 -0.0807 -0.0494
  521loPI   C6A 8332  16.296   9.299   7.777  0.1048 -0.0608  0.3622
  521loPI   C1B 8333  16.011   8.510   9.604  0.1169  0.1337  0.1001
  521loPI   C2B 8334  16.082   8.559   9.163 -0.0834  0.1168  0.0365
  521loPI   C3B 8335  16.112   8.600   8.739 -0.4784  0.0484 -0.1209
  521loPI   C4B 8336  16.134   8.658   8.321  0.0570 -0.1654  0.1395
  522loPI    C1 8337   2.126  17.117  10.541  0.1716 -0.1366 -0.0030
  522loPI    C2 8338   1.747  17.224  10.475  0.2006  0.0241  0.0860
  522loPI    C3 8339   1.837  16.841  10.544  0.0558 -0.0155  0.0576
  522loPI   PO4 8340   2.197  17.226  10.267  0.2787  0.0855  0.1289
  522loPI   GL1 8341   2.095  16.990   9.918  0.3873 -0.0210  0.0670
  522loPI   GL2 8342   1.875  16.709  10.054  0.2186 -0.0072 -0.0263
  522loPI   C1A 8343   2.189  16.921   9.494  0.2497 -0.1898  0.0036
  522loPI   C2A 8344   2.232  16.827   9.059  0.3455  0.0899  0.0231
  522loPI   C3A 8345   2.063  16.844   8.619 -0.1323  0.1438 -0.0114
  522loPI   C4A 8346   2.001  16.866   8.226  0.1588 -0.1330 -0.0170
  522loPI   C5A 8347   1.940  16.853   7.762 -0.0815 -0.0483  0.0307
  522loPI   C6A 8348   1.781  16.823   7.422 -0.2540  0.0544 -0.4621
  522loPI   C1B 8349   1.797  16.694   9.566  0.0224 -0.2348 -0.0874
  522loPI   C2B 8350   1.750  16.673   9.065  0.0780 -0.0065 -0.1140
  522loPI   C3B 8351   1.606  16.632   8.648 -0.4132 -0.2368 -0.2083
  522loPI   C4B 8352   1.625  16.551   8.256  0.1781 -0.0565  0.1023
  523loPI    C1 8353  11.687   6.899  10.463 -0.2269  0.2407  0.0913
  523loPI    C2 8354  11.769   7.269  10.588 -0.0737  0.2673 -0.0838
  523loPI    C3 8355  11.732   6.972  10.853  0.1311  0.3442  0.0337
  523loPI   PO4 8356  11.517   6.963  10.244  0.1069  0.0373 -0.1009
  523loPI   GL1 8357  11.473   7.134   9.888  0.1571  0.1695 -0.1130
  523loPI   GL2 8358  11.149   7.088   9.849  0.3280 -0.2070  0.0232
  523loPI   C1A 8359  11.679   7.083   9.621  0.0664 -0.1156  0.4392
  523loPI   C2A 8360  11.595   7.133   9.232  0.4219 -0.2109  0.0756
  523loPI   C3A 8361  11.530   7.194   8.802 -0.2905 -0.1751  0.0948
  523loPI   C4A 8362  11.567   7.191   8.380 -0.0452  0.0782 -0.0354
  523loPI   C5A 8363  11.622   7.341   7.971 -0.1836 -0.0409  0.1128
  523loPI   C6A 8364  11.610   7.470   7.563 -0.1647  0.0696 -0.4260
  523loPI   C1B 8365  11.037   7.187   9.494  0.0979 -0.4863 -0.4141
  523loPI   C2B 8366  11.086   7.296   9.063 -0.0625 -0.1477  0.0091
  523loPI   C3B 8367  11.041   7.155   8.652  0.1336 -0.4135  0.1661
  523loPI   C4B 8368  11.043   7.209   8.270  0.1936 -0.0297  0.0449
  524loPI    C1 8369   4.207   2.775  10.340  0.0961  0.1059  0.1933
  524loPI    C2 8370   4.151   3.001  10.665  0.0242  0.0739  0.2033
  524loPI    C3 8371   4.466   2.754  10.644  0.1683  0.2604  0.1437
  524loPI   PO4 8372   3.945   2.669  10.329 -0.1499  0.0056 -0.3109
  524loPI   GL1 8373   3.842   2.392   9.981 -0.0990  0.1390  0.0304
  524loPI   GL2 8374   4.146   2.428   9.949  0.2470 -0.1065  0.1100
  524loPI   C1A 8375   3.726   2.388   9.536  0.0915 -0.1017 -0.1917
  524loPI   C2A 8376   3.771   2.461   9.063  0.0218  0.0790 -0.1491
  524loPI   C3A 8377   3.824   2.707   8.665 -0.0158  0.2886 -0.0841
  524loPI   C4A 8378   3.795   2.721   8.118 -0.0687  0.1206 -0.1277
  524loPI   C5A 8379   3.621   2.628   7.734 -0.1005  0.1217 -0.0258
  524loPI   C6A 8380   3.626   2.753   7.311 -0.2476  0.3862  0.0992
  524loPI   C1B 8381   4.328   2.462   9.543  0.0706  0.0385  0.3622
  524loPI   C2B 8382   4.403   2.587   9.117 -0.3530 -0.0850 -0.1729
  524loPI   C3B 8383   4.335   2.543   8.694  0.2523  0.1222  0.1021
  524loPI   C4B 8384   4.269   2.659   8.305 -0.1920 -0.1521  0.2826
  525loPI    C1 8385  15.071  12.789  10.959  0.0473 -0.5143  0.1109
  525loPI    C2 8386  15.461  12.843  10.889 -0.0545 -0.0599 -0.1440
  525loPI    C3 8387  15.336  12.732  11.252  0.2795  0.2479  0.0719
  525loPI   PO4 8388  15.013  12.863  10.678  0.0781  0.0091 -0.2861
  525loPI   GL1 8389  14.970  12.734  10.277 -0.2414  0.4481  0.0594
  525loPI   GL2 8390  14.904  12.401  10.181  0.1232 -0.1044 -0.3338
  525loPI   C1A 8391  14.912  13.078   9.939  0.0087 -0.2316  0.0113
  525loPI   C2A 8392  14.860  13.065   9.540 -0.1079  0.1316  0.0487
  525loPI   C3A 8393  14.852  13.004   9.162 -0.1056 -0.1742  0.1597
  525loPI   C4A 8394  14.908  13.049   8.791 -0.1792  0.3520 -0.2924
  525loPI   C5A 8395  14.661  12.821   8.432 -0.0550 -0.1500 -0.0594
  525loPI   C6A 8396  14.348  12.669   8.170 -0.3393  0.1418  0.2646
  525loPI   C1B 8397  15.030  12.497   9.818  0.0870 -0.0025 -0.2162
  525loPI   C2B 8398  14.877  12.484   9.381 -0.0359  0.2202  0.1585
  525loPI   C3B 8399  14.874  12.510   8.976  0.0915  0.0552 -0.1902
  525loPI   C4B 8400  15.044  12.421   8.585  0.4428 -0.0298  0.2417
  526loPI    C1 8401  11.572   1.148  10.666 -0.0369  0.0049  0.0346
  526loPI    C2 8402  11.278   1.377  10.811  0.0350 -0.1095  0.3683
  526loPI    C3 8403  11.585   1.272  11.046 -0.0219 -0.5893  0.2381
  526loPI   PO4 8404  11.583   1.197  10.437  0.0857  0.1654  0.2905
  526loPI   GL1 8405  11.656   1.030  10.097  0.0716  0.2365  0.2574
  526loPI   GL2 8406  11.455   1.254   9.911 -0.0823  0.0969  0.0825
  526loPI   C1A 8407  11.859   0.965   9.697  0.1427  0.0696  0.0124
  526loPI   C2A 8408  11.892   0.866   9.311 -0.2535  0.0794  0.1000
  526loPI   C3A 8409  11.960   0.842   8.904 -0.0608 -0.3206  0.2947
  526loPI   C4A 8410  12.041   0.973   8.508  0.2610  0.1221  0.4280
  526loPI   C5A 8411  12.187   1.090   8.060  0.1713  0.0882 -0.2220
  526loPI   C6A 8412  12.343   1.384   7.915 -0.1353 -0.1373 -0.1562
  526loPI   C1B 8413  11.415   1.141   9.570 -0.1295 -0.3563 -0.0705
  526loPI   C2B 8414  11.462   1.205   9.073 -0.2668 -0.0688  0.1783
  526loPI   C3B 8415  11.521   1.047   8.634 -0.0996  0.0620 -0.1339
  526loPI   C4B 8416  11.659   0.972   8.166  0.1458  0.1318  0.0112
  527loPI    C1 8417  13.319   2.572  10.560  0.1005  0.1711  0.0730
  527loPI    C2 8418  13.479   2.359  10.858  0.1212  0.1576  0.0523
  527loPI    C3 8419  13.171   2.604  10.930 -0.1852 -0.2035 -0.0023
  527loPI   PO4 8420  13.220   2.429  10.351 -0.2221  0.2147 -0.5449
  527loPI   GL1 8421  13.275   2.173   9.938  0.1002  0.0641 -0.0995
  527loPI   GL2 8422  13.147   1.988   9.872  0.1570 -0.1415  0.5479
  527loPI   C1A 8423  13.576   2.171   9.551  0.3293 -0.1021 -0.0314
  527loPI   C2A 8424  13.658   2.113   9.174 -0.2345  0.0958 -0.2166
  527loPI   C3A 8425  13.596   2.163   8.726 -0.0072 -0.0633  0.0269
  527loPI   C4A 8426  13.582   2.036   8.275  0.0511 -0.1506 -0.0416
  527loPI   C5A 8427  13.782   1.741   7.970  0.0384 -0.2258  0.6487
  527loPI   C6A 8428  13.600   1.603   7.630 -0.1803  0.0327  0.2158
  527loPI   C1B 8429  13.170   1.983   9.430  0.2761 -0.2291  0.0039
  527loPI   C2B 8430  13.222   1.903   8.964 -0.0826  0.4186 -0.1640
  527loPI   C3B 8431  13.180   1.831   8.558  0.2367  0.1251  0.1122
  527loPI   C4B 8432  13.050   2.107   8.100 -0.1333  0.2844  0.0583
  528loPI    C1 8433  10.350  13.555  10.811  0.1326 -0.1911  0.0213
  528loPI    C2 8434  10.485  13.299  11.086 -0.0678 -0.3099  0.0106
  528loPI    C3 8435  10.106  13.427  11.101  0.0567  0.0630  0.0723
  528loPI   PO4 8436  10.348  13.522  10.553  0.1122  0.1080  0.2924
  528loPI   GL1 8437  10.439  13.672  10.085  0.2519 -0.1972  0.2590
  528loPI   GL2 8438  10.753  13.820  10.062  0.3439 -0.3349 -0.2078
  528loPI   C1A 8439  10.307  13.524   9.699 -0.2573 -0.0978 -0.1301
  528loPI   C2A 8440  10.329  13.621   9.291 -0.0338 -0.0532 -0.2074
  528loPI   C3A 8441  10.334  13.634   8.820  0.1496  0.4043  0.2859
  528loPI   C4A 8442  10.356  13.616   8.413 -0.0182  0.2559 -0.3123
  528loPI   C5A 8443  10.278  13.698   7.991  0.2426  0.0680  0.1574
  528loPI   C6A 8444  10.297  13.684   7.608 -0.1542 -0.0330 -0.2173
  528loPI   C1B 8445  10.711  13.874   9.701  0.2699 -0.1043  0.0747
  528loPI   C2B 8446  10.740  13.986   9.332 -0.1228 -0.1868 -0.1395
  528loPI   C3B 8447  10.750  13.921   8.903  0.0514  0.0981  0.1617
  528loPI   C4B 8448  10.717  14.006   8.416 -0.1341  0.2279 -0.0035
  529loPI    C1 8449   9.510  10.386  10.986 -0.0587  0.2164  0.0184
  529loPI    C2 8450   9.669  10.753  10.976  0.0711  0.1597 -0.0209
  529loPI    C3 8451   9.756  10.505  11.278  0.0404  0.1357 -0.0316
  529loPI   PO4 8452   9.568  10.313  10.749 -0.2463  0.1840 -0.0769
  529loPI   GL1 8453   9.534  10.356  10.337  0.2068 -0.1903  0.1349
  529loPI   GL2 8454   9.191  10.232  10.233  0.4232 -0.2816 -0.1301
  529loPI   C1A 8455   9.786  10.315   9.919 -0.1004 -0.5485 -0.2344
  529loPI   C2A 8456   9.737  10.260   9.500 -0.0423 -0.0195 -0.2349
  529loPI   C3A 8457   9.772  10.281   9.092  0.2485 -0.3642  0.3903
  529loPI   C4A 8458   9.834  10.243   8.653 -0.0244  0.2838  0.1201
  529loPI   C5A 8459  10.088  10.308   8.245  0.0109  0.0472 -0.1405
  529loPI   C6A 8460  10.329  10.013   7.900  0.0671 -0.0547  0.1006
  529loPI   C1B 8461   9.289  10.306   9.763 -0.0026 -0.6245  0.4026
  529loPI   C2B 8462   9.230  10.295   9.267  0.0026 -0.3058 -0.1139
  529loPI   C3B 8463   9.265  10.320   8.902 -0.1313 -0.1177 -0.0870
  529loPI   C4B 8464   9.404  10.251   8.377 -0.1811  0.2814 -0.0588
  530loPI    C1 8465   0.805   9.550  10.645  0.2866  0.2065 -0.0519
  530loPI    C2 8466   0.788   9.902  10.834 -0.0011  0.1334  0.0632
  530loPI    C3 8467   0.806   9.563  11.045 -0.1899  0.0580 -0.0397
  530loPI   PO4 8468   0.661   9.543  10.445 -0.3141  0.0534  0.0626
  530loPI   GL1 8469   0.846   9.564  10.081 -0.3801 -0.0649 -0.1991
  530loPI   GL2 8470   0.620   9.886   9.942  0.2806  0.2874 -0.1453
  530loPI   C1A 8471   0.932   9.446   9.758 -0.1434  0.1849 -0.1217
  530loPI   C2A 8472   0.923   9.311   9.298 -0.0169  0.0307  0.1537
  530loPI   C3A 8473   0.966   9.350   8.831  0.2578  0.0897  0.0658
  530loPI   C4A 8474   1.041   9.404   8.364 -0.0264 -0.1845 -0.0357
  530loPI   C5A 8475   1.270   9.281   8.095  0.1130  0.0306 -0.1438
  530loPI   C6A 8476   1.760   9.106   8.080  0.1483  0.3697 -0.0478
  530loPI   C1B 8477   0.629   9.803   9.532  0.1334  0.5117 -0.2936
  530loPI   C2B 8478   0.717   9.793   9.025  0.2122  0.0653 -0.0271
  530loPI   C3B 8479   0.733   9.782   8.578  0.1773 -0.0195  0.1168
  530loPI   C4B 8480   0.527   9.758   8.086 -0.3935  0.2019  0.0744
  531loPI    C1 8481   8.669  11.803  11.016  0.3415  0.1523 -0.2764
  531loPI    C2 8482   8.900  12.092  11.167 -0.2003  0.4330  0.0464
  531loPI    C3 8483   8.648  11.893  11.405  0.0765 -0.2347 -0.1958
  531loPI   PO4 8484   8.721  11.900  10.762 -0.2353  0.2153  0.1037
  531loPI   GL1 8485   8.704  11.907  10.348  0.2726 -0.1592  0.0951
  531loPI   GL2 8486   8.377  11.699  10.172 -0.0644  0.0895 -0.3191
  531loPI   C1A 8487   8.701  12.186  10.071 -0.1446  0.2105 -0.0592
  531loPI   C2A 8488   8.751  12.306   9.651  0.0018 -0.0964  0.0963
  531loPI   C3A 8489   8.768  12.350   9.202  0.4540  0.0885 -0.0227
  531loPI   C4A 8490   8.660  12.282   8.866  0.0899 -0.0399 -0.3865
  531loPI   C5A 8491   8.635  12.357   8.456 -0.0408  0.0986  0.3457
  531loPI   C6A 8492   8.663  12.407   8.012 -0.2154  0.0403  0.1725
  531loPI   C1B 8493   8.331  11.614   9.714 -0.1724  0.0590 -0.0036
  531loPI   C2B 8494   7.964  11.535   9.411  0.0034 -0.0807 -0.0113
  531loPI   C3B 8495   7.921  11.647   9.021 -0.0405  0.1984  0.2158
  531loPI   C4B 8496   7.856  11.629   8.617  0.3844 -0.1254 -0.0054
  532loPI    C1 8497  15.161   3.447  10.593  0.0638  0.1092  0.1262
  532loPI    C2 8498  14.919   3.709  10.774  0.0740 -0.0517  0.3770
  532loPI    C3 8499  15.310   3.704  10.861  0.1955  0.2815 -0.1079
  532loPI   PO4 8500  15.084   3.476  10.341 -0.0384 -0.1515  0.1026
  532loPI   GL1 8501  15.048   3.557   9.901  0.0925 -0.1225  0.0840
  532loPI   GL2 8502  15.256   3.859   9.779  0.0407 -0.1097  0.0024
  532loPI   C1A 8503  14.861   3.451   9.567 -0.3944  0.0081 -0.1745
  532loPI   C2A 8504  14.765   3.451   9.161  0.1060 -0.0909 -0.3478
  532loPI   C3A 8505  14.832   3.528   8.795 -0.3618  0.0406  0.4203
  532loPI   C4A 8506  14.660   3.617   8.447 -0.2302 -0.1715 -0.0557
  532loPI   C5A 8507  14.723   3.739   7.996  0.1698  0.2247 -0.2012
  532loPI   C6A 8508  14.818   3.925   7.678 -0.2634 -0.0096 -0.2642
  532loPI   C1B 8509  15.241   3.781   9.425  0.2162  0.0446  0.0377
  532loPI   C2B 8510  15.156   3.811   9.051 -0.2753  0.1038 -0.0825
  532loPI   C3B 8511  15.442   3.906   8.788 -0.0825 -0.3509 -0.1310
  532loPI   C4B 8512  15.523   4.000   8.287 -0.1404  0.1372  0.0958
  533loPI    C1 8513  12.858  11.958  10.807  0.0672  0.0069  0.0085
  533loPI    C2 8514  12.612  11.683  10.963 -0.1864  0.0421 -0.3199
  533loPI    C3 8515  12.724  11.998  11.182 -0.1908 -0.1298 -0.0668
  533loPI   PO4 8516  12.774  11.943  10.590  0.1254 -0.1184 -0.3615
  533loPI   GL1 8517  12.685  11.884  10.140 -0.0105  0.0999 -0.1552
  533loPI   GL2 8518  12.690  11.617  10.173 -0.1497 -0.2449 -0.1761
  533loPI   C1A 8519  12.721  12.112   9.663  0.0655 -0.0431  0.5529
  533loPI   C2A 8520  12.678  12.114   9.180 -0.1384 -0.1336  0.0383
  533loPI   C3A 8521  12.698  12.175   8.703 -0.4492 -0.1564  0.3797
  533loPI   C4A 8522  12.527  12.172   8.280 -0.1932 -0.1244 -0.0196
  533loPI   C5A 8523  12.272  12.238   7.904 -0.3738  0.2183 -0.3786
  533loPI   C6A 8524  12.424  12.114   7.503  0.1979  0.3903 -0.0692
  533loPI   C1B 8525  12.573  11.650   9.746 -0.0100 -0.2408  0.1347
  533loPI   C2B 8526  12.449  11.712   9.336 -0.0182 -0.1359 -0.5091
  533loPI   C3B 8527  12.590  11.677   8.956  0.2603 -0.0084 -0.1120
  533loPI   C4B 8528  12.718  11.706   8.549 -0.1357 -0.0396 -0.0719
  534loPI    C1 8529  11.651  16.911  10.906  0.0207 -0.1348 -0.0755
  534loPI    C2 8530  11.453  16.603  11.066 -0.4686  0.1207 -0.1671
  534loPI    C3 8531  11.556  16.915  11.294  0.0898 -0.1297 -0.0586
  534loPI   PO4 8532  11.597  16.970  10.659  0.2145  0.0156  0.2222
  534loPI   GL1 8533  11.241  16.926  10.303 -0.0985 -0.2025 -0.4253
  534loPI   GL2 8534  11.287  17.108  10.008 -0.3252 -0.3746  0.0025
  534loPI   C1A 8535  11.313  16.593  10.007  0.1314  0.2201 -0.0064
  534loPI   C2A 8536  11.286  16.578   9.548 -0.0125 -0.0684  0.0046
  534loPI   C3A 8537  11.356  16.559   9.180 -0.0202  0.1440 -0.5722
  534loPI   C4A 8538  11.361  16.637   8.766 -0.1310 -0.1813 -0.0939
  534loPI   C5A 8539  11.376  16.675   8.335 -0.1210 -0.1660 -0.0128
  534loPI   C6A 8540  11.314  16.387   7.996 -0.1882 -0.1031  0.1855
  534loPI   C1B 8541  11.270  17.079   9.522 -0.4073  0.1079 -0.1612
  534loPI   C2B 8542  11.377  17.068   9.092 -0.0844  0.3495  0.1412
  534loPI   C3B 8543  11.312  17.127   8.651  0.1312 -0.1251 -0.0339
  534loPI   C4B 8544  11.337  17.156   8.226  0.1256  0.2557 -0.2572
  535loPI    C1 8545  11.810  17.912  10.978 -0.0668  0.1374  0.0711
  535loPI    C2 8546  11.590  18.239  11.046 -0.0787  0.1276  0.0787
  535loPI    C3 8547  11.492  17.893  11.220 -0.1578  0.0842 -0.0516
  535loPI   PO4 8548  11.812  17.902  10.719  0.1001  0.2940 -0.0889
  535loPI   GL1 8549  12.039  17.817  10.296 -0.1059 -0.1668 -0.3039
  535loPI   GL2 8550  11.970  18.224  10.350  0.1073 -0.0879  0.1310
  535loPI   C1A 8551  12.089  17.700   9.889 -0.0165  0.0049  0.0127
  535loPI   C2A 8552  12.088  17.674   9.512  0.0163  0.0874  0.2222
  535loPI   C3A 8553  12.132  17.698   9.093 -0.0547  0.0248 -0.3795
  535loPI   C4A 8554  12.176  17.665   8.656 -0.0667  0.3135  0.0943
  535loPI   C5A 8555  12.287  17.665   8.211 -0.3211  0.0808  0.2168
  535loPI   C6A 8556  12.551  17.466   7.815  0.1340  0.1588  0.2669
  535loPI   C1B 8557  11.973  18.277   9.912 -0.0209  0.1248 -0.3436
  535loPI   C2B 8558  12.016  18.224   9.456 -0.0198  0.0528 -0.0442
  535loPI   C3B 8559  12.062  18.149   8.968 -0.0975  0.0670 -0.2871
  535loPI   C4B 8560  12.197  18.150   8.596 -0.1758 -0.2031  0.1683
  536loPI    C1 8561  16.516   8.256  10.914  0.1018  0.0126 -0.1132
  536loPI    C2 8562  16.842   8.270  11.146  0.1031  0.0202 -0.1154
  536loPI    C3 8563  16.693   7.917  11.032  0.0247  0.0133  0.0062
  536loPI   PO4 8564  16.597   8.432  10.622 -0.0877  0.3412  0.0390
  536loPI   GL1 8565  16.537   8.215  10.263 -0.1222 -0.0665  0.1489
  536loPI   GL2 8566  16.547   8.544  10.149  0.3323  0.1548 -0.1522
  536loPI   C1A 8567  16.826   8.103   9.957  0.0932  0.3404  0.0992
  536loPI   C2A 8568  16.773   8.015   9.530 -0.1347 -0.0227  0.3514
  536loPI   C3A 8569  16.846   8.087   9.016 -0.1752 -0.0984  0.1369
  536loPI   C4A 8570  16.892   8.002   8.658 -0.0247 -0.0166  0.0312
  536loPI   C5A 8571  16.838   8.092   8.262  0.1344  0.2055  0.0779
  536loPI   C6A 8572  17.060   8.460   8.051 -0.0160  0.0729  0.1413
  536loPI   C1B 8573  16.603   8.465   9.633 -0.2342  0.0185 -0.1199
  536loPI   C2B 8574  16.611   8.533   9.196  0.0200  0.0988 -0.1127
  536loPI   C3B 8575  16.597   8.484   8.734 -0.1543 -0.0087 -0.1254
  536loPI   C4B 8576  16.699   8.656   8.339  0.2144  0.1904  0.1051
  537loPI    C1 8577   2.228   3.418  10.466  0.0188  0.0010 -0.1333
  537loPI    C2 8578   2.060   3.674  10.723 -0.0393 -0.1591 -0.0103
  537loPI    C3 8579   1.913   3.304  10.684  0.0907 -0.1991 -0.1318
  537loPI   PO4 8580   2.266   3.479  10.184 -0.1309 -0.2295  0.0437
  537loPI   GL1 8581   2.178   3.544   9.765 -0.4104  0.0315 -0.2501
  537loPI   GL2 8582   1.882   3.466   9.798  0.1473 -0.0542  0.1203
  537loPI   C1A 8583   2.403   3.646   9.355 -0.0067 -0.0937 -0.1499
  537loPI   C2A 8584   2.414   3.812   8.951 -0.0266 -0.1991  0.2154
  537loPI   C3A 8585   2.467   3.980   8.624 -0.1557  0.2615 -0.0306
  537loPI   C4A 8586   2.272   3.959   8.222 -0.3184 -0.1693 -0.0410
  537loPI   C5A 8587   2.454   3.896   7.738 -0.1059  0.2117 -0.1230
  537loPI   C6A 8588   2.519   3.464   7.538  0.1245 -0.0630  0.1762
  537loPI   C1B 8589   1.982   3.453   9.347  0.4483  0.1603 -0.2407
  537loPI   C2B 8590   2.081   3.428   8.895  0.1087 -0.1904 -0.6045
  537loPI   C3B 8591   2.302   3.507   8.537 -0.1784 -0.3066 -0.0373
  537loPI   C4B 8592   2.359   3.526   8.072  0.1867  0.0754  0.0414
  538loPI    C1 8593  17.652   5.202  10.248  0.0790  0.0864 -0.1483
  538loPI    C2 8594  17.361   4.996  10.430 -0.0121  0.1866 -0.1788
  538loPI    C3 8595  17.613   5.220  10.646  0.3263 -0.2512 -0.1049
  538loPI   PO4 8596  17.520   5.288  10.048 -0.1715  0.1319  0.1140
  538loPI   GL1 8597  17.537   5.475   9.576  0.1620 -0.0472 -0.3580
  538loPI   GL2 8598  17.121   5.438   9.583  0.3273 -0.2840 -0.0491
  538loPI   C1A 8599  17.623   5.756   9.414 -0.3464 -0.0292 -0.1050
  538loPI   C2A 8600  17.558   5.748   8.968  0.0250 -0.0073  0.3464
  538loPI   C3A 8601  17.551   5.743   8.584 -0.3312  0.0015 -0.0307
  538loPI   C4A 8602  17.476   5.700   8.167  0.0350  0.0083  0.1490
  538loPI   C5A 8603  17.039   5.751   8.064 -0.0258 -0.4577  0.1184
  538loPI   C6A 8604  16.959   6.049   7.741  0.1032  0.0132  0.3205
  538loPI   C1B 8605  17.226   5.422   9.156  0.0028 -0.2434 -0.2692
  538loPI   C2B 8606  17.254   5.352   8.732 -0.3134  0.2298 -0.1875
  538loPI   C3B 8607  17.249   5.283   8.312 -0.1007  0.1553 -0.3597
  538loPI   C4B 8608  17.243   5.279   7.860  0.2181 -0.3408 -0.0670
  539loPI    C1 8609  14.209   6.112  10.496  0.0766  0.0404  0.1871
  539loPI    C2 8610  14.512   5.884  10.369 -0.0049  0.0829 -0.0898
  539loPI    C3 8611  14.466   5.955  10.760  0.0945 -0.2705 -0.0099
  539loPI   PO4 8612  14.121   6.176  10.299 -0.4067  0.0463  0.0457
  539loPI   GL1 8613  14.183   6.281   9.887 -0.0827  0.4470 -0.3803
  539loPI   GL2 8614  14.456   6.532   9.997  0.0584 -0.0282  0.0648
  539loPI   C1A 8615  14.223   6.281   9.480  0.0225 -0.1522 -0.1409
  539loPI   C2A 8616  14.154   6.324   9.093 -0.1120  0.0495 -0.0771
  539loPI   C3A 8617  14.148   6.328   8.717  0.1253  0.1408  0.3590
  539loPI   C4A 8618  14.308   6.416   8.253  0.0705 -0.0404  0.0780
  539loPI   C5A 8619  14.354   6.050   8.018  0.0027  0.1597 -0.0342
  539loPI   C6A 8620  14.427   5.711   7.684  0.1110  0.1927 -0.0694
  539loPI   C1B 8621  14.450   6.682   9.592  0.3651 -0.0704 -0.0689
  539loPI   C2B 8622  14.481   6.764   9.256 -0.0890 -0.0953 -0.1346
  539loPI   C3B 8623  14.339   6.738   8.924  0.0819  0.3306 -0.1335
  539loPI   C4B 8624  14.517   6.840   8.505 -0.3697  0.0140 -0.0458
  540loPI    C1 8625   5.626   6.633  11.069  0.0660 -0.0875 -0.0365
  540loPI    C2 8626   5.709   6.329  11.315  0.1346  0.0683  0.1353
  540loPI    C3 8627   5.927   6.665  11.331  0.0100  0.1567  0.0012
  540loPI   PO4 8628   5.594   6.515  10.835 -0.1083 -0.0863 -0.1773
  540loPI   GL1 8629   5.851   6.367  10.561 -0.1346 -0.1684 -0.1927
  540loPI   GL2 8630   5.963   6.664  10.365 -0.0600 -0.1424  0.1978
  540loPI   C1A 8631   5.837   6.162  10.121 -0.1738 -0.1182 -0.1011
  540loPI   C2A 8632   5.850   6.202   9.643  0.2337 -0.1571 -0.1658
  540loPI   C3A 8633   5.806   6.233   9.242 -0.1429 -0.0592  0.5117
  540loPI   C4A 8634   5.870   6.204   8.840 -0.1059 -0.0336  0.1879
  540loPI   C5A 8635   6.098   6.239   8.447  0.1088  0.1268  0.0312
  540loPI   C6A 8636   6.298   6.275   8.003  0.2005  0.1981  0.1300
  540loPI   C1B 8637   6.085   6.615  10.001  0.1256  0.0769 -0.0141
  540loPI   C2B 8638   6.150   6.647   9.555  0.1988 -0.2071 -0.1821
  540loPI   C3B 8639   6.066   6.672   9.163 -0.0861  0.2182 -0.2457
  540loPI   C4B 8640   6.166   6.660   8.817  0.2783 -0.1279  0.2805
  541loPI    C1 8641  15.560   3.235  10.312  0.0856 -0.3231 -0.0510
  541loPI    C2 8642  15.394   2.951  10.540 -0.0722 -0.0789  0.1438
  541loPI    C3 8643  15.743   3.113  10.646 -0.0763 -0.0648  0.1359
  541loPI   PO4 8644  15.585   3.195  10.059  0.1865  0.0274  0.0463
  541loPI   GL1 8645  15.531   3.419   9.776 -0.1707 -0.0821  0.0210
  541loPI   GL2 8646  15.322   3.182   9.652  0.2473  0.0736 -0.1653
  541loPI   C1A 8647  15.752   3.583   9.389  0.0308 -0.1454 -0.0287
  541loPI   C2A 8648  15.771   3.582   8.971  0.0240 -0.0539  0.3907
  541loPI   C3A 8649  15.768   3.623   8.483 -0.2770 -0.0362 -0.1983
  541loPI   C4A 8650  15.534   3.464   8.242 -0.3563 -0.1102 -0.2363
  541loPI   C5A 8651  15.143   3.224   8.070 -0.0231  0.0026 -0.0528
  541loPI   C6A 8652  14.692   3.200   8.148 -0.0524  0.3190 -0.2829
  541loPI   C1B 8653  15.284   3.284   9.152 -0.0476 -0.2406  0.2261
  541loPI   C2B 8654  15.347   3.415   8.692  0.0481 -0.1763  0.0336
  541loPI   C3B 8655  15.128   3.738   8.385 -0.1937  0.0561 -0.0717
  541loPI   C4B 8656  15.069   4.092   8.104 -0.1077  0.1386  0.1624
  542loPI    C1 8657   5.237  17.001  10.685  0.2439 -0.0138 -0.0461
  542loPI    C2 8658   5.022  17.293  10.856  0.0979  0.0120 -0.2691
  542loPI    C3 8659   5.028  16.927  11.018  0.1481  0.0950 -0.0812
  542loPI   PO4 8660   5.249  17.109  10.412  0.1758  0.1482 -0.2813
  542loPI   GL1 8661   5.077  17.192  10.005  0.2684  0.1926 -0.2137
  542loPI   GL2 8662   5.238  17.451  10.023  0.0291  0.1404  0.1942
  542loPI   C1A 8663   5.385  17.054   9.629  0.3322 -0.0566  0.1708
  542loPI   C2A 8664   5.373  17.228   9.326  0.1233  0.0666  0.0443
  542loPI   C3A 8665   5.297  17.177   8.899 -0.1385  0.2442 -0.0257
  542loPI   C4A 8666   5.299  17.027   8.517  0.0664  0.2171  0.0374
  542loPI   C5A 8667   5.407  16.965   8.119  0.1538  0.2834 -0.2003
  542loPI   C6A 8668   5.547  16.842   7.734  0.1310 -0.0889  0.1041
  542loPI   C1B 8669   5.265  17.675   9.616  0.2248 -0.1839 -0.0046
  542loPI   C2B 8670   5.264  17.658   9.111  0.3008  0.1191 -0.1628
  542loPI   C3B 8671   5.143  17.631   8.746  0.1829 -0.1983  0.1246
  542loPI   C4B 8672   5.308  17.520   8.383 -0.2390  0.0761  0.0499
  543loPI    C1 8673   2.891  14.702  10.956  0.1121  0.0014  0.1388
  543loPI    C2 8674   3.047  14.510  11.271 -0.0587 -0.0647  0.1839
  543loPI    C3 8675   2.851  14.855  11.324  0.0425  0.0014  0.1312
  543loPI   PO4 8676   2.894  14.463  10.707 -0.0090  0.1714 -0.0835
  543loPI   GL1 8677   3.178  14.500  10.334 -0.4342 -0.0376  0.0078
  543loPI   GL2 8678   2.850  14.293  10.265 -0.0753 -0.2269 -0.2068
  543loPI   C1A 8679   3.384  14.610   9.878 -0.4963 -0.1477  0.1036
  543loPI   C2A 8680   3.336  14.561   9.451 -0.0207  0.1161 -0.2417
  543loPI   C3A 8681   3.270  14.449   9.082  0.0106  0.3708  0.2109
  543loPI   C4A 8682   3.354  14.442   8.662 -0.0961  0.1011  0.3733
  543loPI   C5A 8683   3.252  14.509   8.251  0.0718  0.1652 -0.4881
  543loPI   C6A 8684   3.345  14.805   7.983 -0.1305  0.4832  0.1473
  543loPI   C1B 8685   2.922  14.315   9.925 -0.0416 -0.0365  0.0617
  543loPI   C2B 8686   2.949  14.225   9.493 -0.2689 -0.2258  0.3460
  543loPI   C3B 8687   2.916  14.119   9.111  0.3245  0.0224 -0.0780
  543loPI   C4B 8688   2.907  14.208   8.748 -0.0272  0.0425 -0.0265
  544loPI    C1 8689  18.132   5.431  10.158  0.0130 -0.0433  0.0614
  544loPI    C2 8690  17.990   5.610  10.487 -0.0545  0.0954 -0.0424
  544loPI    C3 8691  18.106   5.227  10.501  0.2461  0.1920  0.2233
  544loPI   PO4 8692  18.003   5.653   9.947  0.0001  0.2059 -0.0951
  544loPI   GL1 8693  18.138   5.757   9.594 -0.0446 -0.2075  0.0230
  544loPI   GL2 8694  18.363   6.065   9.613 -0.0366 -0.2222 -0.0026
  544loPI   C1A 8695  18.079   5.714   9.182 -0.0370  0.1034 -0.1391
  544loPI   C2A 8696  18.079   5.846   8.727  0.1089  0.2727  0.1299
  544loPI   C3A 8697  17.966   5.765   8.240  0.0376  0.2155  0.1045
  544loPI   C4A 8698  17.851   5.906   7.917 -0.0763 -0.1818 -0.0095
  544loPI   C5A 8699  18.070   6.187   7.720  0.1463 -0.1303  0.3412
  544loPI   C6A 8700  18.448   6.195   7.553 -0.0211 -0.0488  0.3210
  544loPI   C1B 8701  18.346   6.110   9.215 -0.3162 -0.2191  0.1049
  544loPI   C2B 8702  18.312   6.263   8.876 -0.0527  0.0252 -0.2218
  544loPI   C3B 8703  18.339   6.309   8.516  0.0894  0.0128 -0.1845
  544loPI   C4B 8704  18.450   6.452   8.032 -0.3028 -0.2682 -0.0150
  545loPI    C1 8705  13.388  12.070  10.729 -0.1546 -0.0895  0.1215
  545loPI    C2 8706  13.288  11.793  11.000 -0.1301 -0.0193  0.2027
  545loPI    C3 8707  13.196  12.177  11.063 -0.0447  0.0094  0.1534
  545loPI   PO4 8708  13.291  11.862  10.456 -0.3832  0.1536  0.2518
  545loPI   GL1 8709  13.233  12.141  10.122  0.3186  0.0755  0.0270
  545loPI   GL2 8710  13.472  12.249  10.147 -0.2288  0.0297 -0.4298
  545loPI   C1A 8711  13.140  12.444   9.757 -0.0299  0.1636  0.0075
  545loPI   C2A 8712  13.071  12.432   9.337 -0.2327 -0.1625  0.3527
  545loPI   C3A 8713  13.177  12.366   8.955 -0.0703 -0.0796 -0.0781
  545loPI   C4A 8714  13.184  12.194   8.632 -0.4326 -0.0152 -0.0220
  545loPI   C5A 8715  13.492  12.014   8.329 -0.2705 -0.1188 -0.1327
  545loPI   C6A 8716  13.823  11.742   8.145 -0.0747  0.0927 -0.2441
  545loPI   C1B 8717  13.517  12.168   9.667 -0.1372 -0.0941  0.3363
  545loPI   C2B 8718  13.575  12.195   9.263  0.0437  0.1581  0.0232
  545loPI   C3B 8719  13.594  12.057   8.901 -0.0325 -0.1656 -0.0307
  545loPI   C4B 8720  13.927  12.009   8.703 -0.0899  0.1474 -0.0586
  546loPI    C1 8721   6.321  17.915  10.351 -0.1381 -0.0023  0.1545
  546loPI    C2 8722   6.517  18.259  10.410 -0.0301 -0.0858  0.2885
  546loPI    C3 8723   6.367  18.059  10.722 -0.4119  0.0232  0.1800
  546loPI   PO4 8724   6.412  17.803  10.112 -0.2342  0.3331  0.1609
  546loPI   GL1 8725   6.449  17.891   9.732 -0.0685  0.2150  0.0793
  546loPI   GL2 8726   6.044  17.758   9.697 -0.2187  0.0449  0.1995
  546loPI   C1A 8727   6.587  18.001   9.330  0.2363 -0.1727 -0.1311
  546loPI   C2A 8728   6.592  17.964   8.881 -0.0299  0.0269  0.1908
  546loPI   C3A 8729   6.517  18.065   8.449 -0.0491  0.2680 -0.0194
  546loPI   C4A 8730   6.745  18.290   8.265 -0.0088  0.0490 -0.1656
  546loPI   C5A 8731   6.635  18.389   7.895 -0.0146  0.1602 -0.1415
  546loPI   C6A 8732   6.356  18.527   7.541  0.2636  0.0283 -0.1397
  546loPI   C1B 8733   6.200  17.708   9.223  0.0390  0.1803 -0.1656
  546loPI   C2B 8734   6.156  17.738   8.819  0.1048  0.0200  0.0508
  546loPI   C3B 8735   6.154  17.737   8.410 -0.0278 -0.1691  0.3553
  546loPI   C4B 8736   6.299  17.873   7.981  0.6077 -0.1459  0.3680
  547loPI    C1 8737  12.810   7.812  11.100  0.0421  0.0434  0.2782
  547loPI    C2 8738  12.650   7.680  11.441 -0.2736  0.0221  0.1257
  547loPI    C3 8739  12.860   7.431  11.209 -0.0788  0.0306  0.2895
  547loPI   PO4 8740  12.627   7.976  11.071 -0.0556  0.0179  0.0274
  547loPI   GL1 8741  12.588   8.074  10.644  0.1339 -0.1107 -0.2949
  547loPI   GL2 8742  12.794   8.012  10.436  0.3325  0.0799 -0.1553
  547loPI   C1A 8743  12.243   8.153  10.276 -0.0925 -0.0159 -0.1786
  547loPI   C2A 8744  12.181   8.056   9.842 -0.0267 -0.2504 -0.1251
  547loPI   C3A 8745  12.116   8.031   9.409  0.0416 -0.3575 -0.0508
  547loPI   C4A 8746  12.136   8.025   9.005  0.0929 -0.0113 -0.1989
  547loPI   C5A 8747  12.045   8.045   8.621  0.0093 -0.1734  0.2456
  547loPI   C6A 8748  12.220   8.186   8.234 -0.0497 -0.1749  0.2449
  547loPI   C1B 8749  12.648   8.021  10.073 -0.2217  0.1331 -0.0880
  547loPI   C2B 8750  12.630   8.072   9.626  0.1635  0.2014  0.3604
  547loPI   C3B 8751  12.630   8.097   9.210 -0.1045  0.0625  0.2730
  547loPI   C4B 8752  12.580   8.045   8.748 -0.3020  0.1020 -0.0978
  548loPI    C1 8753  12.032   8.472  11.283 -0.0796  0.0900  0.1444
  548loPI    C2 8754  12.231   8.814  11.229 -0.0648  0.0466 -0.0871
  548loPI    C3 8755  12.030   8.751  11.569  0.1514  0.1732  0.0672
  548loPI   PO4 8756  11.955   8.421  11.097 -0.0536 -0.0012 -0.0427
  548loPI   GL1 8757  12.022   8.429  10.594  0.0426  0.0591 -0.0503
  548loPI   GL2 8758  12.018   8.802  10.710 -0.2714 -0.2264 -0.0631
  548loPI   C1A 8759  11.855   8.509  10.187  0.1760  0.0951 -0.0622
  548loPI   C2A 8760  11.875   8.466   9.858  0.0133 -0.0064 -0.0969
  548loPI   C3A 8761  11.816   8.452   9.538  0.0323  0.0214  0.1360
  548loPI   C4A 8762  11.843   8.560   9.134  0.2115  0.1556 -0.0787
  548loPI   C5A 8763  11.838   8.567   8.742  0.0370 -0.1853  0.1617
  548loPI   C6A 8764  11.997   8.756   8.347 -0.0080 -0.0851 -0.1567
  548loPI   C1B 8765  12.124   8.951  10.237  0.0784  0.1548  0.3197
  548loPI   C2B 8766  12.096   8.970   9.847 -0.4307  0.2416  0.0131
  548loPI   C3B 8767  12.155   9.016   9.395  0.0422  0.1246 -0.0402
  548loPI   C4B 8768  12.120   8.954   8.952  0.2291 -0.0371  0.1376
  549loPI    C1 8769   9.717   2.261  10.369 -0.1458 -0.0234  0.0455
  549loPI    C2 8770   9.578   2.565  10.589 -0.3985 -0.1124  0.0120
  549loPI    C3 8771   9.696   2.227  10.767 -0.0455  0.0298  0.0556
  549loPI   PO4 8772   9.887   2.324  10.191  0.0180 -0.1768 -0.0510
  549loPI   GL1 8773   9.799   2.464   9.790 -0.0295  0.2954  0.0302
  549loPI   GL2 8774   9.835   2.741   9.610  0.0895  0.1168 -0.1341
  549loPI   C1A 8775   9.878   2.343   9.310 -0.3268 -0.0502  0.0252
  549loPI   C2A 8776  10.148   2.476   8.978 -0.2207  0.1614  0.1194
  549loPI   C3A 8777  10.337   2.653   8.690  0.1750  0.3089 -0.0157
  549loPI   C4A 8778  10.462   2.528   8.318 -0.0855  0.2974  0.1014
  549loPI   C5A 8779  10.651   2.569   7.953 -0.1817 -0.0597  0.1007
  549loPI   C6A 8780  10.875   2.797   7.644 -0.0556  0.0934  0.0851
  549loPI   C1B 8781   9.916   3.005   9.204 -0.0088 -0.2914 -0.0688
  549loPI   C2B 8782   9.819   3.052   8.809 -0.2565 -0.1628  0.0539
  549loPI   C3B 8783   9.776   3.179   8.394 -0.3682  0.1040  0.1180
  549loPI   C4B 8784   9.722   3.136   8.001 -0.1346 -0.2688  0.0501
  550loPI    C1 8785   8.924   1.811  10.550  0.0410 -0.2529  0.0779
  550loPI    C2 8786   8.685   2.052  10.762  0.1572 -0.2003  0.1501
  550loPI    C3 8787   8.634   1.656  10.779  0.0297 -0.1862  0.1090
  550loPI   PO4 8788   8.900   1.932  10.303 -0.1262 -0.0610 -0.1725
  550loPI   GL1 8789   9.159   1.872   9.939 -0.0813  0.3989  0.0785
  550loPI   GL2 8790   9.216   1.590   9.738  0.1130  0.2808 -0.4521
  550loPI   C1A 8791   9.006   2.123   9.575 -0.5062 -0.3283  0.0560
  550loPI   C2A 8792   8.969   2.190   9.235  0.1643 -0.3190  0.0210
  550loPI   C3A 8793   9.069   2.273   8.944  0.0743  0.1984 -0.0663
  550loPI   C4A 8794   9.179   2.229   8.476  0.0184 -0.0768 -0.0191
  550loPI   C5A 8795   9.515   2.080   8.205  0.2057 -0.0909 -0.2278
  550loPI   C6A 8796   9.602   2.052   7.699 -0.1657 -0.3168  0.0310
  550loPI   C1B 8797   9.161   1.725   9.307  0.0112 -0.1799  0.0157
  550loPI   C2B 8798   9.141   1.781   8.824 -0.0573 -0.0251 -0.2117
  550loPI   C3B 8799   9.174   1.734   8.466 -0.1600 -0.1642 -0.1669
  550loPI   C4B 8800   9.092   1.545   8.048 -0.1198  0.1730  0.0992
  551loPI    C1 8801   9.225  15.641  10.885  0.2255  0.1867 -0.0636
  551loPI    C2 8802   9.424  15.389  11.124  0.0871 -0.0015 -0.1443
  551loPI    C3 8803   9.189  15.672  11.283  0.0913 -0.0474 -0.0555
  551loPI   PO4 8804   9.076  15.538  10.751  0.3361 -0.0101 -0.3456
  551loPI   GL1 8805   8.791  15.695  10.383 -0.3706  0.1762  0.1193
  551loPI   GL2 8806   9.047  15.617  10.290  0.3330  0.1165  0.1406
  551loPI   C1A 8807   8.738  15.695   9.920  0.0572 -0.0770 -0.1423
  551loPI   C2A 8808   8.750  15.782   9.547 -0.1148  0.0383  0.1448
  551loPI   C3A 8809   8.697  15.742   9.136  0.0969 -0.1830 -0.2741
  551loPI   C4A 8810   8.791  15.670   8.774  0.0657 -0.0593 -0.2945
  551loPI   C5A 8811   8.690  15.638   8.370 -0.0406  0.0669  0.0667
  551loPI   C6A 8812   8.600  15.364   8.071  0.0644 -0.3080  0.1620
  551loPI   C1B 8813   9.256  15.506   9.841  0.2768  0.1107 -0.3517
  551loPI   C2B 8814   9.215  15.529   9.357 -0.2080  0.0832 -0.0215
  551loPI   C3B 8815   9.242  15.519   8.944 -0.2224 -0.3606 -0.1444
  551loPI   C4B 8816   9.154  15.499   8.559 -0.2811 -0.0676 -0.0769
  552loPI    C1 8817   5.506   0.827  10.258  0.0007  0.2244  0.0772
  552loPI    C2 8818   5.246   0.539  10.356 -0.0534  0.2244 -0.0634
  552loPI    C3 8819   5.443   0.737  10.642 -0.0394  0.0698  0.0352
  552loPI   PO4 8820   5.569   0.803  10.052 -0.1638  0.0515  0.2876
  552loPI   GL1 8821   5.776   0.749   9.727  0.1126  0.2456  0.0982
  552loPI   GL2 8822   5.494   0.681   9.547  0.1542 -0.0011 -0.2096
  552loPI   C1A 8823   5.935   0.875   9.258  0.3888 -0.2951 -0.2653
  552loPI   C2A 8824   6.003   0.928   8.811  0.0136 -0.1937  0.1273
  552loPI   C3A 8825   5.836   0.953   8.443 -0.1619 -0.0117  0.3440
  552loPI   C4A 8826   5.919   1.057   8.063 -0.1229  0.4067 -0.0978
  552loPI   C5A 8827   6.079   0.933   7.692  0.1110  0.4097 -0.0482
  552loPI   C6A 8828   5.785   0.839   7.355  0.0341  0.2205 -0.0945
  552loPI   C1B 8829   5.446   0.594   9.123 -0.0528 -0.0329  0.0910
  552loPI   C2B 8830   5.509   0.615   8.701  0.0198  0.1594 -0.3322
  552loPI   C3B 8831   5.497   0.639   8.193 -0.3732 -0.2447 -0.1216
  552loPI   C4B 8832   5.541   0.741   7.768  0.1752 -0.1136  0.2326
  553loPI    C1 8833  15.221   8.999  10.750  0.1355 -0.0727 -0.2358
  553loPI    C2 8834  15.609   8.971  10.843  0.1324  0.1633 -0.1450
  553loPI    C3 8835  15.331   8.890  11.119  0.1147 -0.0993 -0.2374
  553loPI   PO4 8836  15.286   8.979  10.467 -0.3245  0.0098 -0.4193
  553loPI   GL1 8837  15.439   9.026  10.129 -0.0472  0.1283  0.0533
  553loPI   GL2 8838  15.689   9.092   9.918 -0.1513  0.3401  0.0387
  553loPI   C1A 8839  15.202   9.095   9.677 -0.1497  0.1229  0.2291
  553loPI   C2A 8840  15.246   8.884   9.278 -0.0466 -0.0931 -0.3281
  553loPI   C3A 8841  15.294   8.943   8.827  0.0571  0.3795 -0.2248
  553loPI   C4A 8842  15.299   9.034   8.369 -0.1863  0.2360 -0.0154
  553loPI   C5A 8843  15.437   9.120   7.981 -0.0562 -0.0499 -0.1362
  553loPI   C6A 8844  15.274   8.984   7.648 -0.1487  0.0866 -0.2105
  553loPI   C1B 8845  15.818   8.967   9.531 -0.0485  0.2535  0.0284
  553loPI   C2B 8846  15.750   8.936   9.082 -0.1457 -0.0992 -0.0487
  553loPI   C3B 8847  15.809   9.002   8.667  0.1061  0.2075 -0.1802
  553loPI   C4B 8848  15.893   9.071   8.203 -0.0268  0.1554  0.1398
  554loPI    C1 8849  18.297   6.257  10.693 -0.1706  0.0502  0.0095
  554loPI    C2 8850  18.195   5.909  10.862  0.0006  0.0283  0.0700
  554loPI    C3 8851  18.136   6.252  11.059  0.3116 -0.0059  0.2290
  554loPI   PO4 8852  18.045   6.258  10.478 -0.0756 -0.1855  0.2076
  554loPI   GL1 8853  17.983   6.188   9.995 -0.0588 -0.0390  0.2454
  554loPI   GL2 8854  18.148   6.343  10.030  0.3013  0.2255  0.2346
  554loPI   C1A 8855  17.915   6.267   9.529 -0.1075 -0.1283 -0.2173
  554loPI   C2A 8856  17.793   6.230   9.088 -0.1669  0.1424  0.0812
  554loPI   C3A 8857  17.803   6.215   8.653 -0.0622 -0.6338 -0.2047
  554loPI   C4A 8858  17.952   6.326   8.220  0.0894  0.0900  0.0481
  554loPI   C5A 8859  17.827   6.589   7.881  0.0294  0.1003  0.0127
  554loPI   C6A 8860  17.649   6.763   7.540 -0.1782 -0.3990 -0.1958
  554loPI   C1B 8861  18.088   6.736   9.660  0.0998 -0.0402  0.2093
  554loPI   C2B 8862  18.153   6.549   9.256 -0.1110 -0.1126  0.2320
  554loPI   C3B 8863  18.057   6.729   8.804 -0.0222  0.1726  0.0575
  554loPI   C4B 8864  18.131   6.785   8.323  0.1810 -0.1565 -0.0975
  555loPI    C1 8865  15.663   9.970  10.359 -0.0890 -0.1689  0.1469
  555loPI    C2 8866  15.858  10.109  10.680  0.1833 -0.0129 -0.0822
  555loPI    C3 8867  15.794   9.716  10.639  0.2268 -0.0418  0.1175
  555loPI   PO4 8868  15.763  10.187  10.128  0.2536 -0.0062  0.3748
  555loPI   GL1 8869  15.990  10.091   9.846  0.0392  0.0147 -0.0500
  555loPI   GL2 8870  16.301   9.965   9.659  0.0908 -0.0048 -0.1920
  555loPI   C1A 8871  15.801   9.872   9.432  0.1052  0.0485  0.1843
  555loPI   C2A 8872  15.866   9.822   9.009  0.2649 -0.0734  0.3087
  555loPI   C3A 8873  15.776   9.888   8.610  0.2800 -0.2321 -0.2197
  555loPI   C4A 8874  15.900   9.888   8.218 -0.0642 -0.0795  0.0591
  555loPI   C5A 8875  15.998   9.943   7.725 -0.0563 -0.2153 -0.1362
  555loPI   C6A 8876  16.084   9.682   7.400 -0.0505  0.2580  0.1808
  555loPI   C1B 8877  16.284   9.729   9.181  0.1733  0.0559  0.1973
  555loPI   C2B 8878  16.382   9.797   8.752  0.0208  0.0664 -0.0189
  555loPI   C3B 8879  16.383   9.885   8.290 -0.0377  0.0554  0.2773
  555loPI   C4B 8880  16.521   9.819   7.802 -0.2217  0.0092  0.2518
  556loPI    C1 8881  15.220  13.721  10.793  0.0546 -0.0066  0.0242
  556loPI    C2 8882  15.238  13.856  11.169  0.3539 -0.2657  0.1072
  556loPI    C3 8883  15.499  13.989  10.897  0.1527 -0.0964 -0.0056
  556loPI   PO4 8884  15.047  13.716  10.692  0.2097  0.0020 -0.1720
  556loPI   GL1 8885  15.013  13.774  10.240 -0.0335  0.1769 -0.1321
  556loPI   GL2 8886  14.897  14.030  10.030 -0.1024 -0.0662 -0.1267
  556loPI   C1A 8887  14.864  13.531   9.929  0.0305 -0.2778  0.2120
  556loPI   C2A 8888  14.898  13.554   9.458 -0.0459  0.1293  0.0422
  556loPI   C3A 8889  14.822  13.546   9.025  0.0852 -0.2143 -0.2382
  556loPI   C4A 8890  14.774  13.577   8.620  0.1398  0.5589 -0.2429
  556loPI   C5A 8891  14.975  13.365   8.337  0.0414  0.3772 -0.4062
  556loPI   C6A 8892  15.101  12.955   8.328  0.0625  0.0060  0.1361
  556loPI   C1B 8893  14.769  14.040   9.610 -0.2951 -0.2979  0.1862
  556loPI   C2B 8894  14.740  13.993   9.211  0.2966 -0.1146 -0.3209
  556loPI   C3B 8895  14.790  14.097   8.753  0.1467 -0.2588  0.0165
  556loPI   C4B 8896  14.800  14.147   8.261  0.4127  0.0139  0.2330
  557loPI    C1 8897  13.370   6.017  10.692 -0.0668 -0.1586 -0.1945
  557loPI    C2 8898  13.713   6.202  10.602 -0.1396  0.0080 -0.1340
  557loPI    C3 8899  13.668   6.025  10.959 -0.0816 -0.0999 -0.1797
  557loPI   PO4 8900  13.168   6.068  10.418  0.1056  0.2969 -0.1291
  557loPI   GL1 8901  13.000   6.207   9.981  0.3553 -0.1337  0.3971
  557loPI   GL2 8902  13.276   6.194   9.967 -0.2707 -0.0479 -0.2572
  557loPI   C1A 8903  12.684   6.270   9.653  0.0197 -0.0190  0.1748
  557loPI   C2A 8904  12.581   6.253   9.190  0.0144  0.2019  0.0538
  557loPI   C3A 8905  12.667   6.357   8.762 -0.1787  0.1378  0.1104
  557loPI   C4A 8906  12.700   6.297   8.254 -0.3422 -0.1424 -0.0808
  557loPI   C5A 8907  12.624   6.072   7.869 -0.2228 -0.2048  0.1038
  557loPI   C6A 8908  12.450   5.804   7.511 -0.1585  0.1530 -0.1490
  557loPI   C1B 8909  13.183   6.281   9.550 -0.0295  0.2246  0.3262
  557loPI   C2B 8910  13.140   6.309   9.188  0.1816 -0.1614 -0.1201
  557loPI   C3B 8911  13.122   6.295   8.694  0.0337 -0.1652 -0.1949
  557loPI   C4B 8912  13.160   6.433   8.220  0.1910 -0.0190 -0.0094
  558loPI    C1 8913   9.685   8.443  11.000  0.0900  0.0307  0.0091
  558loPI    C2 8914   9.756   8.226  11.329 -0.2437 -0.1523 -0.0350
  558loPI    C3 8915   9.801   8.624  11.337  0.2859 -0.2073  0.0724
  558loPI   PO4 8916   9.475   8.399  10.875 -0.0119  0.0228 -0.1022
  558loPI   GL1 8917   9.484   8.182  10.471 -0.1663  0.0881  0.0869
  558loPI   GL2 8918   9.210   8.429  10.444  0.1364 -0.2482 -0.0489
  558loPI   C1A 8919   9.464   8.092   9.960 -0.0851  0.1497 -0.1172
  558loPI   C2A 8920   9.579   8.013   9.562  0.0113  0.0218  0.2472
  558loPI   C3A 8921   9.552   7.964   9.180  0.0073 -0.1318 -0.2275
  558loPI   C4A 8922   9.483   8.020   8.756 -0.1402  0.2230 -0.0449
  558loPI   C5A 8923   9.485   8.117   8.294  0.1948  0.3016  0.0696
  558loPI   C6A 8924   9.077   7.973   8.068  0.1882  0.1466 -0.0713
  558loPI   C1B 8925   9.310   8.577  10.051  0.3067  0.1438 -0.3210
  558loPI   C2B 8926   9.209   8.528   9.658  0.0727  0.0955 -0.3034
  558loPI   C3B 8927   9.349   8.434   9.277  0.0906  0.1775  0.2406
  558loPI   C4B 8928   9.300   8.455   8.865 -0.0748 -0.2342 -0.1328
  559loPI    C1 8929  17.801  15.946  10.555  0.1622  0.2562  0.2569
  559loPI    C2 8930  17.830  15.579  10.712  0.1163  0.0366 -0.2294
  559loPI    C3 8931  18.116  15.716  10.468  0.0923  0.2946 -0.1164
  559loPI   PO4 8932  17.525  15.845  10.399  0.2649  0.0364  0.0133
  559loPI   GL1 8933  17.546  15.358  10.005 -0.2228 -0.0076 -0.2241
  559loPI   GL2 8934  17.848  15.586  10.067  0.2022  0.3297  0.0140
  559loPI   C1A 8935  17.591  15.452   9.593  0.2667 -0.0725  0.0890
  559loPI   C2A 8936  17.816  15.546   9.156  0.0323  0.0966  0.0059
  559loPI   C3A 8937  17.865  15.766   8.779  0.2116  0.1417 -0.3203
  559loPI   C4A 8938  17.873  15.747   8.444  0.1990  0.2950  0.2237
  559loPI   C5A 8939  17.879  15.912   8.162 -0.0237  0.0893  0.2359
  559loPI   C6A 8940  17.589  15.958   7.866  0.0538 -0.1700 -0.0066
  559loPI   C1B 8941  18.048  15.509   9.632 -0.0196 -0.3068 -0.0496
  559loPI   C2B 8942  18.231  15.544   9.382 -0.3173 -0.1224  0.2114
  559loPI   C3B 8943  18.366  15.539   8.948 -0.0454  0.0192  0.0037
  559loPI   C4B 8944  18.315  15.509   8.532  0.0629 -0.3304  0.3313
  560loPI    C1 8945  11.281  14.937  10.927 -0.1114 -0.2921  0.0488
  560loPI    C2 8946  11.177  14.941  11.313  0.2462 -0.1865  0.1478
  560loPI    C3 8947  11.346  14.615  11.155 -0.1949 -0.3483 -0.0061
  560loPI   PO4 8948  11.127  15.021  10.798  0.1758  0.1121 -0.3900
  560loPI   GL1 8949  11.096  15.255  10.382 -0.1016 -0.0772 -0.1256
  560loPI   GL2 8950  11.306  15.037  10.349  0.1323 -0.0790  0.0612
  560loPI   C1A 8951  11.114  15.309   9.881 -0.1054  0.1045  0.0862
  560loPI   C2A 8952  11.132  15.247   9.451 -0.0765  0.0479  0.0473
  560loPI   C3A 8953  11.151  15.270   9.023 -0.2360  0.3321 -0.1657
  560loPI   C4A 8954  11.054  15.268   8.518 -0.1453 -0.0749  0.1663
  560loPI   C5A 8955  11.163  15.232   8.112 -0.0753 -0.0575 -0.3013
  560loPI   C6A 8956  11.241  15.335   7.780  0.2021  0.0141 -0.0453
  560loPI   C1B 8957  11.537  14.991   9.971  0.0409 -0.0989  0.0680
  560loPI   C2B 8958  11.582  15.055   9.502 -0.2066 -0.2243  0.1492
  560loPI   C3B 8959  11.631  15.033   8.955 -0.1301  0.1071 -0.0690
  560loPI   C4B 8960  11.552  15.039   8.481  0.3392  0.0344  0.0341
  561loPI    C1 8961   6.399  17.220  10.612  0.1704  0.0503 -0.1590
  561loPI    C2 8962   6.142  17.510  10.514  0.1791  0.0472 -0.1913
  561loPI    C3 8963   6.416  17.573  10.798  0.1380  0.0483 -0.1520
  561loPI   PO4 8964   6.426  17.128  10.380  0.2142 -0.1719 -0.0507
  561loPI   GL1 8965   6.450  17.017   9.879  0.0852 -0.0617 -0.0802
  561loPI   GL2 8966   6.278  17.350   9.934  0.0925 -0.0482  0.0040
  561loPI   C1A 8967   6.337  16.837   9.455 -0.3292 -0.0099  0.1167
  561loPI   C2A 8968   6.395  16.719   8.995 -0.4096  0.2155  0.3032
  561loPI   C3A 8969   6.302  16.703   8.539  0.0052  0.0688  0.1058
  561loPI   C4A 8970   6.328  16.534   8.039 -0.1340 -0.1710  0.0471
  561loPI   C5A 8971   6.566  16.436   7.577 -0.1197  0.0631  0.0724
  561loPI   C6A 8972   6.585  16.644   7.178  0.0497  0.1370 -0.1934
  561loPI   C1B 8973   6.200  17.292   9.483  0.1716  0.5603  0.1721
  561loPI   C2B 8974   6.272  17.229   9.085 -0.0012  0.1220  0.0770
  561loPI   C3B 8975   6.239  17.249   8.596  0.2970  0.1919  0.2592
  561loPI   C4B 8976   6.282  17.134   8.159 -0.1198 -0.2083  0.0685
  562loPI    C1 8977   9.229  14.525  11.252  0.0034 -0.0617  0.0382
  562loPI    C2 8978   9.571  14.330  11.323  0.1715  0.2220  0.0238
  562loPI    C3 8979   9.576  14.725  11.262 -0.1513  0.2160 -0.0564
  562loPI   PO4 8980   9.099  14.392  10.961  0.1801  0.0912 -0.0257
  562loPI   GL1 8981   9.035  14.471  10.503  0.2526 -0.1386 -0.0144
  562loPI   GL2 8982   8.828  14.694  10.429 -0.0225 -0.1462 -0.2961
  562loPI   C1A 8983   8.957  14.167  10.196  0.0750  0.2581  0.1277
  562loPI   C2A 8984   8.940  14.176   9.712 -0.2020 -0.1997  0.3970
  562loPI   C3A 8985   8.896  14.097   9.264 -0.2290  0.0080 -0.0529
  562loPI   C4A 8986   8.999  14.197   8.793 -0.1936 -0.1771 -0.0295
  562loPI   C5A 8987   8.950  14.122   8.454  0.0517 -0.1042  0.3305
  562loPI   C6A 8988   8.998  13.911   8.132  0.3242  0.1404 -0.1957
  562loPI   C1B 8989   8.836  14.738   9.900  0.0863 -0.2200  0.0093
  562loPI   C2B 8990   8.807  14.807   9.432 -0.2238  0.3310 -0.1615
  562loPI   C3B 8991   8.775  14.716   9.007 -0.2866 -0.1191  0.1383
  562loPI   C4B 8992   8.944  14.677   8.585 -0.0065  0.0692  0.3715
  563loPI    C1 8993   7.327  15.748  10.867 -0.1902  0.0734  0.1521
  563loPI    C2 8994   7.663  15.647  10.675 -0.1155  0.1545  0.2390
  563loPI    C3 8995   7.559  15.455  11.011 -0.2353  0.0268  0.1303
  563loPI   PO4 8996   7.161  15.777  10.646  0.1496  0.0551  0.1670
  563loPI   GL1 8997   7.157  15.802  10.265 -0.0431  0.1906 -0.1439
  563loPI   GL2 8998   6.824  15.805  10.151  0.2736  0.1823  0.2909
  563loPI   C1A 8999   7.315  15.774   9.835 -0.0090  0.0595 -0.2997
  563loPI   C2A 9000   7.409  15.775   9.550 -0.1221 -0.1764 -0.0671
  563loPI   C3A 9001   7.364  15.830   9.111  0.0861 -0.0154  0.2669
  563loPI   C4A 9002   7.392  15.739   8.709 -0.0701 -0.0787  0.3619
  563loPI   C5A 9003   7.365  15.785   8.247 -0.3107  0.0451  0.2487
  563loPI   C6A 9004   7.230  15.973   7.874  0.0839 -0.2227  0.0570
  563loPI   C1B 9005   6.780  15.511   9.762  0.0081  0.3673 -0.0196
  563loPI   C2B 9006   6.793  15.567   9.273 -0.1767  0.3710 -0.0930
  563loPI   C3B 9007   6.952  15.596   8.905 -0.0704  0.0205  0.0917
  563loPI   C4B 9008   6.910  15.445   8.446  0.1570  0.1083 -0.0070
  564loPI    C1 9009   1.089   6.856  10.850 -0.0161  0.1020 -0.1611
  564loPI    C2 9010   0.914   7.017  11.172 -0.2177  0.1510 -0.2931
  564loPI    C3 9011   1.232   6.778  11.215 -0.1689  0.2544 -0.0673
  564loPI   PO4 9012   0.915   6.760  10.702  0.3353 -0.0484 -0.2706
  564loPI   GL1 9013   0.976   6.587  10.305 -0.0648 -0.1498  0.1473
  564loPI   GL2 9014   1.213   6.860  10.262  0.2608 -0.1522 -0.0779
  564loPI   C1A 9015   0.821   6.585   9.876 -0.0673  0.0443  0.2386
  564loPI   C2A 9016   0.755   6.612   9.445  0.4536 -0.0919  0.0301
  564loPI   C3A 9017   0.865   6.553   8.991 -0.1797  0.2808 -0.1632
  564loPI   C4A 9018   0.787   6.659   8.682  0.1976 -0.0441  0.0656
  564loPI   C5A 9019   0.751   6.790   8.299 -0.0656  0.3321 -0.2024
  564loPI   C6A 9020   0.444   6.835   7.931 -0.0522  0.1555 -0.0791
  564loPI   C1B 9021   1.273   6.868   9.853  0.3200 -0.1950  0.0397
  564loPI   C2B 9022   1.055   7.091   9.602 -0.3269  0.1643  0.0525
  564loPI   C3B 9023   1.091   7.074   9.208  0.4470  0.1516  0.1386
  564loPI   C4B 9024   1.136   7.027   8.803  0.2318 -0.1771 -0.0077
  565loPI    C1 9025  14.121  12.742  10.912 -0.2936  0.1593  0.0362
  565loPI    C2 9026  14.263  12.941  11.228 -0.0613 -0.0979  0.0978
  565loPI    C3 9027  14.482  12.653  11.058 -0.2539 -0.0755 -0.1965
  565loPI   PO4 9028  13.941  12.965  10.822 -0.0243  0.1097 -0.0871
  565loPI   GL1 9029  14.073  13.144  10.428 -0.5112 -0.1287  0.2143
  565loPI   GL2 9030  13.812  13.024  10.264  0.2298 -0.0741  0.0701
  565loPI   C1A 9031  14.428  13.226  10.032 -0.1820  0.1433  0.2482
  565loPI   C2A 9032  14.307  13.302   9.604 -0.0393  0.1710 -0.1734
  565loPI   C3A 9033  14.375  13.252   9.171  0.0071  0.0962  0.0281
  565loPI   C4A 9034  14.456  13.221   8.778  0.1467 -0.1328 -0.0151
  565loPI   C5A 9035  14.377  13.362   8.389 -0.5462 -0.1554 -0.0357
  565loPI   C6A 9036  14.041  13.150   8.099  0.0234  0.1987  0.1744
  565loPI   C1B 9037  13.969  12.949   9.881  0.2505 -0.0133 -0.4817
  565loPI   C2B 9038  13.952  13.001   9.453  0.1555  0.1016 -0.1398
  565loPI   C3B 9039  13.995  13.014   8.986 -0.0624  0.2421  0.0850
  565loPI   C4B 9040  14.078  12.964   8.570  0.0730  0.0677 -0.0708
  566loPI    C1 9041   6.595   6.929  11.313 -0.0807  0.0594 -0.1554
  566loPI    C2 9042   6.897   7.186  11.369  0.0470 -0.1437  0.1127
  566loPI    C3 9043   6.566   7.213  11.592 -0.1921  0.1570 -0.2654
  566loPI   PO4 9044   6.514   6.798  11.029  0.1426 -0.2951 -0.2756
  566loPI   GL1 9045   6.694   6.647  10.694  0.3384 -0.0708 -0.2042
  566loPI   GL2 9046   6.391   6.503  10.622 -0.0528 -0.1109 -0.0607
  566loPI   C1A 9047   6.686   6.644  10.224  0.0533  0.1679 -0.1549
  566loPI   C2A 9048   6.618   6.626   9.815  0.1768  0.0437 -0.0654
  566loPI   C3A 9049   6.582   6.672   9.311  0.0748 -0.1473 -0.1133
  566loPI   C4A 9050   6.675   6.611   8.860 -0.3804 -0.3045 -0.0772
  566loPI   C5A 9051   6.837   6.623   8.506 -0.0992 -0.0835 -0.1562
  566loPI   C6A 9052   7.144   6.750   8.119  0.1305 -0.2229  0.0934
  566loPI   C1B 9053   6.305   6.258  10.250  0.2421  0.2512  0.2016
  566loPI   C2B 9054   6.302   6.235   9.812  0.2787  0.2815 -0.0732
  566loPI   C3B 9055   6.359   6.216   9.404 -0.2678 -0.3366  0.0487
  566loPI   C4B 9056   6.347   6.263   8.978 -0.3049  0.0771 -0.0389
  567loPI    C1 9057  18.144  14.744  10.506  0.0895  0.0658  0.0788
  567loPI    C2 9058  17.768  14.691  10.633  0.1629 -0.0882  0.2373
  567loPI    C3 9059  18.073  14.644  10.887  0.2880  0.0806  0.1207
  567loPI   PO4 9060  18.195  14.585  10.287 -0.2843  0.3240  0.1503
  567loPI   GL1 9061  18.058  14.484   9.910 -0.0461  0.4731  0.1040
  567loPI   GL2 9062  18.195  14.190   9.720 -0.0390  0.1904 -0.2163
  567loPI   C1A 9063  17.788  14.571   9.562  0.0330 -0.3910 -0.1378
  567loPI   C2A 9064  17.722  14.668   9.113  0.2144 -0.0641 -0.2384
  567loPI   C3A 9065  17.483  14.842   8.728  0.1465  0.0639  0.0152
  567loPI   C4A 9066  17.560  14.796   8.227 -0.0223  0.1817 -0.1214
  567loPI   C5A 9067  17.835  15.018   7.941 -0.1802 -0.0087 -0.1625
  567loPI   C6A 9068  17.865  15.131   7.525 -0.2046 -0.0228  0.1102
  567loPI   C1B 9069  18.087  14.096   9.254  0.1751  0.0992  0.0567
  567loPI   C2B 9070  18.160  14.039   8.815  0.2763 -0.1752  0.1159
  567loPI   C3B 9071  18.185  14.181   8.303  0.0645  0.0670 -0.3058
  567loPI   C4B 9072  18.237  14.282   7.895 -0.3736  0.3566 -0.2310
  568loPI    C1 9073  16.688  13.828  10.412 -0.2085  0.1183 -0.0203
  568loPI    C2 9074  16.467  14.031  10.676 -0.1766  0.2461 -0.0910
  568loPI    C3 9075  16.853  14.123  10.626 -0.0335 -0.1513  0.2242
  568loPI   PO4 9076  16.471  13.756  10.200 -0.2045  0.2396 -0.0980
  568loPI   GL1 9077  16.251  13.724   9.752  0.3515  0.1523  0.2090
  568loPI   GL2 9078  16.179  14.087   9.816  0.0027 -0.0523  0.1536
  568loPI   C1A 9079  16.131  13.870   9.353  0.0898  0.0316  0.0458
  568loPI   C2A 9080  16.133  13.974   8.915  0.1020 -0.3544  0.0793
  568loPI   C3A 9081  16.166  13.876   8.459  0.2928  0.0421  0.1990
  568loPI   C4A 9082  16.270  13.731   8.043  0.0546  0.0808  0.2007
  568loPI   C5A 9083  16.416  13.417   7.894  0.1793 -0.0004  0.3902
  568loPI   C6A 9084  16.815  13.159   7.831  0.0480 -0.1163 -0.1157
  568loPI   C1B 9085  16.530  14.167   9.479 -0.1682 -0.2160  0.1343
  568loPI   C2B 9086  16.652  14.203   9.045  0.1440  0.1192  0.4155
  568loPI   C3B 9087  16.669  14.301   8.606 -0.1534 -0.1737  0.1505
  568loPI   C4B 9088  16.917  14.228   8.207 -0.2248  0.2002  0.1999
  569loPI    C1 9089  13.306   1.248  10.866  0.0850 -0.1792 -0.0501
  569loPI    C2 9090  13.481   1.143  11.210  0.0862 -0.0389 -0.0075
  569loPI    C3 9091  13.609   1.465  11.011 -0.0049 -0.0402 -0.0687
  569loPI   PO4 9092  13.255   1.094  10.719 -0.1625 -0.4730 -0.2256
  569loPI   GL1 9093  13.231   1.094  10.243  0.1578  0.0320 -0.1056
  569loPI   GL2 9094  13.328   0.791  10.077 -0.1486  0.0405  0.0718
  569loPI   C1A 9095  13.241   1.194   9.842  0.1141 -0.1468 -0.2325
  569loPI   C2A 9096  13.196   1.240   9.424 -0.1359 -0.3154 -0.2295
  569loPI   C3A 9097  13.277   1.299   9.002 -0.1558  0.2512  0.0964
  569loPI   C4A 9098  13.252   1.337   8.576  0.3970 -0.2247  0.2272
  569loPI   C5A 9099  13.330   1.576   8.172 -0.1673  0.1938 -0.1516
  569loPI   C6A 9100  13.084   1.651   7.772 -0.0179 -0.3109 -0.2022
  569loPI   C1B 9101  13.308   0.739   9.599 -0.0171 -0.1314 -0.1340
  569loPI   C2B 9102  13.365   0.835   9.217  0.1094  0.2109  0.2388
  569loPI   C3B 9103  13.384   0.821   8.718 -0.1469 -0.2409  0.1504
  569loPI   C4B 9104  13.259   0.856   8.270 -0.3416  0.3507 -0.1640
  570loPI    C1 9105  11.183  10.314  10.814 -0.2398  0.2121  0.0006
  570loPI    C2 9106  11.202  10.561  11.128  0.2114  0.1334  0.0419
  570loPI    C3 9107  11.240  10.166  11.181  0.0611  0.1008 -0.0875
  570loPI   PO4 9108  11.026  10.488  10.655 -0.2616 -0.1760 -0.3328
  570loPI   GL1 9109  10.746  10.552  10.262 -0.2641 -0.1005  0.0379
  570loPI   GL2 9110  11.030  10.706  10.110 -0.1344  0.0670  0.2527
  570loPI   C1A 9111  10.830  10.315   9.816 -0.0850 -0.0081 -0.0378
  570loPI   C2A 9112  10.764  10.290   9.390 -0.1556  0.0833  0.0634
  570loPI   C3A 9113  11.000  10.328   8.982 -0.1104 -0.0937 -0.0173
  570loPI   C4A 9114  10.814  10.219   8.552  0.4538  0.0975  0.2189
  570loPI   C5A 9115  10.660  10.248   8.218  0.1573  0.3378  0.0124
  570loPI   C6A 9116  10.595  10.427   7.795 -0.0866  0.2529  0.0645
  570loPI   C1B 9117  11.053  10.726   9.678  0.2370 -0.0879 -0.3112
  570loPI   C2B 9118  11.098  10.734   9.277 -0.0371  0.0116  0.0164
  570loPI   C3B 9119  11.075  10.780   8.962  0.1840 -0.0570 -0.2635
  570loPI   C4B 9120  11.056  10.663   8.533  0.2672 -0.2038  0.0071
  571loPI    C1 9121   6.355   4.410  10.653 -0.3066  0.0979 -0.0960
  571loPI    C2 9122   6.365   4.634  10.984 -0.3143 -0.0358 -0.0047
  571loPI    C3 9123   6.399   4.236  11.010  0.2934 -0.0088 -0.2106
  571loPI   PO4 9124   6.590   4.474  10.509  0.0214  0.3024  0.2567
  571loPI   GL1 9125   6.576   4.297  10.111  0.1565 -0.2276 -0.2991
  571loPI   GL2 9126   6.305   4.163  10.132  0.2178  0.0101  0.0294
  571loPI   C1A 9127   6.464   4.364   9.700  0.0713 -0.0766 -0.2461
  571loPI   C2A 9128   6.402   4.480   9.313 -0.0300  0.1466 -0.0742
  571loPI   C3A 9129   6.389   4.348   8.999  0.0661  0.2120  0.2680
  571loPI   C4A 9130   6.387   4.405   8.562  0.0236  0.1483  0.2968
  571loPI   C5A 9131   6.299   4.601   8.113  0.0156  0.0956  0.1459
  571loPI   C6A 9132   6.649   4.958   7.975 -0.1079 -0.0546 -0.2027
  571loPI   C1B 9133   6.230   3.947   9.860  0.2411  0.0935  0.0563
  571loPI   C2B 9134   6.260   3.934   9.430 -0.0037 -0.2946 -0.1582
  571loPI   C3B 9135   6.170   3.914   8.972 -0.1027  0.1405  0.3214
  571loPI   C4B 9136   6.168   3.951   8.565 -0.0597 -0.1355  0.0574
  572loPI    C1 9137   6.262  10.961  11.035 -0.2545 -0.2384 -0.0662
  572loPI    C2 9138   6.593  10.834  11.222 -0.1098  0.0822 -0.0985
  572loPI    C3 9139   6.244  10.845  11.418 -0.0963 -0.2200 -0.0526
  572loPI   PO4 9140   6.322  10.809  10.808  0.2176  0.2556 -0.0434
  572loPI   GL1 9141   6.604  10.761  10.449 -0.5347 -0.1807 -0.1476
  572loPI   GL2 9142   6.500  10.467  10.442 -0.1911 -0.1725  0.2095
  572loPI   C1A 9143   6.764  10.728  10.087 -0.2606  0.1527 -0.0197
  572loPI   C2A 9144   6.750  10.624   9.651 -0.1421  0.2381  0.0221
  572loPI   C3A 9145   6.725  10.616   9.258  0.0096 -0.0200 -0.1637
  572loPI   C4A 9146   6.714  10.753   8.892  0.0064  0.0830 -0.1288
  572loPI   C5A 9147   6.576  10.632   8.478  0.0200  0.0177 -0.3069
  572loPI   C6A 9148   6.495  10.274   8.284 -0.1483 -0.1984 -0.2044
  572loPI   C1B 9149   6.491  10.316  10.049  0.2115  0.0508  0.0997
  572loPI   C2B 9150   6.459  10.258   9.659  0.1597 -0.0270  0.2598
  572loPI   C3B 9151   6.501  10.186   9.242 -0.0329  0.2678 -0.1055
  572loPI   C4B 9152   6.481  10.297   8.833 -0.2103  0.3712  0.1235
  573loPI    C1 9153   0.898  18.227  10.627 -0.2498 -0.1270 -0.0421
  573loPI    C2 9154   0.715  18.494  10.861  0.0255  0.1443 -0.1289
  573loPI    C3 9155   0.946  18.211  11.024 -0.0751  0.1060 -0.0513
  573loPI   PO4 9156   0.950  18.342  10.403  0.0038  0.0722 -0.0374
  573loPI   GL1 9157   0.870  18.116  10.068 -0.4218 -0.1059 -0.0922
  573loPI   GL2 9158   0.684  18.148   9.919 -0.1128  0.0537  0.4120
  573loPI   C1A 9159   0.979  18.254   9.580 -0.1298  0.1958  0.4272
  573loPI   C2A 9160   0.909  18.275   9.137 -0.1508  0.3117  0.1494
  573loPI   C3A 9161   0.646  18.061   8.865 -0.2105  0.0795 -0.2379
  573loPI   C4A 9162   0.560  18.077   8.493 -0.0653  0.0261  0.3111
  573loPI   C5A 9163   0.489  18.038   8.035 -0.0022 -0.1864  0.1151
  573loPI   C6A 9164   0.430  18.218   7.708  0.0428 -0.2365 -0.2001
  573loPI   C1B 9165   0.509  18.136   9.502 -0.0863  0.0650 -0.1655
  573loPI   C2B 9166   0.365  17.866   9.170 -0.0123  0.3645 -0.0497
  573loPI   C3B 9167   0.153  17.803   8.739  0.2464  0.1675  0.0883
  573loPI   C4B 9168   0.171  17.747   8.300 -0.0546 -0.4665 -0.0233
  574loPI    C1 9169   2.395  14.282  10.513 -0.0558  0.0208 -0.0015
  574loPI    C2 9170   2.178  14.180  10.833  0.0758  0.2673  0.1698
  574loPI    C3 9171   2.574  14.120  10.831  0.0024 -0.2862 -0.1860
  574loPI   PO4 9172   2.202  14.146  10.293  0.2579 -0.2433 -0.1581
  574loPI   GL1 9173   2.161  14.108   9.885 -0.0949  0.0328 -0.1989
  574loPI   GL2 9174   2.531  13.971   9.897 -0.1202  0.0487  0.0270
  574loPI   C1A 9175   2.153  14.066   9.415 -0.3578 -0.1911 -0.1025
  574loPI   C2A 9176   2.114  14.135   8.957  0.0622  0.0403  0.1987
  574loPI   C3A 9177   2.049  14.119   8.516 -0.0434  0.2235  0.4463
  574loPI   C4A 9178   2.041  14.058   8.091  0.1066 -0.0567 -0.1213
  574loPI   C5A 9179   2.157  14.267   7.755 -0.0979  0.4007 -0.2299
  574loPI   C6A 9180   2.121  14.581   7.477  0.0774 -0.2673 -0.0352
  574loPI   C1B 9181   2.608  13.873   9.438 -0.3555  0.3246  0.0263
  574loPI   C2B 9182   2.568  13.812   8.949 -0.0193  0.1668  0.0683
  574loPI   C3B 9183   2.611  13.953   8.461  0.2248 -0.0078 -0.0714
  574loPI   C4B 9184   2.908  14.167   8.216 -0.0086  0.0491  0.4196
  575loPI    C1 9185  13.956  10.652  11.210  0.2651  0.1972  0.1236
  575loPI    C2 9186  14.001  10.351  11.469 -0.0212 -0.0153 -0.0685
  575loPI    C3 9187  13.858  10.702  11.595  0.1142 -0.0247  0.1158
  575loPI   PO4 9188  13.721  10.524  10.923 -0.1200  0.1379 -0.1018
  575loPI   GL1 9189  13.542  10.539  10.380  0.0266  0.1058  0.0533
  575loPI   GL2 9190  13.833  10.347  10.448  0.0279 -0.1717  0.1070
  575loPI   C1A 9191  13.417  10.319  10.116 -0.0485 -0.0274  0.3677
  575loPI   C2A 9192  13.421  10.318   9.585 -0.1494 -0.3141 -0.0254
  575loPI   C3A 9193  13.446  10.347   9.205  0.4499  0.0299  0.0340
  575loPI   C4A 9194  13.442  10.242   8.727  0.1704 -0.0803 -0.0446
  575loPI   C5A 9195  13.416  10.353   8.298  0.0341  0.1993 -0.1314
  575loPI   C6A 9196  13.307  10.663   8.006  0.1706 -0.1596 -0.3639
  575loPI   C1B 9197  13.896  10.393   9.986 -0.3096 -0.3343  0.1145
  575loPI   C2B 9198  13.880  10.297   9.481 -0.2548  0.1698  0.4483
  575loPI   C3B 9199  13.956  10.310   9.085  0.1244 -0.0888  0.2404
  575loPI   C4B 9200  13.919  10.272   8.671 -0.2188  0.1402  0.1376
  576loPI    C1 9201  16.255   9.448  10.609  0.0024  0.1811  0.0797
  576loPI    C2 9202  16.607   9.622  10.532  0.1328 -0.0744  0.0900
  576loPI    C3 9203  16.351   9.794  10.787  0.2695  0.0894  0.1184
  576loPI   PO4 9204  16.242   9.301  10.348 -0.1900  0.0067  0.1229
  576loPI   GL1 9205  16.579   9.240  10.103  0.0453 -0.3255  0.3257
  576loPI   GL2 9206  16.390   9.498   9.918 -0.0207  0.0061  0.1863
  576loPI   C1A 9207  16.972   9.381   9.793 -0.0717 -0.3061 -0.1867
  576loPI   C2A 9208  16.998   9.333   9.400 -0.2150  0.1552  0.0175
  576loPI   C3A 9209  17.140   9.329   9.003  0.0876 -0.0201 -0.0185
  576loPI   C4A 9210  17.217   9.493   8.602 -0.0302 -0.0872 -0.1766
  576loPI   C5A 9211  17.332   9.522   8.144 -0.2730 -0.1681  0.0741
  576loPI   C6A 9212  17.223   9.342   7.868 -0.3211  0.0649 -0.0654
  576loPI   C1B 9213  16.470   9.412   9.475  0.2985 -0.1858 -0.0356
  576loPI   C2B 9214  16.603   9.339   8.949  0.1371 -0.0477  0.0115
  576loPI   C3B 9215  16.654   9.477   8.539 -0.5167 -0.1409 -0.2291
  576loPI   C4B 9216  16.732   9.434   8.071 -0.1981 -0.0667 -0.0789
  577loPI    C1 9217  15.938  15.989  10.772 -0.1539  0.1868  0.3013
  577loPI    C2 9218  16.150  15.667  10.879 -0.2064  0.0714  0.0667
  577loPI    C3 9219  16.250  16.029  11.019 -0.0525 -0.0250  0.2103
  577loPI   PO4 9220  15.907  15.895  10.494 -0.1610  0.2295  0.1124
  577loPI   GL1 9221  15.756  15.735  10.136  0.1213  0.0242  0.2081
  577loPI   GL2 9222  15.595  15.710   9.869 -0.4000 -0.1260 -0.0133
  577loPI   C1A 9223  15.980  16.036   9.892  0.1406 -0.1143 -0.3344
  577loPI   C2A 9224  15.973  16.058   9.401  0.0749 -0.0689  0.0644
  577loPI   C3A 9225  16.074  15.988   8.932 -0.0490 -0.0959 -0.3280
  577loPI   C4A 9226  15.971  16.090   8.534  0.0944  0.1417  0.1772
  577loPI   C5A 9227  15.992  16.089   8.178  0.0778  0.3335 -0.0149
  577loPI   C6A 9228  16.092  16.238   7.787  0.2370  0.1791  0.0124
  577loPI   C1B 9229  15.504  15.739   9.478 -0.1429 -0.1047  0.1966
  577loPI   C2B 9230  15.595  15.725   9.083 -0.1678 -0.1173  0.1184
  577loPI   C3B 9231  15.545  15.769   8.577 -0.1606  0.0494  0.3163
  577loPI   C4B 9232  15.740  15.686   8.169 -0.0278  0.0334 -0.1470
  578loPI    C1 9233   2.256   5.813  10.971 -0.0766 -0.1953 -0.1299
  578loPI    C2 9234   1.975   6.073  11.087  0.0712 -0.0947  0.0074
  578loPI    C3 9235   2.285   5.994  11.326  0.0351 -0.3888 -0.0390
  578loPI   PO4 9236   2.266   5.873  10.697 -0.0061  0.1341 -0.3719
  578loPI   GL1 9237   2.238   6.133  10.298  0.2316 -0.2697  0.0111
  578loPI   GL2 9238   2.287   6.414  10.305 -0.2172 -0.1296 -0.0842
  578loPI   C1A 9239   2.163   6.140   9.838  0.0277  0.0720  0.0553
  578loPI   C2A 9240   2.198   6.081   9.427 -0.0522  0.1769 -0.0984
  578loPI   C3A 9241   2.060   6.168   8.949 -0.1487 -0.3237 -0.1181
  578loPI   C4A 9242   2.075   6.117   8.574  0.2599  0.0529  0.1346
  578loPI   C5A 9243   2.037   6.237   8.140 -0.1043  0.0496  0.2713
  578loPI   C6A 9244   1.821   6.091   7.837 -0.0572  0.0035  0.4945
  578loPI   C1B 9245   2.425   6.576   9.856 -0.0858  0.0310  0.2388
  578loPI   C2B 9246   2.426   6.580   9.456  0.1675 -0.2409  0.0665
  578loPI   C3B 9247   2.360   6.604   9.004  0.2276 -0.2489 -0.1693
  578loPI   C4B 9248   2.350   6.610   8.540 -0.1206 -0.3401 -0.3090
  579loPI    C1 9249  10.651  15.271  10.681 -0.1291  0.2145 -0.1669
  579loPI    C2 9250  10.318  15.317  10.898  0.0368  0.1073  0.1172
  579loPI    C3 9251  10.464  14.951  10.832 -0.0131  0.1386 -0.1825
  579loPI   PO4 9252  10.633  15.401  10.545  0.0633  0.0973  0.0147
  579loPI   GL1 9253  10.703  15.467  10.089 -0.2127  0.0529 -0.0483
  579loPI   GL2 9254  10.709  15.092  10.097  0.0988  0.2177 -0.1627
  579loPI   C1A 9255  10.585  15.481   9.684 -0.1010 -0.1144  0.0108
  579loPI   C2A 9256  10.689  15.445   9.230  0.0735 -0.2082 -0.0295
  579loPI   C3A 9257  10.580  15.434   8.746 -0.0643  0.0032 -0.0724
  579loPI   C4A 9258  10.637  15.433   8.234 -0.0100  0.0694 -0.0337
  579loPI   C5A 9259  10.762  15.665   7.863  0.0991 -0.0816  0.1618
  579loPI   C6A 9260  11.081  15.719   7.521 -0.3055 -0.0763 -0.0198
  579loPI   C1B 9261  10.670  14.955   9.748 -0.2798  0.1046  0.3609
  579loPI   C2B 9262  10.769  14.964   9.330 -0.1845 -0.0883 -0.0790
  579loPI   C3B 9263  10.643  14.940   8.863 -0.1314 -0.3687 -0.2435
  579loPI   C4B 9264  10.692  14.944   8.469 -0.3245 -0.0152 -0.0823
  580loPI    C1 9265   8.599  11.368  10.734 -0.0254 -0.0595  0.0951
  580loPI    C2 9266   8.623  11.005  10.900 -0.0022 -0.0674  0.0747
  580loPI    C3 9267   8.918  11.270  10.955  0.0237 -0.0836  0.0141
  580loPI   PO4 9268   8.583  11.339  10.463  0.0203  0.0161  0.0256
  580loPI   GL1 9269   8.544  11.216  10.094  0.1706  0.0324 -0.1947
  580loPI   GL2 9270   8.754  11.006  10.129  0.1787  0.1443 -0.1842
  580loPI   C1A 9271   8.541  11.138   9.705 -0.0213  0.0741 -0.1451
  580loPI   C2A 9272   8.438  11.264   9.189  0.1825 -0.1479  0.0527
  580loPI   C3A 9273   8.333  11.393   8.799 -0.0753  0.0357 -0.1777
  580loPI   C4A 9274   8.452  11.377   8.436  0.0625  0.2804  0.3031
  580loPI   C5A 9275   8.349  11.483   7.974  0.0650  0.3497  0.0053
  580loPI   C6A 9276   7.997  11.639   7.694 -0.0596 -0.0197 -0.2095
  580loPI   C1B 9277   8.856  10.730   9.749  0.0430  0.0910  0.1310
  580loPI   C2B 9278   8.945  10.686   9.257  0.2467 -0.0606  0.0061
  580loPI   C3B 9279   9.113  10.817   8.866 -0.1903  0.0584  0.3681
  580loPI   C4B 9280   9.186  10.681   8.514  0.2413  0.1477 -0.0396
  581loPI    C1 9281   3.844   0.522  10.496 -0.0965 -0.3214 -0.0259
  581loPI    C2 9282   3.598   0.337  10.751  0.0574 -0.2474  0.1792
  581loPI    C3 9283   3.707   0.716  10.818  0.2520 -0.2897  0.1080
  581loPI   PO4 9284   3.767   0.446  10.275  0.0691  0.0439  0.1067
  581loPI   GL1 9285   3.935   0.531   9.889  0.2400 -0.3635  0.0154
  581loPI   GL2 9286   4.184   0.318   9.710 -0.2317  0.0571  0.3924
  581loPI   C1A 9287   3.745   0.476   9.382  0.0631 -0.1517 -0.1768
  581loPI   C2A 9288   3.739   0.465   8.917 -0.0711  0.0397  0.2960
  581loPI   C3A 9289   3.784   0.374   8.480 -0.2087  0.1386 -0.0565
  581loPI   C4A 9290   3.650   0.395   8.051  0.4493 -0.3566 -0.0026
  581loPI   C5A 9291   3.686   0.289   7.606  0.1515  0.1850  0.0528
  581loPI   C6A 9292   3.616   0.356   7.267 -0.3012 -0.0816  0.0805
  581loPI   C1B 9293   4.192   0.261   9.274  0.0828 -0.2887 -0.0583
  581loPI   C2B 9294   4.200   0.176   8.871  0.1672 -0.0499  0.0762
  581loPI   C3B 9295   4.267   0.127   8.444 -0.2218  0.1255  0.1474
  581loPI   C4B 9296   4.227   0.074   8.034 -0.1274  0.1411  0.1112
  582loPI    C1 9297   0.625   3.246  10.561  0.0868 -0.0695  0.1444
  582loPI    C2 9298   0.759   3.291  10.935  0.0013  0.1394  0.1509
  582loPI    C3 9299   0.635   3.610  10.726  0.0028  0.0175 -0.0386
  582loPI   PO4 9300   0.771   3.067  10.374 -0.0363 -0.1029 -0.0864
  582loPI   GL1 9301   0.915   3.144   9.895  0.1031  0.0523  0.3473
  582loPI   GL2 9302   0.818   3.029   9.643  0.1845 -0.1089 -0.0548
  582loPI   C1A 9303   1.001   3.464   9.530 -0.0880  0.0343  0.1161
  582loPI   C2A 9304   1.086   3.471   9.134  0.1646 -0.0717  0.0140
  582loPI   C3A 9305   1.007   3.636   8.672 -0.0988 -0.3287 -0.0705
  582loPI   C4A 9306   1.016   3.641   8.258  0.0197 -0.4955  0.2390
  582loPI   C5A 9307   0.773   3.563   7.913  0.2997  0.1608 -0.3300
  582loPI   C6A 9308   0.472   3.637   7.629  0.0504  0.0718  0.1986
  582loPI   C1B 9309   0.743   3.109   9.172 -0.0186 -0.1257 -0.0488
  582loPI   C2B 9310   0.797   3.125   8.762 -0.0364 -0.1243 -0.1904
  582loPI   C3B 9311   0.961   3.182   8.346 -0.6571  0.0864 -0.0844
  582loPI   C4B 9312   0.983   3.159   7.967 -0.2506 -0.0608  0.1482
  583loPI    C1 9313   1.602   0.666  10.484 -0.0523 -0.1490  0.0726
  583loPI    C2 9314   1.247   0.652  10.300 -0.0234 -0.0089  0.0045
  583loPI    C3 9315   1.339   0.964  10.533  0.1382  0.0606 -0.1500
  583loPI   PO4 9316   1.727   0.644  10.246  0.3361  0.1449 -0.2052
  583loPI   GL1 9317   1.670   0.544   9.907  0.2748  0.0961  0.3598
  583loPI   GL2 9318   1.622   0.210  10.035 -0.1725 -0.0522  0.0036
  583loPI   C1A 9319   1.695   0.520   9.382 -0.0546 -0.1027 -0.1250
  583loPI   C2A 9320   1.692   0.474   9.011  0.3457 -0.0857  0.0310
  583loPI   C3A 9321   1.854   0.601   8.555 -0.0632  0.1898 -0.1809
  583loPI   C4A 9322   1.818   0.695   8.114  0.1580  0.5136 -0.0110
  583loPI   C5A 9323   1.486   0.681   7.757  0.1383 -0.0427  0.0091
  583loPI   C6A 9324   1.225   1.085   7.572 -0.0701 -0.0734  0.0527
  583loPI   C1B 9325   1.931   0.123   9.651  0.0884 -0.0820  0.0873
  583loPI   C2B 9326   1.991   0.138   9.229  0.0447 -0.0759  0.0602
  583loPI   C3B 9327   2.051   0.191   8.805 -0.1752 -0.1559 -0.1135
  583loPI   C4B 9328   1.954   0.049   8.435 -0.1884 -0.2002  0.0706
  584loPI    C1 9329   8.721   6.140  10.764  0.1881 -0.0422 -0.0156
  584loPI    C2 9330   9.021   5.886  10.840  0.0945 -0.2031 -0.1726
  584loPI    C3 9331   8.720   5.925  11.101  0.1193 -0.2377 -0.1386
  584loPI   PO4 9332   8.758   6.155  10.518  0.1043 -0.0607 -0.1709
  584loPI   GL1 9333   8.903   6.438  10.255 -0.2788 -0.0684  0.0336
  584loPI   GL2 9334   9.014   6.187  10.096 -0.0353  0.3971  0.2334
  584loPI   C1A 9335   8.759   6.723  10.011 -0.0863  0.1251 -0.2129
  584loPI   C2A 9336   8.756   6.773   9.670  0.1762  0.0042 -0.0403
  584loPI   C3A 9337   8.840   6.654   9.228  0.1541 -0.3936  0.1458
  584loPI   C4A 9338   8.825   6.694   8.855 -0.1986 -0.0300 -0.0012
  584loPI   C5A 9339   8.783   6.728   8.377 -0.1116  0.1862 -0.1237
  584loPI   C6A 9340   8.475   6.648   8.005  0.2647 -0.0226  0.0504
  584loPI   C1B 9341   9.156   6.350   9.708 -0.2210  0.1337  0.0701
  584loPI   C2B 9342   9.121   6.268   9.241 -0.2089  0.0060 -0.3132
  584loPI   C3B 9343   9.129   6.247   8.848  0.0110 -0.1201  0.0984
  584loPI   C4B 9344   8.996   6.256   8.536 -0.0660  0.1886  0.1577
  585loPI    C1 9345  12.362   5.415  10.524  0.1777 -0.0611  0.2590
  585loPI    C2 9346  12.414   5.753  10.733 -0.0303 -0.0617  0.3134
  585loPI    C3 9347  12.076   5.542  10.773 -0.1051 -0.0236 -0.0773
  585loPI   PO4 9348  12.443   5.472  10.314  0.2252 -0.1981  0.0510
  585loPI   GL1 9349  12.239   5.648   9.940 -0.0731 -0.2180 -0.0105
  585loPI   GL2 9350  12.120   5.385   9.784 -0.3262  0.0054 -0.0999
  585loPI   C1A 9351  12.430   5.874   9.639  0.2558 -0.0609 -0.4753
  585loPI   C2A 9352  12.415   5.797   9.320  0.1423  0.1516 -0.0655
  585loPI   C3A 9353  12.361   5.909   8.856 -0.1932 -0.2185  0.1280
  585loPI   C4A 9354  12.302   5.935   8.356  0.0255  0.1294  0.0350
  585loPI   C5A 9355  12.108   5.826   7.904 -0.3505 -0.2403  0.3730
  585loPI   C6A 9356  12.077   5.457   7.611 -0.1508  0.1459  0.1865
  585loPI   C1B 9357  12.117   5.363   9.413 -0.2942 -0.0376 -0.0678
  585loPI   C2B 9358  12.060   5.388   8.939  0.0281  0.0086 -0.0435
  585loPI   C3B 9359  12.041   5.377   8.451 -0.0240 -0.3285  0.3432
  585loPI   C4B 9360  11.885   5.277   8.073 -0.1352  0.1950  0.1880
  586loPI    C1 9361   8.601   0.378  10.315 -0.1302 -0.0658 -0.0983
  586loPI    C2 9362   8.675   0.116  10.608 -0.0809 -0.0143 -0.0645
  586loPI    C3 9363   8.882   0.458  10.588 -0.1790  0.0444 -0.0799
  586loPI   PO4 9364   8.630   0.259  10.136  0.0221  0.0354  0.1436
  586loPI   GL1 9365   8.773   0.438   9.729 -0.0112 -0.0418  0.3176
  586loPI   GL2 9366   8.422   0.523   9.516  0.3022 -0.1283  0.3857
  586loPI   C1A 9367   8.746   0.328   9.314 -0.0143  0.0955 -0.0584
  586loPI   C2A 9368   8.797   0.287   8.916 -0.0759  0.1717 -0.1105
  586loPI   C3A 9369   8.847   0.411   8.449 -0.1127 -0.1737  0.0311
  586loPI   C4A 9370   8.734   0.609   8.041 -0.1660  0.2778  0.1029
  586loPI   C5A 9371   8.411   0.851   7.786  0.0259 -0.1716 -0.0585
  586loPI   C6A 9372   8.509   1.154   7.414 -0.3022 -0.0918 -0.0065
  586loPI   C1B 9373   8.269   0.500   9.189  0.0251  0.2544  0.0009
  586loPI   C2B 9374   8.281   0.475   8.731  0.2258 -0.2967 -0.0147
  586loPI   C3B 9375   8.322   0.583   8.357 -0.1078 -0.4296  0.2651
  586loPI   C4B 9376   8.022   0.432   7.943 -0.0753 -0.1435  0.1332
  587loPI    C1 9377   6.832   7.752  11.342  0.1802  0.0126  0.1307
  587loPI    C2 9378   6.546   7.730  11.621 -0.1060  0.2013 -0.1407
  587loPI    C3 9379   6.906   7.877  11.715 -0.0999 -0.0207  0.1995
  587loPI   PO4 9380   6.779   7.907  11.145  0.0894 -0.0437 -0.2658
  587loPI   GL1 9381   6.656   7.710  10.724 -0.4281  0.2242 -0.0957
  587loPI   GL2 9382   6.667   8.055  10.633  0.2989  0.0258  0.0446
  587loPI   C1A 9383   6.466   7.544  10.274  0.0831 -0.0010  0.1415
  587loPI   C2A 9384   6.464   7.557   9.882 -0.1032 -0.1296  0.0579
  587loPI   C3A 9385   6.665   7.635   9.491  0.0611  0.0150 -0.1901
  587loPI   C4A 9386   6.748   7.460   9.097  0.1864 -0.3397 -0.0377
  587loPI   C5A 9387   6.632   7.554   8.735  0.0460 -0.1886 -0.0063
  587loPI   C6A 9388   6.476   7.368   8.284  0.2012 -0.1918  0.1303
  587loPI   C1B 9389   6.809   8.002  10.264 -0.0816  0.1566 -0.0510
  587loPI   C2B 9390   6.820   8.090   9.844  0.0805  0.2632  0.1614
  587loPI   C3B 9391   6.901   8.077   9.381 -0.2084 -0.0198  0.1673
  587loPI   C4B 9392   6.933   8.038   8.973 -0.1113  0.2708  0.0061
  588loPI    C1 9393   0.929  11.820  10.272  0.0466 -0.1160  0.0329
  588loPI    C2 9394   1.197  11.794  10.568  0.2814 -0.0899 -0.1744
  588loPI    C3 9395   0.991  12.132  10.515  0.2755 -0.0771 -0.0728
  588loPI   PO4 9396   0.780  11.555  10.241 -0.0381  0.1949  0.1014
  588loPI   GL1 9397   0.711  11.548   9.845 -0.0005  0.0925 -0.0858
  588loPI   GL2 9398   0.587  11.721   9.683 -0.2097  0.1192 -0.0769
  588loPI   C1A 9399   0.780  11.164   9.650 -0.0063 -0.1708  0.0328
  588loPI   C2A 9400   0.651  11.170   9.240 -0.2501 -0.0177 -0.2234
  588loPI   C3A 9401   0.561  11.184   8.795  0.1467  0.2607  0.1693
  588loPI   C4A 9402   0.593  11.149   8.314 -0.1079  0.0998 -0.0310
  588loPI   C5A 9403   0.573  11.142   7.883 -0.1489 -0.1209 -0.1439
  588loPI   C6A 9404   0.148  11.071   7.577 -0.2551 -0.0218  0.1045
  588loPI   C1B 9405   0.581  11.707   9.190 -0.2568 -0.1737  0.2358
  588loPI   C2B 9406   0.671  11.656   8.768 -0.0382 -0.0909 -0.2226
  588loPI   C3B 9407   0.797  11.850   8.443  0.1014  0.1876  0.0583
  588loPI   C4B 9408   0.737  11.629   8.099  0.0429 -0.0138  0.1515
  589loPI    C1 9409   8.737  17.211  10.764 -0.1306 -0.0784 -0.1286
  589loPI    C2 9410   8.743  16.934  11.052  0.0735 -0.0407 -0.0952
  589loPI    C3 9411   8.702  17.320  11.147  0.1776 -0.0249 -0.1130
  589loPI   PO4 9412   8.555  17.098  10.501  0.0973  0.0401  0.1724
  589loPI   GL1 9413   8.413  16.808  10.235 -0.0441 -0.2917 -0.2126
  589loPI   GL2 9414   8.629  16.616  10.036  0.0710  0.2036  0.0697
  589loPI   C1A 9415   8.438  17.063   9.827  0.2000  0.1568  0.0528
  589loPI   C2A 9416   8.266  17.016   9.437  0.1586 -0.2211  0.0223
  589loPI   C3A 9417   8.122  16.995   8.949 -0.0951 -0.0154  0.1017
  589loPI   C4A 9418   8.200  16.917   8.569  0.0931 -0.2044 -0.1071
  589loPI   C5A 9419   8.136  16.929   8.161  0.1463  0.0404 -0.2981
  589loPI   C6A 9420   7.995  17.116   7.752  0.1242 -0.3187 -0.0257
  589loPI   C1B 9421   8.690  16.704   9.560 -0.2365 -0.0911 -0.2356
  589loPI   C2B 9422   8.666  16.742   9.190 -0.3055 -0.1240  0.1781
  589loPI   C3B 9423   8.669  16.710   8.803  0.6056  0.0396 -0.1502
  589loPI   C4B 9424   8.586  16.634   8.321  0.0696  0.0703 -0.5286
  590loPI    C1 9425  17.885  12.365  10.453 -0.1804 -0.0914  0.0205
  590loPI    C2 9426  17.837  12.689  10.684 -0.2648 -0.0285 -0.0845
  590loPI    C3 9427  18.099  12.405  10.789 -0.1853  0.0770  0.0048
  590loPI   PO4 9428  17.990  12.490  10.186  0.3086 -0.2240 -0.1456
  590loPI   GL1 9429  18.176  12.236   9.886  0.0531  0.2943 -0.0347
  590loPI   GL2 9430  18.424  12.434  10.002 -0.2573  0.1644 -0.1536
  590loPI   C1A 9431  18.342  12.332   9.484 -0.1465  0.0480  0.0826
  590loPI   C2A 9432  18.302  12.428   9.025 -0.0986  0.2938 -0.0914
  590loPI   C3A 9433  18.326  12.511   8.528  0.2273 -0.2170  0.0792
  590loPI   C4A 9434  18.490  12.647   8.083  0.2157  0.0369  0.0703
  590loPI   C5A 9435  18.262  12.844   7.746  0.2036  0.0317 -0.0112
  590loPI   C6A 9436  18.300  13.365   7.630  0.1830  0.1026  0.1048
  590loPI   C1B 9437  18.569  12.684   9.679 -0.0020  0.0814  0.1528
  590loPI   C2B 9438  18.681  12.690   9.304 -0.0270  0.0968 -0.2627
  590loPI   C3B 9439  18.693  12.748   8.943  0.2264  0.1195  0.3873
  590loPI   C4B 9440  18.812  12.763   8.492  0.0801  0.0282 -0.2329
  591loPI    C1 9441   0.097  17.492  10.359 -0.0349  0.0099 -0.2778
  591loPI    C2 9442  -0.249  17.690  10.329 -0.0621 -0.0268 -0.2091
  591loPI    C3 9443   0.051  17.844  10.544  0.0592  0.1343 -0.4875
  591loPI   PO4 9444   0.135  17.457  10.154  0.0061 -0.4232  0.0392
  591loPI   GL1 9445   0.336  17.247   9.793 -0.0434  0.0681  0.1111
  591loPI   GL2 9446   0.387  16.907   9.692  0.1502  0.1663  0.0684
  591loPI   C1A 9447   0.268  17.340   9.327 -0.0797  0.0582  0.4006
  591loPI   C2A 9448   0.323  17.298   8.939 -0.2327  0.1611 -0.0729
  591loPI   C3A 9449   0.254  17.282   8.506  0.0820  0.0077 -0.1521
  591loPI   C4A 9450   0.013  17.239   8.216 -0.0687 -0.0076 -0.2591
  591loPI   C5A 9451  -0.193  17.371   7.944  0.1389 -0.0565  0.1480
  591loPI   C6A 9452  -0.416  17.507   7.616  0.1122  0.2235  0.2151
  591loPI   C1B 9453   0.339  16.861   9.192  0.1460 -0.1186  0.0762
  591loPI   C2B 9454   0.341  16.757   8.773  0.0111 -0.2731 -0.0352
  591loPI   C3B 9455   0.297  16.737   8.333  0.0724 -0.1406 -0.0176
  591loPI   C4B 9456   0.215  16.720   7.838 -0.3748 -0.1176  0.0068
  592loPI    C1 9457  12.725   8.903  11.094  0.0138 -0.0239 -0.0001
  592loPI    C2 9458  12.581   9.226  11.281 -0.2885 -0.2747  0.2096
  592loPI    C3 9459  12.940   9.081  11.381 -0.2528 -0.1409  0.2775
  592loPI   PO4 9460  12.626   8.967  10.755 -0.0411  0.1200 -0.2218
  592loPI   GL1 9461  12.586   9.111  10.355 -0.0857  0.0904 -0.1995
  592loPI   GL2 9462  12.344   9.328  10.350  0.0419 -0.1291  0.0783
  592loPI   C1A 9463  12.667   9.005   9.960  0.1812 -0.0300  0.2654
  592loPI   C2A 9464  12.618   9.031   9.609  0.1478  0.1684  0.1993
  592loPI   C3A 9465  12.610   9.021   9.274  0.0558  0.2611 -0.0895
  592loPI   C4A 9466  12.692   8.867   8.807 -0.0993  0.1149  0.0846
  592loPI   C5A 9467  12.904   8.902   8.320  0.2147 -0.2143 -0.1687
  592loPI   C6A 9468  13.229   8.636   8.141  0.0035 -0.1316 -0.0424
  592loPI   C1B 9469  12.395   9.427   9.956 -0.1149  0.0901 -0.1500
  592loPI   C2B 9470  12.336   9.483   9.531 -0.0612 -0.0635  0.3573
  592loPI   C3B 9471  12.417   9.462   9.203  0.0673 -0.2658  0.0473
  592loPI   C4B 9472  12.416   9.319   8.793 -0.3092  0.2203  0.1911
  593loPI    C1 9473   5.435  16.278  10.289  0.3083 -0.2027 -0.0964
  593loPI    C2 9474   5.331  16.524  10.587 -0.2255  0.0363 -0.4647
  593loPI    C3 9475   5.703  16.532  10.441  0.0338 -0.0604  0.1601
  593loPI   PO4 9476   5.275  16.292  10.123  0.1645 -0.0767 -0.1387
  593loPI   GL1 9477   5.338  16.058   9.779  0.1316  0.0038 -0.2101
  593loPI   GL2 9478   5.011  15.829   9.710  0.1467 -0.3210 -0.0258
  593loPI   C1A 9479   5.419  16.136   9.348 -0.0684 -0.0139 -0.1036
  593loPI   C2A 9480   5.388  16.044   8.948  0.1263  0.0442  0.1931
  593loPI   C3A 9481   5.414  16.016   8.579 -0.0501 -0.1646  0.0680
  593loPI   C4A 9482   5.467  15.935   8.211 -0.2377  0.1264  0.0090
  593loPI   C5A 9483   5.272  16.082   7.856  0.2750 -0.2668  0.1588
  593loPI   C6A 9484   5.483  16.340   7.590  0.1516  0.0702  0.2180
  593loPI   C1B 9485   4.923  15.809   9.353 -0.2444 -0.4247  0.3867
  593loPI   C2B 9486   4.915  15.785   8.936 -0.2463 -0.1799 -0.0842
  593loPI   C3B 9487   5.019  15.788   8.556  0.0241  0.0066 -0.1433
  593loPI   C4B 9488   4.883  15.730   8.096 -0.5832  0.0528  0.0363
  594loPI    C1 9489  15.727   7.860  10.704  0.0229  0.2544  0.0270
  594loPI    C2 9490  15.599   8.103  10.995  0.0698  0.2018  0.0919
  594loPI    C3 9491  15.373   7.794  10.879  0.0104  0.2754  0.0097
  594loPI   PO4 9492  15.793   8.112  10.543  0.1076  0.1490  0.0065
  594loPI   GL1 9493  16.063   7.986  10.173 -0.1412 -0.5617  0.1644
  594loPI   GL2 9494  15.820   8.133  10.025 -0.2393 -0.0972  0.0996
  594loPI   C1A 9495  16.342   8.099   9.831 -0.0996 -0.1563 -0.0003
  594loPI   C2A 9496  16.261   8.081   9.403  0.1049  0.1937 -0.0583
  594loPI   C3A 9497  16.339   8.101   8.902 -0.0284 -0.0845 -0.0434
  594loPI   C4A 9498  16.406   8.124   8.466 -0.4261 -0.0793 -0.3888
  594loPI   C5A 9499  16.477   8.354   8.035  0.0668 -0.0069  0.1202
  594loPI   C6A 9500  16.158   8.630   7.810  0.2029  0.2483  0.0626
  594loPI   C1B 9501  15.761   8.080   9.589  0.1448 -0.1706  0.3178
  594loPI   C2B 9502  15.771   8.108   9.110  0.0916 -0.1127  0.0486
  594loPI   C3B 9503  15.865   8.102   8.705 -0.2218 -0.3377 -0.1057
  594loPI   C4B 9504  15.906   8.221   8.266  0.2668 -0.2366  0.1793
  595loPI    C1 9505  18.281  11.208  10.512  0.0708  0.0126  0.0608
  595loPI    C2 9506  18.470  10.994  10.792  0.0859 -0.0836 -0.0222
  595loPI    C3 9507  18.076  11.054  10.819  0.1041 -0.0048  0.0746
  595loPI   PO4 9508  18.343  11.088  10.167  0.1456 -0.1282  0.1744
  595loPI   GL1 9509  18.204  11.102   9.754  0.0690 -0.0893 -0.0194
  595loPI   GL2 9510  18.068  11.448   9.632  0.1904  0.1132  0.0479
  595loPI   C1A 9511  17.881  11.022   9.393 -0.0757 -0.0546  0.1228
  595loPI   C2A 9512  18.030  11.103   8.973  0.1981 -0.1501  0.1899
  595loPI   C3A 9513  17.783  11.188   8.677  0.2363  0.2782  0.0482
  595loPI   C4A 9514  17.771  11.340   8.308  0.0512 -0.0197 -0.0069
  595loPI   C5A 9515  17.650  11.635   7.941 -0.2392  0.2107 -0.0960
  595loPI   C6A 9516  17.334  11.870   7.736  0.0879  0.0470 -0.2077
  595loPI   C1B 9517  17.882  11.550   9.254 -0.0481 -0.0583 -0.5217
  595loPI   C2B 9518  17.949  11.615   8.866  0.2106  0.0615 -0.0573
  595loPI   C3B 9519  18.078  11.673   8.459  0.2721 -0.1402 -0.1626
  595loPI   C4B 9520  18.157  11.743   8.149 -0.1076  0.0966 -0.2375
  596loPI    C1 9521   1.901  16.356  10.748 -0.3765  0.0920 -0.0093
  596loPI    C2 9522   1.884  16.022  10.968  0.1880  0.0703  0.0156
  596loPI    C3 9523   1.874  16.381  11.146  0.0536  0.0619  0.0265
  596loPI   PO4 9524   2.057  16.352  10.566 -0.1579 -0.0471  0.2815
  596loPI   GL1 9525   2.155  16.285  10.196 -0.1705  0.2067 -0.0765
  596loPI   GL2 9526   2.184  15.980   9.962  0.2347  0.0198  0.0359
  596loPI   C1A 9527   2.260  16.460   9.773 -0.0769  0.0862 -0.3839
  596loPI   C2A 9528   2.194  16.385   9.292  0.0146  0.1814  0.1423
  596loPI   C3A 9529   2.137  16.410   8.822 -0.0815 -0.0036 -0.1844
  596loPI   C4A 9530   2.158  16.351   8.420 -0.2059  0.0074  0.0495
  596loPI   C5A 9531   2.078  16.334   7.992  0.5532  0.0314 -0.3374
  596loPI   C6A 9532   1.673  16.356   7.749 -0.1056 -0.0536  0.1357
  596loPI   C1B 9533   2.310  15.986   9.511  0.0113 -0.2036 -0.0284
  596loPI   C2B 9534   2.277  15.897   9.086 -0.0403 -0.1159  0.0841
  596loPI   C3B 9535   2.251  15.848   8.606 -0.0082 -0.0585  0.1687
  596loPI   C4B 9536   2.272  15.879   8.111 -0.3385  0.0255  0.0205
  597loPI    C1 9537  16.830   5.328  10.610 -0.0985 -0.1173 -0.1029
  597loPI    C2 9538  16.599   5.035  10.754 -0.0378 -0.2327 -0.2384
  597loPI    C3 9539  16.997   4.996  10.757 -0.0280 -0.1331 -0.2175
  597loPI   PO4 9540  16.646   5.385  10.388  0.2112 -0.0699 -0.1230
  597loPI   GL1 9541  16.416   5.422   9.991  0.0827  0.2452 -0.1260
  597loPI   GL2 9542  16.591   5.307   9.717  0.2481  0.0691 -0.2251
  597loPI   C1A 9543  16.123   5.634   9.787  0.1147 -0.1603 -0.0015
  597loPI   C2A 9544  15.934   5.782   9.467 -0.1787  0.1746 -0.3101
  597loPI   C3A 9545  15.903   5.867   9.045  0.0338 -0.1652  0.1527
  597loPI   C4A 9546  15.999   5.875   8.657  0.1353  0.0872 -0.0151
  597loPI   C5A 9547  15.965   5.923   8.189 -0.3611  0.1247  0.2109
  597loPI   C6A 9548  15.670   5.796   7.811  0.0034 -0.0869  0.1472
  597loPI   C1B 9549  16.694   5.426   9.319 -0.1081  0.3759  0.2245
  597loPI   C2B 9550  16.685   5.354   8.830 -0.2528 -0.1341 -0.2652
  597loPI   C3B 9551  16.763   5.346   8.405  0.1625 -0.4827  0.1831
  597loPI   C4B 9552  16.809   5.187   8.040  0.0141  0.0410  0.0225
  598loPI    C1 9553   1.880   1.661  10.235 -0.1920 -0.3292 -0.1719
  598loPI    C2 9554   2.238   1.483  10.213 -0.0553 -0.0938  0.0793
  598loPI    C3 9555   2.070   1.551  10.570 -0.2329  0.0294 -0.0261
  598loPI   PO4 9556   1.667   1.579  10.083 -0.0564  0.0634  0.2263
  598loPI   GL1 9557   1.379   1.416   9.693  0.1054  0.1217  0.0324
  598loPI   GL2 9558   1.102   1.622   9.605  0.1790  0.0864 -0.3273
  598loPI   C1A 9559   1.408   1.405   9.206 -0.2841  0.0567  0.0642
  598loPI   C2A 9560   1.447   1.363   8.653  0.3269 -0.0750 -0.2397
  598loPI   C3A 9561   1.321   1.491   8.265  0.0703  0.1578 -0.1702
  598loPI   C4A 9562   1.433   1.479   7.853 -0.0858 -0.1491  0.0188
  598loPI   C5A 9563   1.488   1.517   7.466 -0.0075  0.0306  0.1371
  598loPI   C6A 9564   1.231   1.801   7.291 -0.0257  0.2955  0.1070
  598loPI   C1B 9565   1.001   1.620   9.126  0.1378  0.0340  0.2371
  598loPI   C2B 9566   0.963   1.679   8.607 -0.0388 -0.0652 -0.0487
  598loPI   C3B 9567   0.899   1.800   8.198 -0.3526 -0.1507  0.2702
  598loPI   C4B 9568   1.037   1.770   7.768 -0.1494  0.1676 -0.2126
  599loPI    C1 9569  17.619   1.534  10.517 -0.1083  0.0227  0.0273
  599loPI    C2 9570  17.518   1.288  10.816  0.0280 -0.2031 -0.1088
  599loPI    C3 9571  17.791   1.574  10.875 -0.0592 -0.1464  0.0236
  599loPI   PO4 9572  17.366   1.599  10.387  0.2243  0.4574 -0.0475
  599loPI   GL1 9573  17.285   1.608   9.934 -0.1189  0.3368 -0.1628
  599loPI   GL2 9574  17.618   1.719   9.964 -0.0322  0.1394  0.1383
  599loPI   C1A 9575  17.354   1.484   9.498  0.0259 -0.2133 -0.2147
  599loPI   C2A 9576  17.342   1.425   9.030 -0.3897  0.2410  0.2569
  599loPI   C3A 9577  17.367   1.481   8.612  0.1748 -0.0111  0.0846
  599loPI   C4A 9578  17.378   1.204   8.246 -0.0135 -0.0690 -0.2061
  599loPI   C5A 9579  17.276   1.044   7.841  0.0795 -0.1854  0.0703
  599loPI   C6A 9580  17.137   1.184   7.414 -0.0228  0.0938 -0.0546
  599loPI   C1B 9581  17.765   1.717   9.552 -0.1570  0.2754  0.1371
  599loPI   C2B 9582  17.713   1.818   9.028  0.0197 -0.0720 -0.0798
  599loPI   C3B 9583  17.812   1.746   8.524  0.0690 -0.0596  0.1940
  599loPI   C4B 9584  17.897   1.698   8.104 -0.1049 -0.0590 -0.0845
  600loPI    C1 9585  16.402   4.031  10.369  0.0769  0.0575  0.1031
  600loPI    C2 9586  16.636   3.748  10.529 -0.0229  0.0515  0.2400
  600loPI    C3 9587  16.693   4.132  10.625  0.0231  0.0645  0.1616
  600loPI   PO4 9588  16.416   3.937  10.059  0.0626 -0.0097  0.0747
  600loPI   GL1 9589  16.240   3.890   9.671 -0.1064  0.1249  0.0244
  600loPI   GL2 9590  16.528   3.619   9.672  0.3084 -0.1120  0.1797
  600loPI   C1A 9591  16.149   3.844   9.224 -0.0054 -0.0413  0.0335
  600loPI   C2A 9592  16.032   3.961   8.812 -0.2394 -0.1782 -0.1203
  600loPI   C3A 9593  15.989   4.066   8.398  0.0459 -0.1001  0.0279
  600loPI   C4A 9594  15.980   3.757   8.089  0.0630 -0.1778 -0.0336
  600loPI   C5A 9595  15.723   3.643   7.775 -0.0032  0.0817 -0.2073
  600loPI   C6A 9596  15.275   3.627   7.710  0.0629 -0.2387 -0.2237
  600loPI   C1B 9597  16.290   3.357   9.283 -0.1364  0.1681  0.0107
  600loPI   C2B 9598  16.212   3.436   8.809  0.0190  0.0709 -0.1281
  600loPI   C3B 9599  16.245   3.412   8.415 -0.1033 -0.1462  0.1429
  600loPI   C4B 9600  16.288   3.373   7.969 -0.0485 -0.2024 -0.0732
  601loPI    C1 9601   5.164   2.567  10.690  0.1195  0.2555  0.1340
  601loPI    C2 9602   4.899   2.854  10.776  0.0565  0.1651  0.2429
  601loPI    C3 9603   5.031   2.610  11.064 -0.1623 -0.1463  0.0862
  601loPI   PO4 9604   5.033   2.401  10.480 -0.0424 -0.0087 -0.0149
  601loPI   GL1 9605   5.218   2.236  10.067  0.1682  0.0454 -0.1530
  601loPI   GL2 9606   5.422   2.524  10.164 -0.0683 -0.0801  0.1591
  601loPI   C1A 9607   5.431   2.149   9.653 -0.3483  0.1788  0.2515
  601loPI   C2A 9608   5.397   2.178   9.183  0.0248 -0.1365  0.1478
  601loPI   C3A 9609   5.190   2.147   8.701  0.0661 -0.0350  0.0140
  601loPI   C4A 9610   5.135   2.192   8.194  0.2534 -0.0075 -0.3275
  601loPI   C5A 9611   5.005   2.590   8.029 -0.0579  0.1061 -0.1531
  601loPI   C6A 9612   5.074   2.946   7.793 -0.2180  0.1905  0.2112
  601loPI   C1B 9613   5.556   2.628   9.746  0.0329 -0.0035  0.0360
  601loPI   C2B 9614   5.479   2.619   9.330  0.3013  0.2830  0.1832
  601loPI   C3B 9615   5.443   2.604   8.893 -0.0218 -0.1591 -0.1370
  601loPI   C4B 9616   5.268   2.619   8.440 -0.2450 -0.0249 -0.0163
  602loPI    C1 9617  16.222   1.244  10.811 -0.3305 -0.1385  0.2703
  602loPI    C2 9618  16.426   0.904  10.867 -0.0769 -0.0008  0.2028
  602loPI    C3 9619  16.593   1.255  10.961 -0.2584  0.1203  0.0808
  602loPI   PO4 9620  16.082   1.175  10.529  0.0658  0.5542  0.2835
  602loPI   GL1 9621  16.160   1.058  10.069 -0.1318  0.3070 -0.0729
  602loPI   GL2 9622  15.920   0.892  10.151  0.3297 -0.2387  0.1290
  602loPI   C1A 9623  16.143   1.094   9.628  0.0650  0.2313 -0.0187
  602loPI   C2A 9624  15.995   1.000   9.258 -0.1612 -0.1680  0.0077
  602loPI   C3A 9625  16.068   1.127   8.874 -0.2584 -0.0709 -0.1166
  602loPI   C4A 9626  15.967   1.125   8.495 -0.0837  0.0419  0.0883
  602loPI   C5A 9627  15.842   1.457   8.163 -0.0061 -0.0159  0.1155
  602loPI   C6A 9628  16.060   1.837   8.008 -0.2210 -0.0142  0.0316
  602loPI   C1B 9629  15.785   0.787   9.746 -0.0669  0.1870  0.2704
  602loPI   C2B 9630  15.616   0.692   9.297 -0.0046  0.0156  0.0634
  602loPI   C3B 9631  15.552   0.814   8.859 -0.0520 -0.2079  0.0405
  602loPI   C4B 9632  15.591   0.804   8.372  0.2775 -0.0179 -0.0776
  603loPI    C1 9633  10.734   5.270  10.442 -0.1108  0.0810 -0.1524
  603loPI    C2 9634  10.911   5.161  10.783 -0.2005 -0.2185 -0.1986
  603loPI    C3 9635  10.512   5.177  10.761 -0.1939 -0.1615 -0.2776
  603loPI   PO4 9636  10.900   5.383  10.311 -0.0004 -0.2887  0.2873
  603loPI   GL1 9637  10.893   5.447   9.950 -0.3002  0.0738  0.0488
  603loPI   GL2 9638  11.143   5.168   9.876 -0.2624  0.0683  0.1158
  603loPI   C1A 9639  10.645   5.266   9.575 -0.2594 -0.1061 -0.1091
  603loPI   C2A 9640  10.659   5.363   9.203 -0.0929  0.1526 -0.0922
  603loPI   C3A 9641  10.533   5.373   8.758  0.0553  0.0903  0.4071
  603loPI   C4A 9642  10.524   5.389   8.332  0.1474 -0.0154  0.1869
  603loPI   C5A 9643  10.259   5.558   8.015  0.5083  0.1724  0.0076
  603loPI   C6A 9644  10.305   5.595   7.567  0.0623  0.2209 -0.1881
  603loPI   C1B 9645  11.110   5.323   9.471 -0.1157 -0.1880 -0.2390
  603loPI   C2B 9646  11.068   5.359   8.958 -0.1127 -0.1195 -0.0138
  603loPI   C3B 9647  10.994   5.426   8.573  0.0577 -0.0765 -0.1295
  603loPI   C4B 9648  11.023   5.354   8.180 -0.4045 -0.0492  0.3333
  604loPI    C1 9649   1.273   8.668  10.796  0.2099 -0.0595 -0.1517
  604loPI    C2 9650   1.561   8.915  10.922 -0.0085  0.0364  0.1715
  604loPI    C3 9651   1.396   8.654  11.177 -0.0166 -0.2103 -0.0816
  604loPI   PO4 9652   1.357   8.682  10.538  0.1243  0.2758 -0.1360
  604loPI   GL1 9653   1.527   8.474  10.220  0.0204 -0.1430 -0.0453
  604loPI   GL2 9654   1.848   8.405  10.066  0.2151 -0.0411 -0.0382
  604loPI   C1A 9655   1.321   8.527   9.774  0.0503 -0.2502  0.2634
  604loPI   C2A 9656   1.374   8.403   9.309 -0.0980  0.2333 -0.1720
  604loPI   C3A 9657   1.475   8.347   8.871 -0.0804 -0.1641  0.0343
  604loPI   C4A 9658   1.531   8.425   8.433  0.0049  0.2920  0.1461
  604loPI   C5A 9659   1.444   8.632   8.054  0.0082 -0.2559  0.0272
  604loPI   C6A 9660   1.366   8.453   7.666 -0.0154 -0.1152  0.1064
  604loPI   C1B 9661   1.808   8.444   9.597  0.2423 -0.2838  0.0258
  604loPI   C2B 9662   1.880   8.349   9.130 -0.0603  0.1439 -0.3200
  604loPI   C3B 9663   1.955   8.452   8.733 -0.0221  0.0605  0.0902
  604loPI   C4B 9664   1.987   8.637   8.283 -0.0183  0.1829  0.1231
  605loPI    C1 9665   5.693  16.018  10.626  0.1012 -0.0179 -0.1044
  605loPI    C2 9666   5.677  15.880  11.001 -0.0858 -0.0634 -0.1281
  605loPI    C3 9667   5.612  16.268  10.928 -0.2995 -0.0999 -0.1384
  605loPI   PO4 9668   5.925  16.049  10.504  0.2990 -0.0222  0.2549
  605loPI   GL1 9669   5.937  16.239  10.132  0.2015  0.0115  0.2403
  605loPI   GL2 9670   5.785  16.486   9.898 -0.0068 -0.1361  0.5616
  605loPI   C1A 9671   5.847  16.020   9.699 -0.0543 -0.0574 -0.0224
  605loPI   C2A 9672   5.958  16.000   9.325 -0.2682 -0.0178 -0.0252
  605loPI   C3A 9673   5.820  15.869   8.942 -0.0991 -0.1366  0.2780
  605loPI   C4A 9674   5.905  15.801   8.535  0.1361  0.0980  0.0648
  605loPI   C5A 9675   5.966  15.764   8.045 -0.1733  0.1517  0.1791
  605loPI   C6A 9676   5.915  15.460   7.780 -0.2866  0.1692  0.0886
  605loPI   C1B 9677   5.729  16.494   9.459 -0.0621  0.0941  0.0517
  605loPI   C2B 9678   5.891  16.501   9.192  0.1099 -0.0241  0.2008
  605loPI   C3B 9679   5.804  16.322   8.830  0.2809 -0.3220  0.2149
  605loPI   C4B 9680   5.928  16.348   8.416  0.1363  0.5551 -0.1186
  606loPI    C1 9681   8.005   9.015  10.942  0.0426  0.1963 -0.0045
  606loPI    C2 9682   7.931   8.688  11.160  0.1590  0.0271 -0.2153
  606loPI    C3 9683   7.718   9.021  11.220  0.2534  0.0142  0.2216
  606loPI   PO4 9684   8.046   8.926  10.688 -0.0161  0.1408  0.0106
  606loPI   GL1 9685   7.976   8.867  10.323 -0.0818  0.0453  0.0457
  606loPI   GL2 9686   7.665   8.826  10.285 -0.0673  0.1804 -0.3249
  606loPI   C1A 9687   7.947   8.998   9.897 -0.2579  0.2508  0.1028
  606loPI   C2A 9688   7.892   8.959   9.426 -0.1205 -0.0568  0.3080
  606loPI   C3A 9689   7.919   8.953   9.002  0.0433  0.2058 -0.0257
  606loPI   C4A 9690   7.877   8.908   8.639 -0.0581  0.0176  0.2182
  606loPI   C5A 9691   7.673   8.715   8.441 -0.4226 -0.0948 -0.3787
  606loPI   C6A 9692   7.377   8.453   8.237 -0.0280 -0.1259 -0.0863
  606loPI   C1B 9693   7.596   8.574   9.904  0.0239  0.0719 -0.1392
  606loPI   C2B 9694   7.683   8.496   9.537  0.0708 -0.0423  0.1121
  606loPI   C3B 9695   7.709   8.532   9.185 -0.1439  0.0834 -0.1656
  606loPI   C4B 9696   7.803   8.439   8.829  0.2557 -0.2540  0.2339
  607loPI    C1 9697  12.479  18.250  10.597  0.3428 -0.1263  0.0390
  607loPI    C2 9698  12.469  18.202  10.994  0.1944  0.2836  0.0903
  607loPI    C3 9699  12.139  18.314  10.798  0.2180 -0.0985 -0.1781
  607loPI   PO4 9700  12.706  18.012  10.513 -0.3183 -0.1425  0.1254
  607loPI   GL1 9701  13.037  17.752  10.404 -0.0579  0.0676  0.0524
  607loPI   GL2 9702  13.381  17.645  10.378  0.0246 -0.0400 -0.1675
  607loPI   C1A 9703  13.034  17.842  10.007 -0.4528 -0.1044  0.1120
  607loPI   C2A 9704  12.934  17.797   9.611 -0.1799 -0.1553  0.4416
  607loPI   C3A 9705  12.978  17.853   9.182 -0.1853 -0.0538  0.0666
  607loPI   C4A 9706  13.040  17.693   8.761  0.1859  0.0219 -0.2715
  607loPI   C5A 9707  13.199  17.766   8.407  0.0623 -0.3386  0.0718
  607loPI   C6A 9708  13.061  17.874   7.996  0.4318  0.0279  0.3990
  607loPI   C1B 9709  13.493  17.606   9.913 -0.1181  0.0504  0.2756
  607loPI   C2B 9710  13.390  17.631   9.503  0.0580  0.1386  0.1178
  607loPI   C3B 9711  13.517  17.585   9.097 -0.0434 -0.1527  0.0416
  607loPI   C4B 9712  13.504  17.509   8.664  0.1893  0.0055 -0.0226
  608loPI    C1 9713  10.720   3.051  10.219  0.1878 -0.0035 -0.1399
  608loPI    C2 9714  10.630   2.969  10.600 -0.0638 -0.0396 -0.2059
  608loPI    C3 9715  10.980   3.140  10.510  0.0272 -0.0960  0.0336
  608loPI   PO4 9716  10.640   2.868  10.068 -0.1788  0.1326  0.0682
  608loPI   GL1 9717  10.433   2.832   9.709 -0.0397 -0.2054  0.0986
  608loPI   GL2 9718  10.286   2.523   9.563 -0.0180 -0.1807  0.0229
  608loPI   C1A 9719  10.406   2.987   9.328 -0.0204  0.0357 -0.4632
  608loPI   C2A 9720  10.386   3.085   8.864  0.0086  0.3172  0.0307
  608loPI   C3A 9721  10.238   3.120   8.570  0.0472  0.1632  0.2794
  608loPI   C4A 9722  10.326   2.954   8.141  0.0761  0.0762 -0.1467
  608loPI   C5A 9723  10.170   2.668   7.874 -0.2166 -0.1007 -0.2559
  608loPI   C6A 9724  10.243   2.247   7.730 -0.0507  0.1743  0.0969
  608loPI   C1B 9725  10.442   2.169   9.256  0.0956  0.0289  0.1154
  608loPI   C2B 9726  10.444   2.076   8.742 -0.0251  0.2118  0.3167
  608loPI   C3B 9727  10.525   2.042   8.279  0.1968 -0.0394 -0.3702
  608loPI   C4B 9728  10.706   2.085   7.796  0.0585  0.1109  0.1347
  609POPI    C1 9729  16.266  10.924  10.349 -0.1093 -0.1309  0.2124
  609POPI    C2 9730  16.372  11.290  10.471  0.0357 -0.1067  0.0183
  609POPI    C3 9731  16.493  10.968  10.675  0.0717 -0.0557  0.0774
  609POPI   PO4 9732  16.275  10.990  10.039  0.4439  0.0139  0.1288
  609POPI   GL1 9733  16.320  11.261   9.672 -0.1844  0.1288  0.3663
  609POPI   GL2 9734  16.596  11.255   9.719  0.3777  0.1296  0.0727
  609POPI   C1A 9735  16.265  11.211   9.190  0.3160  0.0874 -0.2410
  609POPI   D2A 9736  16.217  11.197   8.758 -0.0789 -0.4349 -0.0014
  609POPI   C3A 9737  16.236  11.110   8.356 -0.0683  0.0941 -0.1680
  609POPI   C4A 9738  16.210  11.009   7.963 -0.5331 -0.0565 -0.1744
  609POPI   C1B 9739  16.720  11.207   9.386  0.0573 -0.0204  0.0863
  609POPI   C2B 9740  16.682  11.078   8.973  0.4068 -0.1036  0.1254
  609POPI   C3B 9741  16.748  11.258   8.597 -0.0461 -0.4304  0.0009
  609POPI   C4B 9742  16.667  11.184   8.126  0.2391  0.0722  0.0082
  610POPI    C1 9743   2.118   4.476  10.613  0.4371  0.0609  0.0357
  610POPI    C2 9744   2.021   4.117  10.465  0.0925  0.2519 -0.2167
  610POPI    C3 9745   2.307   4.148  10.743  0.0023 -0.2368 -0.0586
  610POPI   PO4 9746   2.142   4.647  10.392  0.1522 -0.3329 -0.2655
  610POPI   GL1 9747   2.079   4.904   9.994  0.1504 -0.0069  0.1580
  610POPI   GL2 9748   2.291   5.156  10.087  0.1211 -0.1301 -0.1114
  610POPI   C1A 9749   1.959   4.846   9.587  0.1410 -0.1060 -0.0798
  610POPI   D2A 9750   1.740   4.858   9.228 -0.2372  0.2100  0.3840
  610POPI   C3A 9751   1.854   4.867   8.869  0.0051  0.0825  0.1837
  610POPI   C4A 9752   1.810   4.913   8.371  0.0340 -0.2152  0.1035
  610POPI   C1B 9753   2.246   5.253   9.636  0.1166 -0.0662  0.1314
  610POPI   C2B 9754   2.135   5.182   9.277 -0.0115  0.0756  0.2086
  610POPI   C3B 9755   2.110   5.301   8.842  0.0196  0.0049  0.0192
  610POPI   C4B 9756   2.049   5.366   8.368  0.2128 -0.1848 -0.1554
  611POPI    C1 9757   3.084  14.050  10.881  0.0915 -0.0997  0.0372
  611POPI    C2 9758   3.133  13.751  11.142  0.2124  0.0241  0.1575
  611POPI    C3 9759   2.870  14.043  11.218  0.1144 -0.0360  0.0530
  611POPI   PO4 9760   3.029  13.974  10.628 -0.2941 -0.0971 -0.1085
  611POPI   GL1 9761   3.066  13.886  10.161  0.2273  0.1419 -0.0550
  611POPI   GL2 9762   3.344  14.096  10.203 -0.0446 -0.0179  0.1077
  611POPI   C1A 9763   2.991  13.715   9.852 -0.1723  0.0989  0.3490
  611POPI   D2A 9764   3.055  13.702   9.450 -0.0619  0.0695  0.1170
  611POPI   C3A 9765   3.041  13.611   9.011  0.0792  0.1648 -0.1780
  611POPI   C4A 9766   3.058  13.770   8.644  0.3201  0.2120 -0.0694
  611POPI   C1B 9767   3.320  14.103   9.708 -0.3129 -0.2619 -0.1538
  611POPI   C2B 9768   3.472  14.062   9.318 -0.0103  0.1601  0.3520
  611POPI   C3B 9769   3.466  13.977   8.804 -0.1282  0.1886  0.1269
  611POPI   C4B 9770   3.451  14.031   8.345 -0.0409 -0.0415  0.3623
  612POPI    C1 9771   5.633  15.182  10.895 -0.1271  0.0954 -0.1416
  612POPI    C2 9772   5.798  15.383  11.199  0.3175  0.0394 -0.3375
  612POPI    C3 9773   5.570  15.062  11.271 -0.0124  0.3294 -0.0454
  612POPI   PO4 9774   5.815  15.148  10.761 -0.2282  0.0868  0.1359
  612POPI   GL1 9775   6.006  14.974  10.350 -0.1899  0.1383 -0.0642
  612POPI   GL2 9776   6.036  14.701  10.252  0.3480  0.0204  0.1833
  612POPI   C1A 9777   6.022  15.196   9.917  0.0422  0.2489 -0.0255
  612POPI   D2A 9778   6.018  15.493   9.609 -0.1296 -0.1403 -0.1757
  612POPI   C3A 9779   6.007  15.445   9.158  0.1968 -0.1869  0.0196
  612POPI   C4A 9780   5.878  15.385   8.752 -0.2311  0.4424  0.0665
  612POPI   C1B 9781   6.001  14.738   9.813 -0.1897  0.2190 -0.0467
  612POPI   C2B 9782   6.169  14.812   9.375 -0.3449  0.0030 -0.2474
  612POPI   C3B 9783   6.131  14.901   8.961 -0.4709 -0.2555  0.0683
  612POPI   C4B 9784   5.983  14.844   8.589  0.0376 -0.1793 -0.3120
  613POPI    C1 9785  13.949   5.160  10.271 -0.2046 -0.1626 -0.2855
  613POPI    C2 9786  13.784   5.144  10.635 -0.0186  0.3164 -0.1718
  613POPI    C3 9787  14.129   4.955  10.563 -0.0690  0.1988 -0.1084
  613POPI   PO4 9788  13.760   5.307  10.172  0.0318 -0.1282  0.0316
  613POPI   GL1 9789  13.859   5.484   9.786  0.1846 -0.1728 -0.1213
  613POPI   GL2 9790  13.753   5.490   9.454 -0.0463 -0.1308  0.0895
  613POPI   C1A 9791  14.174   5.793   9.744  0.0071 -0.0540 -0.1371
  613POPI   D2A 9792  14.475   5.834   9.400 -0.1583  0.1416  0.2653
  613POPI   C3A 9793  14.388   5.902   8.927 -0.1154  0.0654  0.1832
  613POPI   C4A 9794  14.480   5.965   8.485 -0.0746 -0.2532 -0.3157
  613POPI   C1B 9795  13.937   5.875   9.202  0.1818  0.1992 -0.3235
  613POPI   C2B 9796  13.906   5.924   8.867 -0.1131 -0.2442  0.1377
  613POPI   C3B 9797  13.959   5.950   8.490  0.3220 -0.0249  0.0705
  613POPI   C4B 9798  13.640   5.830   8.120  0.0659 -0.1386 -0.2232
  614POPI    C1 9799   4.766   3.270  10.523  0.1304 -0.0986 -0.0690
  614POPI    C2 9800   5.005   3.372  10.220  0.0720  0.1636 -0.0294
  614POPI    C3 9801   5.101   3.476  10.594 -0.0635  0.2009 -0.0046
  614POPI   PO4 9802   4.539   3.260  10.372  0.1944 -0.0497  0.1956
  614POPI   GL1 9803   4.492   3.117  10.015  0.2567 -0.3088 -0.2670
  614POPI   GL2 9804   4.455   2.796   9.926 -0.0411 -0.1032  0.1516
  614POPI   C1A 9805   4.770   3.334   9.720  0.0051  0.2011  0.3613
  614POPI   D2A 9806   4.954   3.495   9.356  0.1455  0.0015 -0.2961
  614POPI   C3A 9807   4.830   3.511   8.907  0.3271 -0.1012 -0.0722
  614POPI   C4A 9808   4.795   3.527   8.451  0.1148  0.0363  0.2520
  614POPI   C1B 9809   4.611   2.889   9.516 -0.2219 -0.2139  0.2644
  614POPI   C2B 9810   4.716   3.050   9.110 -0.3966 -0.0690 -0.0183
  614POPI   C3B 9811   4.525   3.026   8.715  0.3724  0.1865  0.1541
  614POPI   C4B 9812   4.499   3.073   8.344  0.2805 -0.1360  0.2446
  615POPI    C1 9813  11.841   4.429  10.222 -0.0316 -0.1563  0.0150
  615POPI    C2 9814  12.237   4.474  10.254 -0.0721  0.1781  0.0929
  615POPI    C3 9815  12.006   4.506  10.578 -0.1432 -0.2827  0.0948
  615POPI   PO4 9816  11.781   4.579  10.063  0.0365  0.0268  0.0588
  615POPI   GL1 9817  11.517   4.804   9.849 -0.0222  0.0700 -0.1179
  615POPI   GL2 9818  11.701   5.071   9.983  0.0255 -0.0515 -0.4226
  615POPI   C1A 9819  11.451   4.894   9.399 -0.1787  0.0707  0.4786
  615POPI   D2A 9820  11.513   4.929   8.944  0.2853 -0.3037 -0.1758
  615POPI   C3A 9821  11.318   4.814   8.648  0.1131 -0.2404  0.1131
  615POPI   C4A 9822  11.367   4.923   8.196 -0.0684  0.1289 -0.0827
  615POPI   C1B 9823  11.639   5.294   9.563  0.0962  0.1235  0.1903
  615POPI   C2B 9824  11.619   5.358   9.169 -0.2196 -0.1431  0.0249
  615POPI   C3B 9825  11.599   5.415   8.710 -0.0618  0.0504  0.0122
  615POPI   C4B 9826  11.471   5.371   8.431  0.0411  0.0134  0.0365
  616POPI    C1 9827   8.023   4.878  10.625  0.0257 -0.0083  0.2286
  616POPI    C2 9828   8.266   4.838  10.940  0.0712  0.0224  0.1975
  616POPI    C3 9829   8.071   4.520  10.797  0.1059 -0.0056  0.2123
  616POPI   PO4 9830   8.114   4.902  10.430 -0.0407  0.0567 -0.1079
  616POPI   GL1 9831   7.870   4.949  10.102  0.0275  0.2641 -0.2738
  616POPI   GL2 9832   7.723   4.761   9.822 -0.0939 -0.1622  0.1682
  616POPI   C1A 9833   7.953   5.262   9.789  0.0702 -0.2441 -0.2555
  616POPI   D2A 9834   7.986   5.389   9.378  0.2012 -0.1671 -0.1718
  616POPI   C3A 9835   8.043   5.323   9.008 -0.1348 -0.0441 -0.1798
  616POPI   C4A 9836   7.952   5.312   8.637 -0.2690 -0.2287 -0.2030
  616POPI   C1B 9837   7.701   4.939   9.430  0.2658  0.2290  0.2137
  616POPI   C2B 9838   7.702   4.894   8.917 -0.0491 -0.1616 -0.1085
  616POPI   C3B 9839   7.727   4.836   8.485  0.1149 -0.0956  0.3222
  616POPI   C4B 9840   7.620   4.816   8.096 -0.0984  0.1432  0.2479
  617POPI    C1 9841   4.394   4.100  10.711  0.3594 -0.3086 -0.0513
  617POPI    C2 9842   4.379   4.385  10.991 -0.0282 -0.3659 -0.0085
  617POPI    C3 9843   4.356   4.000  11.097  0.1370 -0.4007 -0.0956
  617POPI   PO4 9844   4.419   4.214  10.497 -0.0634  0.0645  0.0099
  617POPI   GL1 9845   4.523   4.121  10.073  0.2230  0.1371 -0.2003
  617POPI   GL2 9846   4.302   4.024   9.971 -0.5195 -0.3012 -0.0473
  617POPI   C1A 9847   4.823   4.320   9.763  0.1913 -0.1000 -0.0353
  617POPI   D2A 9848   4.962   4.265   9.307 -0.1713  0.0476 -0.2315
  617POPI   C3A 9849   4.773   4.351   8.945  0.2481 -0.1570 -0.2507
  617POPI   C4A 9850   4.808   4.312   8.534  0.1338 -0.0186 -0.0864
  617POPI   C1B 9851   4.371   4.276   9.537  0.0920 -0.0831 -0.1687
  617POPI   C2B 9852   4.227   4.381   9.103 -0.3372  0.1067 -0.1197
  617POPI   C3B 9853   4.189   4.455   8.671  0.2778 -0.3184 -0.1360
  617POPI   C4B 9854   4.350   4.388   8.255  0.0638 -0.1296 -0.0864
  618POPI    C1 9855   7.165   0.617  10.419  0.1204 -0.1740  0.2218
  618POPI    C2 9856   6.801   0.600  10.584  0.0191 -0.0118  0.0195
  618POPI    C3 9857   7.099   0.380  10.734 -0.1455 -0.0969  0.2266
  618POPI   PO4 9858   7.092   0.645  10.130  0.1300  0.0915 -0.1906
  618POPI   GL1 9859   6.852   0.836   9.915 -0.1242 -0.0278  0.2996
  618POPI   GL2 9860   6.569   1.009   9.866  0.2201 -0.2534 -0.1652
  618POPI   C1A 9861   6.842   0.773   9.483  0.0595 -0.1019  0.3267
  618POPI   D2A 9862   6.860   0.562   9.088 -0.1018 -0.0898 -0.0928
  618POPI   C3A 9863   6.538   0.718   8.764  0.1395 -0.0800 -0.0800
  618POPI   C4A 9864   6.373   0.811   8.420 -0.2246 -0.0296 -0.0225
  618POPI   C1B 9865   6.524   1.132   9.456  0.1173 -0.1365 -0.0424
  618POPI   C2B 9866   6.465   1.105   9.069  0.0021 -0.1314 -0.2387
  618POPI   C3B 9867   6.404   1.271   8.774  0.1940 -0.1824  0.1522
  618POPI   C4B 9868   6.360   1.308   8.381  0.0753 -0.1235 -0.1190
  619POPI    C1 9869   0.729  15.983  10.692  0.0852 -0.1173 -0.2039
  619POPI    C2 9870   0.954  15.671  10.802  0.0562 -0.0407  0.0798
  619POPI    C3 9871   0.923  15.989  11.042 -0.1652  0.0493 -0.0652
  619POPI   PO4 9872   0.852  16.099  10.404 -0.1051  0.3443 -0.0859
  619POPI   GL1 9873   1.130  16.271  10.151  0.0663 -0.0231 -0.2861
  619POPI   GL2 9874   1.104  16.537  10.015 -0.0760  0.2264  0.2872
  619POPI   C1A 9875   1.002  16.092   9.711  0.0858 -0.1009  0.0575
  619POPI   D2A 9876   0.793  15.896   9.439  0.1444 -0.1371  0.0150
  619POPI   C3A 9877   0.871  16.090   9.124  0.0373  0.5533 -0.1409
  619POPI   C4A 9878   0.841  16.067   8.739 -0.2362 -0.0315  0.2473
  619POPI   C1B 9879   1.326  16.439   9.668 -0.0002 -0.0811  0.2461
  619POPI   C2B 9880   1.267  16.325   9.346 -0.0273 -0.0326 -0.2409
  619POPI   C3B 9881   1.245  16.344   8.895  0.0882  0.2185  0.1648
  619POPI   C4B 9882   1.280  16.218   8.508 -0.1234  0.2089 -0.2500
  620POPI    C1 9883  13.622   0.149  10.820  0.0018  0.0181 -0.1038
  620POPI    C2 9884  13.779   0.216  11.181  0.0320 -0.0914 -0.0965
  620POPI    C3 9885  13.395   0.112  11.147  0.0085 -0.0032 -0.1017
  620POPI   PO4 9886  13.804   0.217  10.647 -0.3586 -0.2870 -0.1288
  620POPI   GL1 9887  13.839   0.146  10.285 -0.1125 -0.2356  0.0340
  620POPI   GL2 9888  13.881   0.435  10.171 -0.1766 -0.2665 -0.1821
  620POPI   C1A 9889  13.857   0.081   9.791  0.0975 -0.0394 -0.1236
  620POPI   D2A 9890  13.804   0.010   9.377  0.3474 -0.2174  0.1041
  620POPI   C3A 9891  13.921   0.073   9.007 -0.0176  0.0733  0.1962
  620POPI   C4A 9892  13.936   0.159   8.556  0.0911 -0.1513  0.0972
  620POPI   C1B 9893  13.696   0.574   9.884 -0.1069  0.3059 -0.1162
  620POPI   C2B 9894  13.737   0.535   9.449  0.1508 -0.1213 -0.2938
  620POPI   C3B 9895  13.867   0.617   8.982 -0.0675  0.4937  0.1875
  620POPI   C4B 9896  13.786   0.671   8.485 -0.0236 -0.0669 -0.1459
  621POPI    C1 9897   1.249   9.605  10.861 -0.0036  0.0240  0.1064
  621POPI    C2 9898   1.569   9.371  10.807 -0.0639 -0.0691  0.1509
  621POPI    C3 9899   1.530   9.582  11.145  0.1150  0.2023  0.0051
  621POPI   PO4 9900   1.282   9.741  10.700 -0.2603  0.0944 -0.0124
  621POPI   GL1 9901   1.307   9.456  10.302 -0.3800 -0.0243 -0.0701
  621POPI   GL2 9902   1.571   9.136  10.333 -0.0424  0.1078  0.1439
  621POPI   C1A 9903   1.391   9.371   9.873  0.0565 -0.0077 -0.0808
  621POPI   D2A 9904   1.373   9.377   9.478 -0.1182  0.0161 -0.1178
  621POPI   C3A 9905   1.409   9.353   9.119 -0.2812  0.0775  0.3507
  621POPI   C4A 9906   1.487   9.362   8.662  0.2230  0.2172  0.1159
  621POPI   C1B 9907   1.619   8.873   9.936  0.3001 -0.1809 -0.3175
  621POPI   C2B 9908   1.575   8.830   9.484 -0.0188  0.0303  0.1555
  621POPI   C3B 9909   1.727   8.831   9.029 -0.2107  0.0725 -0.0128
  621POPI   C4B 9910   1.732   8.886   8.625  0.1289  0.2266  0.1872
  622POPI    C1 9911   1.311  16.872  10.502 -0.1781  0.1325  0.0171
  622POPI    C2 9912   0.920  16.831  10.431 -0.1787  0.0714  0.0553
  622POPI    C3 9913   1.058  16.818  10.807 -0.1349  0.0486  0.0385
  622POPI   PO4 9914   1.405  16.887  10.220 -0.3104  0.3548 -0.3098
  622POPI   GL1 9915   1.187  16.985   9.814 -0.3067 -0.0473 -0.0655
  622POPI   GL2 9916   0.936  17.002   9.930 -0.0979  0.2013  0.0185
  622POPI   C1A 9917   1.334  16.893   9.375  0.1050 -0.0608 -0.0481
  622POPI   D2A 9918   1.232  16.829   8.975 -0.0438  0.1547  0.0416
  622POPI   C3A 9919   1.221  16.909   8.571 -0.1121 -0.0574  0.1025
  622POPI   C4A 9920   1.040  16.780   8.220  0.1639  0.1807  0.2502
  622POPI   C1B 9921   0.817  17.114   9.496 -0.0589 -0.0167 -0.0125
  622POPI   C2B 9922   0.779  17.080   9.066 -0.0800  0.2412  0.0434
  622POPI   C3B 9923   0.771  17.024   8.635  0.2038 -0.0676 -0.2434
  622POPI   C4B 9924   0.579  17.089   8.130 -0.0140 -0.0724 -0.0010
  623POPI    C1 9925  14.715   9.514  10.847 -0.1184 -0.0672 -0.1592
  623POPI    C2 9926  14.988   9.435  11.129  0.1011  0.1109 -0.3178
  623POPI    C3 9927  14.793   9.135  10.950  0.1434 -0.0146 -0.1563
  623POPI   PO4 9928  14.844   9.748  10.637 -0.1483 -0.1140  0.1222
  623POPI   GL1 9929  14.615   9.762  10.340 -0.3102 -0.1142 -0.2933
  623POPI   GL2 9930  14.679   9.984  10.185 -0.4253 -0.0389 -0.1997
  623POPI   C1A 9931  14.489   9.590   9.941 -0.1936 -0.0810 -0.0340
  623POPI   D2A 9932  14.372   9.400   9.610  0.0785  0.0242 -0.1250
  623POPI   C3A 9933  14.440   9.351   9.259 -0.1468  0.0700 -0.4065
  623POPI   C4A 9934  14.551   9.439   8.827  0.2129  0.0249  0.1899
  623POPI   C1B 9935  14.784  10.022   9.736  0.0413 -0.1508 -0.1974
  623POPI   C2B 9936  14.944   9.984   9.355  0.0277 -0.0151  0.3089
  623POPI   C3B 9937  14.695   9.935   9.013 -0.2284 -0.1485  0.0484
  623POPI   C4B 9938  14.753   9.901   8.568  0.0208 -0.0082 -0.0533
  624POPI    C1 9939  14.961   6.474  10.673  0.1403  0.2482 -0.1266
  624POPI    C2 9940  14.631   6.401  10.458  0.1852 -0.0528 -0.0983
  624POPI    C3 9941  14.605   6.595  10.807  0.0409 -0.0561 -0.1069
  624POPI   PO4 9942  15.073   6.641  10.548  0.3004  0.1302  0.2931
  624POPI   GL1 9943  15.098   6.598  10.182  0.0890  0.1152  0.1799
  624POPI   GL2 9944  15.045   6.792  10.039 -0.1622 -0.3483 -0.1311
  624POPI   C1A 9945  15.202   6.313   9.821 -0.0614 -0.2690 -0.3487
  624POPI   D2A 9946  15.250   6.155   9.415 -0.3101  0.1133  0.1047
  624POPI   C3A 9947  15.182   6.307   9.000 -0.0292 -0.2705 -0.0618
  624POPI   C4A 9948  15.329   6.301   8.586 -0.3221 -0.0314  0.1125
  624POPI   C1B 9949  14.963   6.738   9.587  0.2957  0.0495  0.0075
  624POPI   C2B 9950  14.964   6.734   9.184  0.0878 -0.2366  0.0128
  624POPI   C3B 9951  15.006   6.772   8.857  0.0773 -0.0026 -0.2749
  624POPI   C4B 9952  15.010   6.868   8.415 -0.0596 -0.1410  0.0700
  625DPPI    C1 9953  12.259   0.397  10.636 -0.1687 -0.2425 -0.1816
  625DPPI    C2 9954  12.640   0.383  10.514 -0.0782  0.0437  0.0550
  625DPPI    C3 9955  12.553   0.351  10.903 -0.3069 -0.1331 -0.0080
  625DPPI   PO4 9956  12.071   0.351  10.445  0.0683  0.0218  0.1078
  625DPPI   GL1 9957  12.302   0.344  10.087  0.1217 -0.0816  0.0732
  625DPPI   GL2 9958  12.456  -0.038  10.121 -0.1168 -0.0652  0.0660
  625DPPI   C1A 9959  12.430   0.174   9.680  0.0126 -0.3068  0.3760
  625DPPI   C2A 9960  12.483   0.166   9.155 -0.1502 -0.1667  0.4180
  625DPPI   C3A 9961  12.600   0.146   8.699  0.1348  0.0106 -0.1526
  625DPPI   C4A 9962  12.549   0.249   8.339  0.2861 -0.0827 -0.2407
  625DPPI   C1B 9963  12.476  -0.325   9.745 -0.0483 -0.0794 -0.0091
  625DPPI   C2B 9964  12.469  -0.310   9.380 -0.0172  0.0875 -0.2080
  625DPPI   C3B 9965  12.584  -0.350   8.914 -0.0264 -0.1381 -0.0615
  625DPPI   C4B 9966  12.630  -0.352   8.471  0.2037 -0.0896  0.1389
  626DPPI    C1 9967   7.138   7.430  10.971 -0.0650 -0.3414  0.0505
  626DPPI    C2 9968   7.398   7.187  11.154  0.3085  0.0206  0.0146
  626DPPI    C3 9969   7.297   7.535  11.323  0.0868  0.0246 -0.1220
  626DPPI   PO4 9970   6.972   7.350  10.897  0.1929 -0.0801  0.1990
  626DPPI   GL1 9971   6.621   7.159  10.714  0.1019 -0.0899  0.0593
  626DPPI   GL2 9972   6.297   7.045  10.450 -0.2974  0.1044 -0.4813
  626DPPI   C1A 9973   6.850   7.123  10.296 -0.0743 -0.1769  0.0308
  626DPPI   C2A 9974   6.862   7.170   9.850  0.1243  0.1535  0.1533
  626DPPI   C3A 9975   6.908   7.169   9.470 -0.1078 -0.3177  0.1059
  626DPPI   C4A 9976   6.895   7.015   9.137  0.1780 -0.0385 -0.1447
  626DPPI   C1B 9977   6.361   7.110  10.005  0.1292  0.3895 -0.2592
  626DPPI   C2B 9978   6.435   7.112   9.565  0.0354  0.0341  0.0442
  626DPPI   C3B 9979   6.343   7.072   9.054  0.4471 -0.0542  0.0381
  626DPPI   C4B 9980   6.518   7.051   8.627  0.0122 -0.2516 -0.4224
  627DPPI    C1 9981  13.542  14.042  11.052  0.0256  0.0813 -0.0321
  627DPPI    C2 9982  13.802  13.738  11.067 -0.1552 -0.0759 -0.0416
  627DPPI    C3 9983  13.723  13.950  11.397 -0.1148 -0.1120 -0.0085
  627DPPI   PO4 9984  13.632  14.185  10.820  0.0515 -0.1478 -0.0702
  627DPPI   GL1 9985  13.454  14.420  10.411  0.1076 -0.2142  0.0054
  627DPPI   GL2 9986  13.431  14.729  10.201 -0.0435  0.0180  0.2848
  627DPPI   C1A 9987  13.422  14.264   9.968  0.2211 -0.0789 -0.1038
  627DPPI   C2A 9988  13.468  14.284   9.556 -0.1039 -0.2537  0.0103
  627DPPI   C3A 9989  13.432  14.184   9.056 -0.0725  0.1245  0.0831
  627DPPI   C4A 9990  13.434  14.225   8.559 -0.3625  0.1452 -0.0285
  627DPPI   C1B 9991  13.450  14.782   9.787 -0.0451 -0.1747 -0.0526
  627DPPI   C2B 9992  13.357  14.729   9.326  0.3630 -0.1264  0.0839
  627DPPI   C3B 9993  13.352  14.671   8.827 -0.1078  0.1190 -0.1655
  627DPPI   C4B 9994  13.420  14.700   8.409  0.2281 -0.2033 -0.0116
  628DPPI    C1 9995  14.961   5.880  10.601 -0.1204 -0.1272  0.1017
  628DPPI    C2 9996  14.962   6.071  10.952  0.2378  0.1576 -0.0467
  628DPPI    C3 9997  15.143   5.716  10.916 -0.1182 -0.0491  0.1413
  628DPPI   PO4 9998  15.001   6.071  10.341 -0.4354 -0.1325 -0.2200
  628DPPI   GL1 9999  14.799   6.127  10.030 -0.2480  0.2907  0.1211
  628DPPI   GL210000  14.575   5.979   9.899 -0.2342  0.0330  0.0526
  628DPPI   C1A10001  14.951   5.833   9.655  0.0638  0.2214  0.2048
  628DPPI   C2A10002  14.946   5.798   9.254  0.2670 -0.1146 -0.2157
  628DPPI   C3A10003  14.927   5.938   8.823 -0.1006  0.0396  0.1011
  628DPPI   C4A10004  14.957   5.905   8.379  0.0964 -0.1257  0.2017
  628DPPI   C1B10005  14.736   6.273   9.563 -0.3914  0.0279  0.3528
  628DPPI   C2B10006  14.674   6.259   9.211  0.0143  0.1780  0.1471
  628DPPI   C3B10007  14.682   6.364   8.723 -0.3350  0.0666  0.0494
  628DPPI   C4B10008  14.962   6.403   8.302  0.0531 -0.1457 -0.0340
  629DPPI    C110009  14.484   4.258  10.176 -0.0550  0.1288  0.0414
  629DPPI    C210010  14.355   4.470  10.489  0.0633  0.0506  0.1440
  629DPPI    C310011  14.657   4.212  10.533  0.0526  0.0081 -0.0254
  629DPPI   PO410012  14.534   4.429   9.990  0.0422 -0.3441  0.4680
  629DPPI   GL110013  14.508   4.410   9.568 -0.1655  0.1530 -0.1684
  629DPPI   GL210014  14.332   4.199   9.625 -0.0512  0.0570  0.0541
  629DPPI   C1A10015  14.671   4.435   9.232  0.1455 -0.0520 -0.1866
  629DPPI   C2A10016  14.680   4.474   8.871 -0.1565 -0.3035 -0.1181
  629DPPI   C3A10017  14.673   4.656   8.464  0.1013 -0.0179  0.3695
  629DPPI   C4A10018  14.957   4.680   8.157 -0.0508 -0.1111  0.1659
  629DPPI   C1B10019  14.219   4.184   9.122  0.0451 -0.1670 -0.0039
  629DPPI   C2B10020  14.098   4.274   8.681  0.0159  0.4616 -0.0333
  629DPPI   C3B10021  14.190   4.511   8.582 -0.0403 -0.3128  0.2232
  629DPPI   C4B10022  14.244   4.653   8.196  0.2384  0.0984 -0.0165
  630DPPI    C110023   6.397   1.290  10.610  0.0559 -0.1075  0.0347
  630DPPI    C210024   6.096   1.421  10.838  0.0919  0.2757 -0.1297
  630DPPI    C310025   6.471   1.536  10.916  0.1623  0.0314 -0.1008
  630DPPI   PO410026   6.358   1.294  10.279  0.1217  0.1180  0.0326
  630DPPI   GL110027   6.419   1.560   9.962  0.0555 -0.1088 -0.0549
  630DPPI   GL210028   6.060   1.687   9.919  0.1178  0.1411  0.1164
  630DPPI   C1A10029   6.630   1.625   9.492  0.0386  0.0533  0.2685
  630DPPI   C2A10030   6.645   1.620   9.025 -0.0811 -0.2164  0.0042
  630DPPI   C3A10031   6.444   1.748   8.611  0.1680 -0.0409 -0.0544
  630DPPI   C4A10032   6.352   1.769   8.121 -0.0638  0.0761  0.1133
  630DPPI   C1B10033   5.888   1.858   9.604  0.0369  0.2357 -0.0197
  630DPPI   C2B10034   5.831   1.988   9.257  0.5479  0.1714  0.3114
  630DPPI   C3B10035   5.739   2.055   8.846  0.2839  0.6214 -0.1481
  630DPPI   C4B10036   5.626   2.193   8.417 -0.1614 -0.2756 -0.2139
  631DPPI    C110037   9.413   1.835  10.454  0.1026  0.0068 -0.0219
  631DPPI    C210038   9.427   1.473  10.623  0.4934  0.0411  0.0299
  631DPPI    C310039   9.433   1.801  10.852 -0.2334  0.0883  0.0046
  631DPPI   PO410040   9.551   1.829  10.279 -0.0129 -0.0572  0.0351
  631DPPI   GL110041   9.647   1.996   9.884  0.0352  0.0161 -0.1788
  631DPPI   GL210042   9.693   1.665   9.853 -0.0610  0.0880  0.0638
  631DPPI   C1A10043   9.477   2.023   9.534  0.0305  0.3412 -0.0940
  631DPPI   C2A10044   9.529   2.011   9.056 -0.0609  0.0691  0.0280
  631DPPI   C3A10045   9.736   2.133   8.665  0.0518  0.1469  0.2923
  631DPPI   C4A10046  10.057   2.290   8.428 -0.1867 -0.4581 -0.3380
  631DPPI   C1B10047   9.604   1.460   9.395  0.2823  0.0768 -0.1097
  631DPPI   C2B10048   9.611   1.462   9.059 -0.3653 -0.0229 -0.0998
  631DPPI   C3B10049   9.609   1.518   8.575  0.3155  0.1889  0.1307
  631DPPI   C4B10050   9.636   1.486   8.171 -0.1933 -0.0537 -0.0704
  632DPPI    C110051  11.333  12.420  10.735 -0.1201 -0.1234  0.0100
  632DPPI    C210052  11.038  12.483  10.997 -0.0936 -0.3872  0.1056
  632DPPI    C310053  11.403  12.384  11.127  0.1637  0.3767  0.0140
  632DPPI   PO410054  11.217  12.415  10.565 -0.1708 -0.0379  0.0959
  632DPPI   GL110055  11.456  12.652  10.183  0.0437  0.3450 -0.1408
  632DPPI   GL210056  11.432  12.924  10.226 -0.0028 -0.3100 -0.0869
  632DPPI   C1A10057  11.370  12.610   9.778 -0.0597  0.1751  0.5288
  632DPPI   C2A10058  11.329  12.751   9.376  0.1880  0.0183  0.1911
  632DPPI   C3A10059  11.357  12.640   8.945 -0.1340  0.2083 -0.1835
  632DPPI   C4A10060  11.044  12.567   8.579 -0.1595 -0.0737 -0.0731
  632DPPI   C1B10061  11.320  13.138   9.875 -0.1206 -0.1794  0.0622
  632DPPI   C2B10062  11.323  13.256   9.408  0.0914 -0.2492 -0.2459
  632DPPI   C3B10063  11.340  13.290   9.026  0.4578 -0.0025 -0.2556
  632DPPI   C4B10064  11.377  13.228   8.633  0.2285  0.2379  0.0671
  633DPPI    C110065  17.315  13.270  10.367 -0.1290 -0.0617  0.0435
  633DPPI    C210066  17.528  13.517  10.599 -0.0647  0.0489 -0.1315
  633DPPI    C310067  17.526  13.124  10.674  0.3132  0.0287 -0.2094
  633DPPI   PO410068  17.335  13.271  10.122 -0.0759  0.1042 -0.3373
  633DPPI   GL110069  17.416  13.389   9.777  0.0869 -0.0913 -0.1554
  633DPPI   GL210070  17.591  13.108   9.722  0.0364 -0.0230 -0.0846
  633DPPI   C1A10071  17.245  13.357   9.383  0.4231  0.0136  0.0563
  633DPPI   C2A10072  17.228  13.340   8.972  0.0455 -0.0790  0.4313
  633DPPI   C3A10073  17.235  13.468   8.526  0.0226 -0.0214 -0.1908
  633DPPI   C4A10074  17.145  13.466   8.082  0.0059 -0.0602  0.1068
  633DPPI   C1B10075  17.688  12.979   9.276  0.0507  0.1057 -0.1244
  633DPPI   C2B10076  17.673  13.099   8.839  0.2345 -0.0522  0.0671
  633DPPI   C3B10077  17.685  13.199   8.374 -0.0788 -0.2986  0.0332
  633DPPI   C4B10078  17.897  13.307   7.989  0.1801 -0.0243  0.2398
  634DPPI    C110079  14.444  16.837  11.215 -0.0582  0.1193 -0.0434
  634DPPI    C210080  14.743  17.025  11.027  0.0139 -0.0737 -0.1239
  634DPPI    C310081  14.785  16.913  11.409 -0.0528  0.1273 -0.0563
  634DPPI   PO410082  14.371  16.620  10.995  0.1883 -0.0374 -0.0439
  634DPPI   GL110083  14.274  16.730  10.534 -0.2570  0.1044 -0.2049
  634DPPI   GL210084  14.472  16.419  10.459  0.1611 -0.1702  0.2414
  634DPPI   C1A10085  14.033  16.788  10.139 -0.3058  0.2053  0.2996
  634DPPI   C2A10086  13.955  16.899   9.757  0.0068  0.0100  0.4688
  634DPPI   C3A10087  14.035  16.825   9.359  0.1722 -0.1731 -0.3560
  634DPPI   C4A10088  14.119  16.812   8.927  0.0699  0.0667  0.3881
  634DPPI   C1B10089  14.627  16.133  10.121  0.1266 -0.0840 -0.3157
  634DPPI   C2B10090  14.575  16.147   9.622  0.0603  0.0183  0.0678
  634DPPI   C3B10091  14.597  16.113   9.186  0.1611 -0.1615 -0.1935
  634DPPI   C4B10092  14.667  16.051   8.792  0.0395 -0.0065 -0.1135
  635PYPI    C110093  10.559  10.411  10.832 -0.0115 -0.0356 -0.1003
  635PYPI    C210094  10.773  10.105  10.975 -0.1391 -0.0803 -0.0031
  635PYPI    C310095  10.670  10.406  11.216  0.1422  0.1311 -0.1414
  635PYPI   PO410096  10.514  10.245  10.565 -0.2382  0.0282 -0.0543
  635PYPI   GL110097  10.220  10.254  10.201 -0.1642 -0.1089 -0.0793
  635PYPI   GL210098  10.073  10.466  10.303 -0.0008  0.1388 -0.2116
  635PYPI   C1A10099  10.261  10.326   9.775 -0.0873 -0.0569 -0.3722
  635PYPI   C2A10100  10.236  10.326   9.291 -0.2989 -0.0780 -0.2488
  635PYPI   D3A10101  10.445  10.287   8.969 -0.0385 -0.0115 -0.1272
  635PYPI   C4A10102  10.324  10.150   8.699 -0.1465  0.0719 -0.1859
  635PYPI   C1B10103   9.996  10.736   9.919  0.0210 -0.1913 -0.0240
  635PYPI   C2B10104   9.993  10.711   9.431 -0.1398  0.0549  0.2079
  635PYPI   C3B10105  10.058  10.627   8.945  0.2022 -0.0419 -0.0139
  635PYPI   C4B10106  10.107  10.853   8.554 -0.0111  0.0353 -0.1423
  636PYPI    C110107  14.832  10.240  10.713 -0.0680  0.1305 -0.0190
  636PYPI    C210108  14.700  10.035  11.030 -0.1435  0.1242 -0.0542
  636PYPI    C310109  15.004  10.293  11.070  0.0633 -0.1170 -0.0432
  636PYPI   PO410110  14.619  10.297  10.647  0.1107  0.2166  0.2517
  636PYPI   GL110111  14.329  10.210  10.404  0.2273 -0.1699  0.0263
  636PYPI   GL210112  14.487  10.426  10.204 -0.3937  0.2613  0.0136
  636PYPI   C1A10113  14.236  10.032   9.983 -0.1303 -0.1863  0.0120
  636PYPI   C2A10114  14.266   9.962   9.568 -0.1661 -0.3233 -0.0154
  636PYPI   D3A10115  14.094   9.786   9.248 -0.0786  0.1934  0.0750
  636PYPI   C4A10116  14.204   9.892   8.890 -0.2273 -0.1340  0.2567
  636PYPI   C1B10117  14.585  10.522   9.736  0.0650 -0.3204  0.2091
  636PYPI   C2B10118  14.525  10.315   9.295  0.2940  0.0549  0.1402
  636PYPI   C3B10119  14.457  10.356   8.841  0.1906  0.0645 -0.0261
  636PYPI   C4B10120  14.413  10.338   8.431 -0.0334  0.1014  0.0339
  637PYPI    C110121  11.270   2.711  10.389  0.0805 -0.0901  0.1842
  637PYPI    C210122  10.987   2.628  10.659 -0.0172  0.0813  0.1359
  637PYPI    C310123  11.317   2.824  10.770 -0.0065  0.0537  0.1528
  637PYPI   PO410124  11.166   2.718  10.146 -0.0118  0.0713 -0.3842
  637PYPI   GL110125  11.149   2.974   9.829  0.0576  0.4019  0.0800
  637PYPI   GL210126  10.876   3.128   9.678 -0.0511 -0.1011 -0.0835
  637PYPI   C1A10127  11.246   2.689   9.477 -0.1748 -0.0482  0.0907
  637PYPI   C2A10128  11.264   2.688   8.989 -0.2009  0.4393  0.0649
  637PYPI   D3A10129  11.288   2.661   8.504  0.1406  0.1860  0.0590
  637PYPI   C4A10130  11.283   3.045   8.248 -0.1917  0.0094  0.2665
  637PYPI   C1B10131  10.988   3.130   9.267 -0.1766 -0.1346  0.0917
  637PYPI   C2B10132  10.961   3.020   8.832 -0.0006 -0.1342  0.0357
  637PYPI   C3B10133  10.821   2.911   8.471 -0.0427 -0.1419  0.1191
  637PYPI   C4B10134  10.818   3.089   8.042 -0.0938  0.0625  0.3499
  638PYPI    C110135   3.741  10.007  10.977  0.1925  0.0417  0.0929
  638PYPI    C210136   3.495   9.702  11.058 -0.0509  0.1353 -0.2695
  638PYPI    C310137   3.890   9.658  11.103 -0.1031 -0.1427 -0.0555
  638PYPI   PO410138   3.681   9.992  10.622 -0.0800 -0.1102  0.3582
  638PYPI   GL110139   3.795  10.274  10.228  0.0317 -0.0621 -0.0422
  638PYPI   GL210140   3.457  10.195  10.180  0.1302 -0.0606 -0.0677
  638PYPI   C1A10141   3.936  10.385   9.870 -0.0343  0.1456 -0.0564
  638PYPI   C2A10142   3.904  10.424   9.453 -0.0344 -0.2231  0.1553
  638PYPI   D3A10143   3.849  10.318   9.038  0.3799  0.0974 -0.3187
  638PYPI   C4A10144   3.561  10.167   8.820  0.0209  0.2042 -0.1331
  638PYPI   C1B10145   3.444  10.128   9.770 -0.1183  0.1559 -0.1954
  638PYPI   C2B10146   3.414   9.983   9.298 -0.0941 -0.0113 -0.0578
  638PYPI   C3B10147   3.202   9.801   8.878 -0.1838  0.2201  0.0897
  638PYPI   C4B10148   3.363   9.644   8.495  0.0592 -0.2072  0.3219
  639PYPI    C110149   3.666   3.121  10.525  0.0089 -0.0453 -0.2194
  639PYPI    C210150   3.589   2.819  10.777 -0.2091  0.0612 -0.1559
  639PYPI    C310151   3.546   3.198  10.899  0.1753  0.1231 -0.1994
  639PYPI   PO410152   3.669   3.078  10.294 -0.0951  0.2683 -0.0422
  639PYPI   GL110153   3.632   3.315   9.983  0.0532  0.0902 -0.1153
  639PYPI   GL210154   3.402   3.615   9.969 -0.0411  0.0410  0.1765
  639PYPI   C1A10155   3.780   3.390   9.599  0.0980  0.0694  0.0723
  639PYPI   C2A10156   3.873   3.468   9.073  0.3231  0.1881 -0.0729
  639PYPI   D3A10157   3.779   3.553   8.581 -0.1984 -0.0524 -0.0929
  639PYPI   C4A10158   3.848   3.464   8.088 -0.0235  0.2524  0.0879
  639PYPI   C1B10159   3.497   3.836   9.570  0.0311  0.1700  0.1799
  639PYPI   C2B10160   3.586   3.882   9.133  0.0588  0.0597  0.2055
  639PYPI   C3B10161   3.446   3.969   8.765  0.2400 -0.3741 -0.2395
  639PYPI   C4B10162   3.522   3.886   8.271  0.3344  0.1133  0.2519
  640PYPI    C110163   9.413   8.879  11.015  0.1357  0.0409 -0.2600
  640PYPI    C210164   9.272   8.634  11.298  0.1784  0.1653 -0.1302
  640PYPI    C310165   9.456   8.975  11.401  0.3039  0.1519 -0.3048
  640PYPI   PO410166   9.284   8.837  10.718 -0.1847  0.0904  0.0069
  640PYPI   GL110167   9.445   8.984  10.323 -0.0566  0.2359  0.2582
  640PYPI   GL210168   9.236   9.262  10.241  0.2717 -0.0462  0.0541
  640PYPI   C1A10169   9.551   8.969   9.926 -0.2918 -0.1270  0.1600
  640PYPI   C2A10170   9.535   9.012   9.621 -0.0921  0.2798 -0.1187
  640PYPI   D3A10171   9.599   8.843   9.212  0.3471 -0.2937 -0.0106
  640PYPI   C4A10172   9.550   8.991   8.836  0.1997 -0.0646  0.0669
  640PYPI   C1B10173   9.214   9.397   9.852  0.1843  0.1183 -0.0623
  640PYPI   C2B10174   9.260   9.409   9.451  0.1701 -0.1094 -0.0838
  640PYPI   C3B10175   9.206   9.438   9.077  0.2521  0.0658  0.0502
  640PYPI   C4B10176   9.259   9.356   8.676 -0.1950  0.1738  0.2438
  641ERGO   ROH10177   6.121   1.208   9.737  0.0246 -0.0777 -0.0092
  641ERGO    R110178   6.014   1.345   9.513  0.0345 -0.0712 -0.0098
  641ERGO    R210179   6.172   1.492   9.340  0.0385 -0.0452  0.0165
  641ERGO    R310180   6.055   1.333   9.152  0.0708 -0.0418 -0.0069
  641ERGO    R410181   6.091   1.592   9.019 -0.0161 -0.0035  0.0431
  641ERGO    R510182   5.905   1.480   9.036  0.0183 -0.0622  0.0346
  641ERGO    C110183   5.934   1.503   8.656 -0.0175  0.0241  0.0366
  641ERGO    C210184   5.896   1.551   8.238 -0.3915 -0.0986  0.1904
  642ERGO   ROH10185  11.629   3.036   9.530  0.0924  0.3195  0.1345
  642ERGO    R110186  11.602   2.977   9.254  0.1272  0.1617  0.1646
  642ERGO    R210187  11.469   3.144   9.078  0.2601  0.1229  0.0303
  642ERGO    R310188  11.703   3.131   8.940  0.2854 -0.0890  0.0888
  642ERGO    R410189  11.495   3.087   8.738  0.2763  0.2752  0.0046
  642ERGO    R510190  11.666   2.958   8.778  0.1129  0.0387 -0.0154
  642ERGO    C110191  11.730   3.041   8.411  0.3094  0.1650  0.0445
  642ERGO    C210192  11.868   3.055   8.172  0.0544 -0.2294 -0.0989
  643ERGO   ROH10193  14.866  17.277  10.168  0.1454 -0.1562  0.0469
  643ERGO    R110194  14.794  17.407   9.926 -0.0802 -0.2007  0.0883
  643ERGO    R210195  14.979  17.479   9.735 -0.1883  0.2512  0.1418
  643ERGO    R310196  14.818  17.335   9.570  0.1199 -0.0148  0.0629
  643ERGO    R410197  14.992  17.487   9.389 -0.0047  0.2233  0.1465
  643ERGO    R510198  14.774  17.482   9.387  0.0018 -0.1047  0.0203
  643ERGO    C110199  14.848  17.357   9.034  0.3915 -0.0430  0.0752
  643ERGO    C210200  14.939  17.425   8.728 -0.0459 -0.0745  0.3822
  644ERGO   ROH10201   5.316  16.548   9.669  0.1881  0.0113  0.0748
  644ERGO    R110202   5.248  16.594   9.398  0.0206 -0.1307  0.0894
  644ERGO    R210203   5.411  16.736   9.225 -0.2683  0.1380  0.0171
  644ERGO    R310204   5.389  16.513   9.073  0.0645  0.0735  0.0574
  644ERGO    R410205   5.426  16.730   8.880 -0.1957  0.0781  0.0223
  644ERGO    R510206   5.265  16.583   8.881  0.0050 -0.1396  0.0202
  644ERGO    C110207   5.413  16.516   8.536  0.1590 -0.0173  0.0632
  644ERGO    C210208   5.500  16.431   8.189 -0.2507 -0.0622  0.0760
  645ERGO   ROH10209  15.561   4.759   9.728 -0.0343  0.2538 -0.1406
  645ERGO    R110210  15.521   4.673   9.461  0.0163  0.0663 -0.0899
  645ERGO    R210211  15.289   4.727   9.321  0.0295 -0.0520 -0.1671
  645ERGO    R310212  15.462   4.830   9.139  0.0511 -0.1577 -0.2061
  645ERGO    R410213  15.217   4.775   8.986 -0.0298  0.0507 -0.1395
  645ERGO    R510214  15.418   4.706   8.938 -0.1002 -0.0933 -0.2100
  645ERGO    C110215  15.338   4.901   8.620 -0.0440  0.0113 -0.1600
  645ERGO    C210216  15.374   4.972   8.328 -0.1784 -0.1765  0.1444
  646ERGO   ROH10217   1.441  13.340  10.094 -0.0278  0.0256  0.1017
  646ERGO    R110218   1.526  13.419   9.835 -0.0523  0.0446  0.0999
  646ERGO    R210219   1.752  13.315   9.715  0.0546  0.2105  0.1598
  646ERGO    R310220   1.579  13.257   9.514  0.1370  0.0227  0.1399
  646ERGO    R410221   1.841  13.276   9.384  0.1699  0.0872  0.2039
  646ERGO    R510222   1.660  13.384   9.328  0.1285 -0.0282  0.0981
  646ERGO    C110223   1.731  13.200   9.001  0.3145 -0.1611  0.2110
  646ERGO    C210224   1.774  13.317   8.748  0.0469 -0.0297 -0.0414
  647ERGO   ROH10225  15.453   2.740   9.902  0.3443  0.0841  0.0525
  647ERGO    R110226  15.506   2.670   9.633  0.1903  0.0709  0.0263
  647ERGO    R210227  15.308   2.656   9.441  0.0922  0.1211  0.1316
  647ERGO    R310228  15.471   2.827   9.307  0.0670  0.0774  0.0405
  647ERGO    R410229  15.307   2.703   9.098 -0.1086  0.1384  0.1315
  647ERGO    R510230  15.525   2.712   9.104 -0.0964  0.0670 -0.0024
  647ERGO    C110231  15.460   2.890   8.773 -0.2493  0.1075  0.0459
  647ERGO    C210232  15.412   2.977   8.375 -0.2806  0.0592 -0.0766
  648ERGO   ROH10233  16.255  15.696  10.069  0.2688  0.3053 -0.1048
  648ERGO    R110234  16.200  15.511   9.862  0.2394  0.2339 -0.0331
  648ERGO    R210235  15.989  15.544   9.686  0.1468  0.1133  0.0583
  648ERGO    R310236  16.184  15.519   9.498  0.0669  0.1366 -0.0295
  648ERGO    R410237  15.933  15.513   9.346 -0.0238 -0.2536  0.1139
  648ERGO    R510238  16.093  15.366   9.338  0.1225 -0.1054  0.1616
  648ERGO    C110239  16.083  15.472   8.972 -0.1982 -0.4455  0.0638
  648ERGO    C210240  16.004  15.620   8.673  0.1686 -0.0599 -0.1149
  649ERGO   ROH10241   9.319   2.697   9.703  0.0553 -0.1463  0.1536
  649ERGO    R110242   9.357   2.580   9.449  0.1379 -0.1126  0.1500
  649ERGO    R210243   9.263   2.696   9.216 -0.0201 -0.2128  0.1609
  649ERGO    R310244   9.522   2.671   9.138 -0.0039  0.0555  0.1231
  649ERGO    R410245   9.367   2.660   8.889 -0.0399 -0.2449  0.1582
  649ERGO    R510246   9.515   2.514   8.957  0.1464 -0.0401  0.1992
  649ERGO    C110247   9.671   2.617   8.624 -0.0359 -0.0117  0.1211
  649ERGO    C210248   9.786   2.701   8.250 -0.0203 -0.2448 -0.2251
  650ERGO   ROH10249  17.193   9.944   9.977 -0.0401  0.0741  0.1259
  650ERGO    R110250  17.349   9.820   9.775 -0.3052 -0.2131  0.0882
  650ERGO    R210251  17.237   9.707   9.549 -0.5620  0.1339  0.0253
  650ERGO    R310252  17.410   9.872   9.420 -0.1596 -0.2029  0.1161
  650ERGO    R410253  17.287   9.713   9.207 -0.5980  0.2571  0.0227
  650ERGO    R510254  17.500   9.737   9.244 -0.5230 -0.3058  0.0077
  650ERGO    C110255  17.478   9.871   8.887 -0.2414  0.0127  0.1065
  650ERGO    C210256  17.458   9.899   8.505  0.0397 -0.2679  0.4212
  651ERGO   ROH10257   8.849  17.215  10.087 -0.1457 -0.1467 -0.1349
  651ERGO    R110258   8.969  17.253   9.834 -0.0972  0.0839 -0.0808
  651ERGO    R210259   9.083  17.046   9.691  0.2537  0.2725 -0.0921
  651ERGO    R310260   8.915  17.131   9.495  0.2034  0.0854 -0.1306
  651ERGO    R410261   9.134  17.000   9.352  0.2989  0.1884 -0.0730
  651ERGO    R510262   9.060  17.202   9.318  0.1599  0.1230 -0.1482
  651ERGO    C110263   9.006  17.053   8.971  0.2781 -0.0362 -0.0980
  651ERGO    C210264   8.966  17.049   8.616 -0.0803 -0.0381 -0.0345
  652ERGO   ROH10265   7.443   9.664  10.396 -0.0066 -0.2164 -0.0147
  652ERGO    R110266   7.343   9.770  10.153  0.0038 -0.1999 -0.0123
  652ERGO    R210267   7.497   9.926   9.985 -0.0395 -0.0395  0.0891
  652ERGO    R310268   7.423   9.742   9.799  0.1430 -0.0303  0.0051
  652ERGO    R410269   7.405   9.998   9.659 -0.1645  0.0155  0.1360
  652ERGO    R510270   7.248   9.848   9.676  0.0073 -0.1678  0.0815
  652ERGO    C110271   7.282   9.867   9.296 -0.0659  0.0562  0.0845
  652ERGO    C210272   7.340   9.777   8.897  0.0521  0.1163 -0.1627
  653ERGO   ROH10273  11.072  17.663  10.043  0.2354  0.0640 -0.1128
  653ERGO    R110274  11.170  17.726   9.785  0.1356  0.0780 -0.1470
  653ERGO    R210275  11.302  17.542   9.626  0.1314  0.1071 -0.1793
  653ERGO    R310276  11.112  17.611   9.444  0.0566  0.0493 -0.1249
  653ERGO    R410277  11.342  17.525   9.284 -0.0366 -0.0943 -0.1913
  653ERGO    R510278  11.235  17.714   9.267 -0.0027 -0.0763 -0.2437
  653ERGO    C110279  11.187  17.580   8.913 -0.2045 -0.2658 -0.1471
  653ERGO    C210280  11.187  17.585   8.525  0.0653 -0.0800 -0.0159
  654ERGO   ROH10281   0.681  14.525   9.630  0.1185  0.2449 -0.0637
  654ERGO    R110282   0.625  14.490   9.354  0.2397 -0.0173 -0.0604
  654ERGO    R210283   0.441  14.645   9.219 -0.0153 -0.4049 -0.2023
  654ERGO    R310284   0.651  14.691   9.052 -0.0379 -0.1381 -0.1636
  654ERGO    R410285   0.413  14.748   8.890 -0.0549 -0.2686 -0.1555
  654ERGO    R510286   0.575  14.612   8.838  0.0642 -0.0958 -0.2077
  654ERGO    C110287   0.593  14.851   8.542 -0.0991  0.0613 -0.0919
  654ERGO    C210288   0.545  14.892   8.269 -0.4694 -0.1835  0.0942
  655ERGO   ROH10289   8.223  16.290   9.927  0.0624  0.1326 -0.0512
  655ERGO    R110290   8.121  16.339   9.668  0.0735  0.1881 -0.0459
  655ERGO    R210291   8.224  16.535   9.502  0.2187  0.0886 -0.0816
  655ERGO    R310292   8.248  16.328   9.327  0.0303  0.0441 -0.0567
  655ERGO    R410293   8.207  16.563   9.158  0.0987  0.0286 -0.0810
  655ERGO    R510294   8.093  16.378   9.153 -0.0072  0.0970 -0.0032
  655ERGO    C110295   8.221  16.386   8.794 -0.1482 -0.0481 -0.0573
  655ERGO    C210296   8.125  16.366   8.427 -0.0489 -0.0572 -0.0720
  656ERGO   ROH10297   8.387   6.241  10.217  0.0145 -0.1382 -0.0320
  656ERGO    R110298   8.433   6.381   9.976 -0.0903 -0.1308 -0.0482
  656ERGO    R210299   8.628   6.306   9.794  0.0328  0.0484  0.0059
  656ERGO    R310300   8.419   6.307   9.620  0.0643 -0.2140 -0.0375
  656ERGO    R410301   8.658   6.290   9.450  0.1248  0.1223  0.0099
  656ERGO    R510302   8.497   6.436   9.434 -0.0707 -0.0892 -0.0080
  656ERGO    C110303   8.479   6.282   9.086  0.2079 -0.0810 -0.0283
  656ERGO    C210304   8.643   6.269   8.828 -0.1267 -0.2081  0.2099
  657ERGO   ROH10305   5.368   6.492  10.354 -0.0286 -0.0082 -0.0296
  657ERGO    R110306   5.409   6.660  10.129 -0.0990  0.0099 -0.0289
  657ERGO    R210307   5.617   6.622   9.951 -0.1133  0.0677 -0.0564
  657ERGO    R310308   5.417   6.620   9.768 -0.1359  0.0254 -0.0318
  657ERGO    R410309   5.663   6.640   9.609 -0.1430 -0.1878 -0.0763
  657ERGO    R510310   5.490   6.772   9.598 -0.0892 -0.1207 -0.1468
  657ERGO    C110311   5.502   6.649   9.238 -0.1816 -0.3763 -0.0648
  657ERGO    C210312   5.576   6.556   8.987 -0.0757 -0.0801  0.0832
  658ERGO   ROH10313   5.589   8.449   6.758 -0.2293  0.1161 -0.1301
  658ERGO    R110314   5.452   8.527   6.994 -0.1457 -0.0117 -0.0381
  658ERGO    R210315   5.576   8.537   7.241 -0.0068  0.0345 -0.1091
  658ERGO    R310316   5.483   8.793   7.241 -0.1815 -0.0272 -0.0168
  658ERGO    R410317   5.490   8.715   7.524  0.3675  0.0476  0.0011
  658ERGO    R510318   5.319   8.795   7.416  0.1166 -0.0962  0.2753
  658ERGO    C110319   5.353   9.058   7.690  0.4215 -0.0027  0.1520
  658ERGO    C210320   5.309   9.214   7.966 -0.2223  0.1810 -0.3408
  659ERGO   ROH10321  15.989   7.697   9.748 -0.0667  0.0356 -0.0803
  659ERGO    R110322  16.027   7.583   9.491 -0.1964  0.0110 -0.0900
  659ERGO    R210323  15.864   7.643   9.276 -0.0871  0.2739 -0.1082
  659ERGO    R310324  16.100   7.704   9.156  0.0225 -0.0473 -0.0637
  659ERGO    R410325  15.913   7.661   8.935 -0.0401  0.3829 -0.0953
  659ERGO    R510326  16.106   7.564   8.962 -0.1990  0.0486 -0.1398
  659ERGO    C110327  16.163   7.729   8.623  0.0903  0.1448 -0.0459
  659ERGO    C210328  16.025   7.761   8.297 -0.0533  0.1243  0.1829
  660ERGO   ROH10329  17.902   3.302   9.576 -0.3029  0.0232  0.1173
  660ERGO    R110330  17.743   3.302   9.342 -0.2712  0.1029  0.0963
  660ERGO    R210331  17.727   3.520   9.174 -0.0939  0.0905  0.0652
  660ERGO    R310332  17.799   3.340   8.984 -0.1974  0.0133  0.0974
  660ERGO    R410333  17.743   3.587   8.835  0.1765  0.0977  0.0769
  660ERGO    R510334  17.657   3.389   8.798 -0.0376  0.1962  0.0178
  660ERGO    C110335  17.820   3.456   8.460  0.2370  0.0294  0.1138
  660ERGO    C210336  17.825   3.476   8.187  0.0136 -0.0588 -0.2255
  661ERGO   ROH10337   2.548   1.153   6.289 -0.0640  0.3069 -0.2258
  661ERGO    R110338   2.392   1.350   6.419 -0.0270  0.2612 -0.1094
  661ERGO    R210339   2.222   1.520   6.283 -0.0836  0.3019  0.0001
  661ERGO    R310340   2.038   1.424   6.459 -0.0159  0.2332  0.0327
  661ERGO    R410341   1.905   1.650   6.328 -0.1733  0.0950 -0.0262
  661ERGO    R510342   1.928   1.619   6.543 -0.1487  0.1781 -0.0235
  661ERGO    C110343   1.547   1.636   6.519 -0.1619 -0.0899 -0.0108
  661ERGO    C210344   1.272   1.771   6.723  0.0357 -0.1763  0.0431
  662ERGO   ROH10345   2.883   2.036   9.743  0.0806 -0.0173  0.0045
  662ERGO    R110346   2.956   1.930   9.491 -0.1224  0.0834 -0.1009
  662ERGO    R210347   2.797   1.956   9.266 -0.1586  0.4580 -0.0447
  662ERGO    R310348   3.024   2.061   9.159 -0.0537  0.2627 -0.0156
  662ERGO    R410349   2.852   2.006   8.928 -0.0157  0.3105 -0.0435
  662ERGO    R510350   3.056   1.938   8.956 -0.0762  0.1774  0.0377
  662ERGO    C110351   3.096   2.133   8.631  0.1660  0.0412 -0.0155
  662ERGO    C210352   3.065   2.251   8.313  0.2467  0.0251 -0.0139
  663ERGO   ROH10353   0.605   6.969  10.372 -0.2106 -0.0223  0.0791
  663ERGO    R110354   0.484   6.970  10.116 -0.1228  0.0977  0.0362
  663ERGO    R210355   0.508   7.183   9.941  0.0605  0.1214  0.0826
  663ERGO    R310356   0.598   6.991   9.771  0.0101  0.1012  0.0803
  663ERGO    R410357   0.483   7.196   9.596  0.1130  0.1540  0.0807
  663ERGO    R510358   0.434   6.984   9.597  0.0335  0.1750  0.0580
  663ERGO    C110359   0.552   7.023   9.236  0.0963  0.1539  0.0774
  663ERGO    C210360   0.597   7.066   8.860 -0.0282  0.1032 -0.0232
  664ERGO   ROH10361   5.035   6.200  10.249 -0.1518  0.2808 -0.0250
  664ERGO    R110362   5.129   6.306  10.004  0.0399  0.0996 -0.0310
  664ERGO    R210363   5.328   6.184   9.855 -0.1646 -0.2605 -0.0118
  664ERGO    R310364   5.143   6.196   9.657 -0.1394  0.0442 -0.0237
  664ERGO    R410365   5.399   6.168   9.517 -0.1618 -0.4116 -0.0061
  664ERGO    R510366   5.249   6.322   9.484  0.0989 -0.1464 -0.0283
  664ERGO    C110367   5.266   6.171   9.134 -0.1364 -0.2134 -0.0139
  664ERGO    C210368   5.378   6.110   8.865 -0.1076  0.0350 -0.2330
  665ERGO   ROH10369   1.672   4.475   9.591 -0.0635  0.2153 -0.0179
  665ERGO    R110370   1.658   4.346   9.339  0.1149  0.1202  0.0203
  665ERGO    R210371   1.456   4.395   9.157  0.0355 -0.2225  0.0129
  665ERGO    R310372   1.664   4.446   8.990 -0.0404  0.0280 -0.0106
  665ERGO    R410373   1.435   4.400   8.812  0.0028 -0.3341  0.0125
  665ERGO    R510374   1.628   4.299   8.804  0.1491 -0.0715  0.0260
  665ERGO    C110375   1.618   4.450   8.454 -0.0875 -0.1639 -0.0099
  665ERGO    C210376   1.497   4.549   8.167  0.0208 -0.0618  0.1311
  666ERGO   ROH10377   9.859   6.778  10.057  0.2987 -0.1371 -0.0131
  666ERGO    R110378   9.877   6.664   9.799  0.1188 -0.0585 -0.0622
  666ERGO    R210379   9.670   6.677   9.615  0.0446  0.1291  0.0298
  666ERGO    R310380   9.862   6.784   9.455  0.0405  0.0713 -0.0139
  666ERGO    R410381   9.664   6.675   9.270 -0.1021  0.2617  0.0307
  666ERGO    R510382   9.877   6.633   9.271 -0.1288  0.1321 -0.0770
  666ERGO    C110383   9.841   6.775   8.919 -0.1915  0.2847 -0.0098
  666ERGO    C210384   9.800   6.755   8.566 -0.1698 -0.0342 -0.2303
  667ERGO   ROH10385  17.146   1.414   5.841  0.0599  0.0385 -0.0487
  667ERGO    R110386  17.100   1.621   6.028  0.0921  0.0542 -0.0569
  667ERGO    R210387  16.855   1.660   6.151  0.1034  0.0793 -0.0330
  667ERGO    R310388  17.004   1.645   6.378  0.1278  0.0799 -0.0499
  667ERGO    R410389  16.773   1.808   6.452  0.2059  0.1831 -0.0564
  667ERGO    R510390  16.983   1.861   6.478  0.2256  0.1095 -0.0985
  667ERGO    C110391  16.866   1.880   6.841  0.2885  0.2442 -0.0859
  667ERGO    C210392  16.882   1.812   7.210  0.3438 -0.3610  0.1926
  668ERGO   ROH10393   0.428  13.753   9.867 -0.0701  0.0675  0.0635
  668ERGO    R110394   0.628  13.682   9.680 -0.0795 -0.1009  0.1160
  668ERGO    R210395   0.591  13.487   9.488 -0.2391  0.0159  0.0264
  668ERGO    R310396   0.666  13.686   9.318  0.0661 -0.0047  0.1312
  668ERGO    R410397   0.651  13.446   9.150 -0.2542  0.0936  0.0139
  668ERGO    R510398   0.821  13.581   9.169 -0.0616 -0.1549  0.1019
  668ERGO    C110399   0.757  13.609   8.794  0.0235  0.1194  0.1051
  668ERGO    C210400   0.768  13.672   8.474  0.0216  0.2860  0.1664
  669ERGO   ROH10401  10.314  18.189   6.441  0.0574  0.0696  0.1227
  669ERGO    R110402  10.249  18.104   6.702 -0.0124  0.0710  0.1068
  669ERGO    R210403  10.089  17.883   6.751  0.0782 -0.0081  0.0679
  669ERGO    R310404  10.300  17.805   6.903  0.0559  0.1242  0.1673
  669ERGO    R410405  10.066  17.688   7.036  0.0802 -0.1551 -0.0325
  669ERGO    R510406  10.218  17.814   7.128 -0.0961 -0.0519  0.1198
  669ERGO    C110407  10.251  17.501   7.344  0.0605 -0.1167  0.0024
  669ERGO    C210408  10.405  17.396   7.716  0.0938 -0.3334  0.0387
  670ERGO   ROH10409  10.127  12.122  10.011  0.0362 -0.0007 -0.0973
  670ERGO    R110410  10.147  12.233   9.751 -0.0769 -0.0136 -0.1121
  670ERGO    R210411  10.334  12.147   9.566 -0.0881  0.0473 -0.1552
  670ERGO    R310412  10.114  12.113   9.409 -0.1167 -0.0562 -0.0926
  670ERGO    R410413  10.308  12.249   9.237 -0.1535 -0.1698 -0.2185
  670ERGO    R510414  10.103  12.312   9.277 -0.1437 -0.1446 -0.2223
  670ERGO    C110415  10.087  12.276   8.898 -0.2184 -0.3933 -0.1966
  670ERGO    C210416   9.981  12.347   8.564  0.0408 -0.1160 -0.1799
  671ERGO   ROH10417   3.160   8.926  10.074 -0.0902 -0.2996 -0.0718
  671ERGO    R110418   3.117   8.948   9.796 -0.1115 -0.2891 -0.0670
  671ERGO    R210419   3.305   9.054   9.624 -0.2010 -0.1072 -0.0495
  671ERGO    R310420   3.271   8.819   9.493 -0.0090 -0.1129 -0.0927
  671ERGO    R410421   3.290   9.022   9.281 -0.1366 -0.0551 -0.0580
  671ERGO    R510422   3.130   8.875   9.307 -0.0329 -0.1832 -0.0997
  671ERGO    C110423   3.249   8.782   8.957  0.0811 -0.0300 -0.1035
  671ERGO    C210424   3.186   8.728   8.598 -0.2702  0.2470 -0.2047
  672ERGO   ROH10425  17.800  16.158  10.091  0.3684 -0.1371 -0.1656
  672ERGO    R110426  17.906  16.156   9.829  0.1481 -0.1312 -0.2550
  672ERGO    R210427  17.809  15.990   9.630 -0.1451  0.0185 -0.2259
  672ERGO    R310428  17.783  16.223   9.493 -0.0740  0.0811 -0.1380
  672ERGO    R410429  17.804  16.016   9.286 -0.3084  0.1058 -0.2195
  672ERGO    R510430  17.927  16.196   9.303 -0.1796  0.0361 -0.2248
  672ERGO    C110431  17.778  16.250   8.956 -0.3366  0.2153 -0.1333
  672ERGO    C210432  17.813  16.232   8.670  0.0620 -0.0212  0.0451
  673ERGO   ROH10433  10.878  11.266   9.948  0.0254 -0.0687  0.0184
  673ERGO    R110434  10.755  11.178   9.708 -0.1004  0.0878  0.0229
  673ERGO    R210435  10.682  11.351   9.506  0.1098  0.1872  0.0265
  673ERGO    R310436  10.834  11.186   9.353 -0.1046 -0.0080  0.0199
  673ERGO    R410437  10.715  11.375   9.163  0.3174  0.3006  0.0534
  673ERGO    R510438  10.707  11.158   9.152 -0.0613  0.3155 -0.0570
  673ERGO    C110439  10.877  11.234   8.819  0.2371  0.1833  0.0630
  673ERGO    C210440  10.862  11.128   8.568 -0.0642 -0.2264  0.1740
  674PSPI    C110441  12.030   3.933   5.465  0.0620 -0.1175  0.0866
  674PSPI    C210442  12.368   4.110   5.343  0.0732 -0.0664  0.1909
  674PSPI    C310443  12.035   4.141   5.124  0.0929  0.0258  0.1739
  674PSPI   PO410444  12.071   4.009   5.773 -0.5453  0.0229 -0.1355
  674PSPI   GL110445  12.194   4.081   6.205 -0.0336  0.0127 -0.2909
  674PSPI   GL210446  12.354   4.406   6.278  0.0132  0.1998 -0.1488
  674PSPI   C1A10447  12.339   3.868   6.552  0.1944  0.0806  0.3337
  674PSPI   C2A10448  12.416   3.682   6.915  0.1813 -0.2532 -0.0254
  674PSPI   C3A10449  12.512   3.721   7.286  0.0209  0.2014 -0.0518
  674PSPI   C4A10450  12.498   4.060   7.561  0.0727  0.1381  0.1273
  674PSPI   C1B10451  12.392   4.432   6.682 -0.0086  0.1047 -0.1138
  674PSPI   C2B10452  12.293   4.119   6.988 -0.1179  0.4090 -0.1461
  674PSPI   C3B10453  11.957   3.806   7.074 -0.0010  0.2992 -0.2438
  674PSPI   C4B10454  12.074   3.580   7.455  0.0501  0.0203  0.1474
  675PSPI    C110455  16.837   6.279   5.649 -0.0636  0.0691 -0.1148
  675PSPI    C210456  16.927   6.665   5.593 -0.0440  0.0642 -0.1171
  675PSPI    C310457  17.189   6.422   5.772 -0.0257  0.0349 -0.1833
  675PSPI   PO410458  16.477   6.292   5.665 -0.3741  0.0841  0.0186
  675PSPI   GL110459  16.237   6.345   6.047  0.3436 -0.0241 -0.0456
  675PSPI   GL210460  15.970   6.273   5.862  0.0698  0.0129 -0.0777
  675PSPI   C1A10461  16.301   6.272   6.502  0.1565  0.0062  0.0108
  675PSPI   C2A10462  16.518   6.182   6.878  0.1375 -0.1332 -0.1046
  675PSPI   C3A10463  16.828   6.331   7.106 -0.1233 -0.1367 -0.1267
  675PSPI   C4A10464  16.932   6.844   6.828  0.1304  0.1778 -0.1766
  675PSPI   C1B10465  15.780   6.330   6.404 -0.1942  0.0201 -0.3001
  675PSPI   C2B10466  15.863   6.283   6.831  0.0691 -0.1094  0.0796
  675PSPI   C3B10467  16.152   6.307   7.209 -0.1267  0.2020  0.3491
  675PSPI   C4B10468  16.520   6.383   7.507  0.2532  0.0378  0.0759
  676PSPI    C110469  10.107  17.929   5.559  0.0325 -0.1836 -0.3908
  676PSPI    C210470  10.440  18.008   5.352  0.3319 -0.1099  0.1039
  676PSPI    C310471  10.408  17.665   5.557  0.0168 -0.2070 -0.1016
  676PSPI   PO410472   9.984  18.185   5.605 -0.3250 -0.3354  0.3612
  676PSPI   GL110473   9.858  18.312   6.031  0.1890 -0.1754  0.1495
  676PSPI   GL210474   9.790  18.581   6.161  0.0740  0.1059  0.1623
  676PSPI   C1A10475   9.849  18.189   6.482  0.0558 -0.0509 -0.0035
  676PSPI   C2A10476   9.749  18.145   6.901  0.0816  0.0284 -0.3269
  676PSPI   C3A10477   9.918  18.071   7.386 -0.2352  0.0211 -0.1258
  676PSPI   C4A10478   9.942  18.312   7.777 -0.0196  0.0505 -0.2216
  676PSPI   C1B10479   9.802  18.967   6.385  0.0958 -0.1096 -0.4133
  676PSPI   C2B10480   9.794  19.175   6.771  0.0900  0.0232  0.3184
  676PSPI   C3B10481   9.733  19.083   7.260  0.1589 -0.4117 -0.0462
  676PSPI   C4B10482   9.537  19.061   7.661 -0.5902  0.1489 -0.2431
  677PSPI    C110483   2.168   5.238   5.437  0.0285  0.0551 -0.1277
  677PSPI    C210484   1.840   5.010   5.456  0.0545  0.0280 -0.0016
  677PSPI    C310485   2.152   4.893   5.235 -0.0065  0.0359 -0.0921
  677PSPI   PO410486   2.148   5.310   5.767 -0.0455 -0.0793  0.0528
  677PSPI   GL110487   2.239   5.112   6.198  0.1761  0.5946 -0.2552
  677PSPI   GL210488   2.527   5.030   6.162 -0.1351  0.0480 -0.0386
  677PSPI   C1A10489   2.190   5.113   6.642  0.1759 -0.0013 -0.0713
  677PSPI   C2A10490   2.119   5.101   7.124 -0.0616  0.0241 -0.1367
  677PSPI   C3A10491   1.995   5.093   7.513 -0.0944  0.0912 -0.0836
  677PSPI   C4A10492   1.625   5.124   7.767 -0.0312  0.1196 -0.2252
  677PSPI   C1B10493   2.608   4.821   6.560 -0.1505 -0.2573 -0.2576
  677PSPI   C2B10494   2.404   4.634   7.039  0.0914 -0.3370  0.1524
  677PSPI   C3B10495   2.281   4.513   7.387  0.1077 -0.1524 -0.1166
  677PSPI   C4B10496   2.324   4.516   7.860  0.0808  0.2505  0.1075
  678PSPI    C110497   0.770  10.845   5.370 -0.4282 -0.0324 -0.0272
  678PSPI    C210498   0.934  11.209   5.376 -0.2025 -0.1344  0.0953
  678PSPI    C310499   0.845  11.036   5.027  0.2591 -0.2116  0.0099
  678PSPI   PO410500   0.841  10.632   5.555  0.0825  0.1608 -0.1202
  678PSPI   GL110501   0.818  10.161   5.881 -0.2206  0.1351  0.1523
  678PSPI   GL210502   1.163  10.359   5.930 -0.0118 -0.2412  0.1150
  678PSPI   C1A10503   0.686  10.093   6.256 -0.1279  0.0721  0.2051
  678PSPI   C2A10504   0.724  10.176   6.585  0.1361  0.1357 -0.2445
  678PSPI   C3A10505   0.909  10.305   6.923  0.0354  0.3043  0.1185
  678PSPI   C4A10506   1.073  10.430   7.401 -0.1461 -0.4545  0.0579
  678PSPI   C1B10507   1.157  10.435   6.374 -0.5383  0.0965  0.2985
  678PSPI   C2B10508   1.383  10.469   6.762 -0.1586 -0.0385 -0.1790
  678PSPI   C3B10509   1.512  10.583   7.104  0.4129 -0.2672  0.1532
  678PSPI   C4B10510   1.850  10.276   7.253 -0.1398 -0.1737 -0.2257
  679PSPI    C110511   8.808   8.326   5.816 -0.1041  0.1040 -0.0825
  679PSPI    C210512   9.000   8.262   5.471  0.1348  0.0035  0.0661
  679PSPI    C310513   8.998   8.628   5.634  0.2052  0.0036  0.0669
  679PSPI   PO410514   8.941   8.190   6.036  0.1970 -0.1691  0.0284
  679PSPI   GL110515   9.078   8.349   6.409  0.1301  0.0200 -0.0502
  679PSPI   GL210516   8.956   8.189   6.691  0.1184 -0.1276 -0.1894
  679PSPI   C1A10517   9.281   8.740   6.610  0.1433  0.2513  0.3949
  679PSPI   C2A10518   9.420   8.806   7.091  0.0596 -0.1048  0.0809
  679PSPI   C3A10519   9.876   8.640   7.157 -0.2202  0.2722 -0.1152
  679PSPI   C4A10520  10.193   8.826   7.450  0.1284  0.1687 -0.1597
  679PSPI   C1B10521   9.103   8.454   6.976 -0.2219  0.3182 -0.3108
  679PSPI   C2B10522   9.176   8.593   7.438 -0.1557  0.2720  0.1255
  679PSPI   C3B10523   9.597   8.633   7.590 -0.1506 -0.0426  0.3145
  679PSPI   C4B10524   9.684   9.058   7.465  0.0493 -0.1791 -0.3717
  680PSPI    C110525   2.438   1.053   5.802  0.1006 -0.0103 -0.0467
  680PSPI    C210526   2.200   1.154   5.497  0.0102  0.1833  0.0855
  680PSPI    C310527   2.137   1.310   5.860  0.0202 -0.1641  0.2405
  680PSPI   PO410528   2.720   1.108   5.846  0.0594  0.2410 -0.0933
  680PSPI   GL110529   2.954   0.924   6.088 -0.2631 -0.1074 -0.3152
  680PSPI   GL210530   2.791   0.691   6.080 -0.0903  0.1980 -0.1318
  680PSPI   C1A10531   2.964   0.932   6.561  0.1753  0.0119 -0.0243
  680PSPI   C2A10532   3.029   1.048   6.930 -0.1013  0.0842 -0.2677
  680PSPI   C3A10533   3.229   1.429   7.092 -0.2997 -0.0201 -0.0950
  680PSPI   C4A10534   3.186   1.747   7.419 -0.1532 -0.1232  0.1122
  680PSPI   C1B10535   2.559   0.700   6.415  0.0778  0.1954 -0.1764
  680PSPI   C2B10536   2.585   0.885   6.883 -0.3662  0.0615 -0.2687
  680PSPI   C3B10537   2.305   0.772   7.196 -0.2348  0.1823 -0.3066
  680PSPI   C4B10538   1.823   0.532   7.393 -0.0182  0.0412  0.1044
  681PSPI    C110539   7.412  11.538   5.892  0.0403  0.1222 -0.0680
  681PSPI    C210540   7.744  11.384   6.052 -0.0922 -0.2043 -0.1001
  681PSPI    C310541   7.764  11.719   5.834  0.1996 -0.1687 -0.0234
  681PSPI   PO410542   7.245  11.558   6.080 -0.4481 -0.1594 -0.1017
  681PSPI   GL110543   7.201  11.705   6.475 -0.0760 -0.3352 -0.2649
  681PSPI   GL210544   6.921  11.581   6.586 -0.1485  0.1544  0.0093
  681PSPI   C1A10545   7.401  11.711   6.922 -0.1889  0.0276 -0.1023
  681PSPI   C2A10546   7.396  11.539   7.280  0.1686 -0.1621  0.0599
  681PSPI   C3A10547   7.446  11.577   7.690  0.3246  0.1237  0.0966
  681PSPI   C4A10548   7.265  11.403   7.999  0.2104 -0.1009  0.0599
  681PSPI   C1B10549   7.024  11.419   6.968  0.3642 -0.0673 -0.3992
  681PSPI   C2B10550   7.113  11.168   7.239  0.0077 -0.4342  0.1078
  681PSPI   C3B10551   7.092  10.787   7.291 -0.3252 -0.1953 -0.2507
  681PSPI   C4B10552   7.164  10.456   7.676  0.1108  0.2236  0.1379
  682PSPI    C110553   5.516   5.984   6.192 -0.0710  0.0796  0.1625
  682PSPI    C210554   5.363   6.309   6.016 -0.1525  0.0795  0.2323
  682PSPI    C310555   5.165   5.962   6.001  0.1300 -0.0713 -0.1983
  682PSPI   PO410556   5.737   5.985   6.116  0.0535  0.0429  0.1669
  682PSPI   GL110557   5.933   5.831   6.494  0.1134 -0.1370  0.3078
  682PSPI   GL210558   5.674   5.703   6.685  0.0316  0.0244 -0.0557
  682PSPI   C1A10559   6.186   5.411   6.633  0.0767 -0.0509  0.0136
  682PSPI   C2A10560   6.517   5.565   6.984 -0.0565  0.1315 -0.1432
  682PSPI   C3A10561   6.864   5.715   6.978 -0.1025  0.0966 -0.0037
  682PSPI   C4A10562   7.260   5.829   7.216  0.2983  0.2471  0.0455
  682PSPI   C1B10563   5.860   5.658   7.061  0.6916 -0.0075 -0.0510
  682PSPI   C2B10564   6.224   5.552   7.342 -0.0120 -0.2396 -0.0372
  682PSPI   C3B10565   6.660   5.785   7.411 -0.1742 -0.3428 -0.2273
  682PSPI   C4B10566   6.983   5.815   7.611  0.1542 -0.0403 -0.0389
  683PSPI    C110567  17.257   8.551   5.497  0.1095 -0.0221  0.0306
  683PSPI    C210568  17.401   8.187   5.413  0.2926  0.0807 -0.1101
  683PSPI    C310569  17.125   8.352   5.176  0.1075 -0.0221  0.0315
  683PSPI   PO410570  17.251   8.526   5.758 -0.0340  0.0334 -0.2961
  683PSPI   GL110571  17.311   8.596   6.054  0.3781 -0.0072 -0.0684
  683PSPI   GL210572  17.439   8.417   6.277 -0.0045 -0.1868  0.0729
  683PSPI   C1A10573  17.616   8.917   6.255 -0.0052  0.0422 -0.3332
  683PSPI   C2A10574  17.482   9.288   6.614  0.0690  0.1531  0.0395
  683PSPI   C3A10575  17.174   9.319   6.816  0.1299 -0.0397 -0.2616
  683PSPI   C4A10576  16.973   9.447   7.081 -0.2457 -0.2146  0.1226
  683PSPI   C1B10577  17.348   8.401   6.697 -0.3118 -0.0804  0.1082
  683PSPI   C2B10578  17.365   8.179   7.107  0.1517  0.2239 -0.0561
  683PSPI   C3B10579  17.591   8.231   7.483 -0.4726 -0.0786 -0.2500
  683PSPI   C4B10580  17.672   8.187   7.888 -0.1167 -0.1923 -0.1208
  684PSPI    C110581  14.977  18.302   5.690 -0.1582 -0.1324 -0.1872
  684PSPI    C210582  15.138  18.389   5.335 -0.0418  0.0744 -0.0861
  684PSPI    C310583  14.981  18.680   5.559  0.2243  0.0055  0.1975
  684PSPI   PO410584  15.163  18.143   5.785 -0.1342 -0.3824 -0.3693
  684PSPI   GL110585  15.390  18.332   6.148  0.0731 -0.0254 -0.0293
  684PSPI   GL210586  15.607  18.122   6.108  0.0176 -0.0516 -0.0738
  684PSPI   C1A10587  15.304  18.417   6.570 -0.2249  0.0193  0.2280
  684PSPI   C2A10588  15.624  18.335   6.919  0.1616 -0.3876  0.1111
  684PSPI   C3A10589  15.662  18.295   7.376 -0.0766  0.1367 -0.0105
  684PSPI   C4A10590  16.067  18.457   7.649  0.0458 -0.0967  0.1409
  684PSPI   C1B10591  15.822  18.049   6.452  0.0848  0.0620 -0.0936
  684PSPI   C2B10592  15.964  17.833   6.869 -0.2972  0.1642  0.0839
  684PSPI   C3B10593  16.248  17.598   7.157 -0.1019 -0.1616 -0.1444
  684PSPI   C4B10594  16.482  17.263   7.457  0.1173 -0.0495 -0.0609
  685PSPI    C110595  13.751  12.647   5.816 -0.0266 -0.0039  0.1762
  685PSPI    C210596  13.797  13.014   5.968 -0.2010  0.0400  0.1251
  685PSPI    C310597  13.896  12.941   5.587 -0.0521  0.0037  0.1699
  685PSPI   PO410598  13.748  12.481   6.028  0.2608 -0.2230  0.0370
  685PSPI   GL110599  13.857  12.660   6.323  0.2484 -0.1348 -0.2251
  685PSPI   GL210600  13.526  12.601   6.496  0.2551  0.0540 -0.1712
  685PSPI   C1A10601  13.932  12.469   6.703  0.0591  0.0747 -0.0969
  685PSPI   C2A10602  13.954  12.336   7.135  0.0362 -0.3002  0.1602
  685PSPI   C3A10603  14.200  12.336   7.469  0.2720 -0.2974  0.0644
  685PSPI   C4A10604  14.360  12.130   7.860 -0.1006  0.4533 -0.1728
  685PSPI   C1B10605  13.585  12.832   6.797 -0.0233  0.2913  0.1945
  685PSPI   C2B10606  13.549  12.761   7.249  0.1165 -0.1813 -0.1551
  685PSPI   C3B10607  13.753  12.588   7.503  0.0143 -0.0378 -0.2517
  685PSPI   C4B10608  14.076  12.692   7.763 -0.4571  0.0682  0.0221
  686PSPI    C110609  11.228   8.829   5.898  0.2080  0.0727 -0.0984
  686PSPI    C210610  10.921   9.015   5.723  0.0524  0.1171  0.2135
  686PSPI    C310611  11.289   9.050   5.570 -0.0988  0.0371 -0.1821
  686PSPI   PO410612  11.173   8.731   6.142 -0.0800  0.3800  0.0613
  686PSPI   GL110613  11.285   8.835   6.475  0.3973 -0.1144  0.0043
  686PSPI   GL210614  11.504   8.985   6.526  0.0148  0.3955  0.1032
  686PSPI   C1A10615  11.406   8.762   7.003 -0.4545 -0.2026  0.0588
  686PSPI   C2A10616  11.760   9.047   7.205 -0.1162 -0.1032  0.1192
  686PSPI   C3A10617  11.721   9.243   7.618 -0.3136 -0.3615  0.2545
  686PSPI   C4A10618  11.738   9.313   8.146  0.3400  0.1846 -0.1711
  686PSPI   C1B10619  11.596   9.305   6.773 -0.0035 -0.3081 -0.2249
  686PSPI   C2B10620  11.625   9.513   7.170 -0.2234 -0.0771 -0.2546
  686PSPI   C3B10621  11.534   9.744   7.487  0.1106  0.0747 -0.0292
  686PSPI   C4B10622  11.427   9.596   7.848 -0.1161 -0.0624  0.2811
  687PSPI    C110623   2.630   3.311   5.494  0.2382  0.0513  0.2199
  687PSPI    C210624   2.852   3.044   5.295  0.0093 -0.0068  0.0370
  687PSPI    C310625   2.698   3.359   5.103 -0.0679  0.0324  0.1616
  687PSPI   PO410626   2.525   3.178   5.648 -0.1231  0.0769  0.2471
  687PSPI   GL110627   2.312   3.176   6.016  0.0208  0.2130  0.2086
  687PSPI   GL210628   2.070   3.098   6.052  0.1157 -0.1586  0.0171
  687PSPI   C1A10629   2.443   3.226   6.429 -0.1412 -0.3159 -0.2415
  687PSPI   C2A10630   2.407   3.343   6.828  0.0791  0.0951 -0.0012
  687PSPI   C3A10631   2.194   3.498   7.141 -0.0249 -0.1817 -0.1037
  687PSPI   C4A10632   2.004   3.578   7.559  0.2648  0.2539 -0.2770
  687PSPI   C1B10633   2.063   2.876   6.492 -0.2722 -0.1173 -0.3883
  687PSPI   C2B10634   2.149   2.954   6.928 -0.5555  0.0015  0.0864
  687PSPI   C3B10635   2.206   3.061   7.345  0.2856  0.3396  0.2009
  687PSPI   C4B10636   2.193   3.137   7.786  0.2898  0.1574 -0.0550
  688PSPI    C110637   8.503  13.544   5.472 -0.1552 -0.1122 -0.1311
  688PSPI    C210638   8.687  13.223   5.319 -0.1199 -0.1338 -0.0433
  688PSPI    C310639   8.404  13.411   5.108  0.1404  0.0193 -0.2626
  688PSPI   PO410640   8.507  13.390   5.774  0.2182  0.1157  0.0157
  688PSPI   GL110641   8.288  13.140   6.045 -0.0528 -0.0243 -0.1017
  688PSPI   GL210642   8.254  13.381   6.292  0.0157  0.1174  0.0153
  688PSPI   C1A10643   8.067  13.053   6.542  0.4529 -0.0663  0.1563
  688PSPI   C2A10644   7.991  13.102   6.874 -0.2014 -0.0678 -0.2050
  688PSPI   C3A10645   7.963  13.052   7.359 -0.0265  0.0718  0.1450
  688PSPI   C4A10646   7.865  13.196   7.809  0.3423  0.0553  0.1445
  688PSPI   C1B10647   8.320  13.498   6.677 -0.1275 -0.0769  0.2721
  688PSPI   C2B10648   8.200  13.526   7.087 -0.1026  0.0096  0.3311
  688PSPI   C3B10649   8.160  13.511   7.561 -0.3081 -0.0203  0.2483
  688PSPI   C4B10650   8.128  13.585   7.990  0.0326 -0.0719  0.1395
  689PSPI    C110651   7.585   0.126   5.601  0.0178  0.0274  0.2433
  689PSPI    C210652   7.734   0.140   5.231 -0.0517 -0.0469  0.2122
  689PSPI    C310653   7.485   0.427   5.357  0.2296  0.1572  0.3140
  689PSPI   PO410654   7.748   0.084   5.794  0.1238 -0.1053  0.4262
  689PSPI   GL110655   8.054   0.150   6.142  0.1937  0.0721 -0.0024
  689PSPI   GL210656   7.781   0.333   6.215  0.3081 -0.0117 -0.1703
  689PSPI   C1A10657   8.112   0.165   6.540 -0.1428  0.2907 -0.3561
  689PSPI   C2A10658   8.099  -0.121   6.892  0.2240  0.1571 -0.0605
  689PSPI   C3A10659   7.942  -0.297   7.290 -0.0168 -0.2729 -0.0319
  689PSPI   C4A10660   7.808  -0.132   7.783 -0.1642  0.0927 -0.1710
  689PSPI   C1B10661   7.877   0.563   6.625  0.0516 -0.0769 -0.1688
  689PSPI   C2B10662   7.798   0.653   6.999  0.0367 -0.0284 -0.1490
  689PSPI   C3B10663   7.416   0.594   7.116  0.0099  0.0767 -0.1037
  689PSPI   C4B10664   7.075   0.890   7.111  0.0163 -0.0936 -0.1174
  690PSPI    C110665  12.001   0.765   5.478 -0.0394 -0.1211  0.0546
  690PSPI    C210666  12.240   0.945   5.213 -0.1673  0.0572  0.0582
  690PSPI    C310667  12.396   0.775   5.540 -0.0254 -0.0192 -0.0476
  690PSPI   PO410668  11.800   0.982   5.513 -0.2550  0.3230  0.0399
  690PSPI   GL110669  11.836   1.249   5.895  0.0804  0.1033 -0.0241
  690PSPI   GL210670  11.619   0.950   5.993 -0.3582 -0.0667  0.0179
  690PSPI   C1A10671  11.902   1.283   6.358  0.0718 -0.0575  0.5897
  690PSPI   C2A10672  12.030   1.297   6.711  0.1294  0.0628  0.0660
  690PSPI   C3A10673  12.229   1.342   6.985  0.0476  0.0640 -0.0878
  690PSPI   C4A10674  12.562   1.169   7.113 -0.4111 -0.2201  0.0828
  690PSPI   C1B10675  11.599   0.920   6.479  0.2026  0.1666 -0.1020
  690PSPI   C2B10676  11.692   0.923   6.841 -0.1005  0.1385 -0.2712
  690PSPI   C3B10677  12.047   0.972   7.188 -0.0469 -0.0764  0.1409
  690PSPI   C4B10678  12.385   1.045   7.531  0.0976 -0.4292 -0.1979
  691PSPI    C110679   8.975   1.342   5.120 -0.0842 -0.3645  0.0863
  691PSPI    C210680   9.157   0.988   5.079  0.2468 -0.1536 -0.3548
  691PSPI    C310681   8.911   1.121   4.793 -0.2608 -0.2331  0.0307
  691PSPI   PO410682   8.903   1.312   5.385  0.0128  0.1490 -0.1697
  691PSPI   GL110683   8.989   1.271   5.870 -0.2171 -0.0527  0.1429
  691PSPI   GL210684   8.759   1.054   5.918 -0.0946  0.3517 -0.4206
  691PSPI   C1A10685   9.074   1.512   6.212 -0.1309 -0.0316  0.0646
  691PSPI   C2A10686   8.845   1.721   6.586 -0.1136 -0.0076 -0.0396
  691PSPI   C3A10687   9.071   1.594   7.041 -0.0686 -0.0177  0.1771
  691PSPI   C4A10688   8.988   1.432   7.434 -0.5109  0.1669 -0.0660
  691PSPI   C1B10689   8.811   0.818   6.333 -0.3135  0.0101  0.3076
  691PSPI   C2B10690   9.005   0.471   6.556  0.2305  0.0293 -0.2719
  691PSPI   C3B10691   9.120   0.230   6.927  0.0574  0.2982  0.0025
  691PSPI   C4B10692   9.362  -0.053   7.153  0.1349  0.2082 -0.4139
  692PSPI    C110693  10.465   0.993   5.439 -0.0220 -0.0699 -0.0188
  692PSPI    C210694  10.850   0.947   5.343 -0.0911 -0.1344 -0.2730
  692PSPI    C310695  10.616   1.184   5.122 -0.1496  0.0720  0.0050
  692PSPI   PO410696  10.395   0.705   5.602 -0.0464  0.1212 -0.0760
  692PSPI   GL110697  10.160   0.531   5.911  0.3569  0.2389 -0.0955
  692PSPI   GL210698  10.268   0.239   6.127 -0.0832 -0.1569 -0.0985
  692PSPI   C1A10699  10.275   0.792   6.305 -0.0422  0.1090 -0.2038
  692PSPI   C2A10700  10.171   1.144   6.642 -0.0595  0.0207  0.0462
  692PSPI   C3A10701   9.862   1.219   7.056  0.1633 -0.0448  0.0952
  692PSPI   C4A10702   9.432   1.154   7.272 -0.2832  0.0110 -0.2069
  692PSPI   C1B10703  10.137   0.353   6.596 -0.0032 -0.3227  0.0699
  692PSPI   C2B10704  10.075   0.207   7.015  0.2196 -0.1907  0.1979
  692PSPI   C3B10705   9.839   0.208   7.310 -0.0538 -0.0104  0.2581
  692PSPI   C4B10706   9.540   0.164   7.598  0.0077  0.2456 -0.0732
  693PSPI    C110707  14.037  15.476   5.587 -0.1207  0.3279  0.2997
  693PSPI    C210708  14.390  15.626   5.477 -0.1004 -0.0232 -0.1408
  693PSPI    C310709  14.099  15.580   5.206 -0.3360 -0.1427  0.1282
  693PSPI   PO410710  14.011  15.598   5.818  0.4249 -0.1697  0.1756
  693PSPI   GL110711  14.041  15.510   6.284  0.0587  0.0664  0.0631
  693PSPI   GL210712  13.786  15.394   6.443  0.1542  0.1051 -0.4582
  693PSPI   C1A10713  14.351  15.549   6.562 -0.1014 -0.2013 -0.0615
  693PSPI   C2A10714  14.395  15.874   6.982  0.0291  0.0614  0.1776
  693PSPI   C3A10715  14.226  15.912   7.378 -0.1055 -0.0581 -0.1012
  693PSPI   C4A10716  14.307  16.058   7.787  0.2114  0.1573 -0.0184
  693PSPI   C1B10717  13.812  15.125   6.731  0.2416 -0.2151  0.2051
  693PSPI   C2B10718  13.840  14.924   7.157  0.0636  0.0306 -0.0934
  693PSPI   C3B10719  13.746  14.979   7.559 -0.1550  0.0017  0.2741
  693PSPI   C4B10720  13.440  14.852   7.863 -0.1483 -0.1104  0.1957
  694POPI    C110721  16.269   5.314   5.509  0.1557  0.1421  0.1432
  694POPI    C210722  16.421   5.576   5.247  0.1806  0.0203  0.0349
  694POPI    C310723  16.555   5.199   5.254  0.0752 -0.0161  0.1236
  694POPI   PO410724  16.265   5.429   5.738  0.1470  0.2839  0.1629
  694POPI   GL110725  16.162   5.311   6.142 -0.0446 -0.2235  0.0210
  694POPI   GL210726  16.428   5.043   6.031 -0.2504  0.3008 -0.2321
  694POPI   C1A10727  16.068   5.275   6.572 -0.2225  0.5742 -0.3023
  694POPI   D2A10728  16.072   5.222   6.995  0.3348 -0.3010 -0.1833
  694POPI   C3A10729  15.905   5.558   7.271  0.1563 -0.0508  0.3243
  694POPI   C4A10730  15.715   6.044   7.295 -0.0124  0.2230  0.1484
  694POPI   C1B10731  16.351   4.937   6.464 -0.0840  0.0230  0.0348
  694POPI   C2B10732  16.282   4.733   6.909 -0.0181 -0.0002  0.0204
  694POPI   C3B10733  16.227   4.800   7.282 -0.3844  0.2311  0.1473
  694POPI   C4B10734  16.294   4.419   7.664 -0.2627 -0.1787  0.1995
  695POPI    C110735  18.083   2.739   5.319 -0.1375 -0.2541  0.0545
  695POPI    C210736  18.377   2.537   5.138  0.1073  0.1184  0.0259
  695POPI    C310737  18.152   2.794   4.929  0.1920  0.3229  0.1837
  695POPI   PO410738  17.869   2.612   5.402 -0.0418 -0.2768  0.1331
  695POPI   GL110739  17.870   2.703   5.911  0.1333  0.1350 -0.0074
  695POPI   GL210740  18.104   2.790   6.156  0.0212 -0.1570  0.0671
  695POPI   C1A10741  17.686   2.971   6.411  0.1466 -0.2243  0.0582
  695POPI   D2A10742  17.330   2.725   6.606  0.0486 -0.1846  0.3561
  695POPI   C3A10743  17.052   2.958   6.834 -0.0826 -0.0750 -0.0508
  695POPI   C4A10744  16.915   3.089   7.136  0.1930  0.1355 -0.2096
  695POPI   C1B10745  17.868   2.518   6.442  0.1995 -0.2414 -0.1728
  695POPI   C2B10746  17.721   2.519   6.870  0.0411 -0.0533  0.0769
  695POPI   C3B10747  17.901   2.788   7.058  0.0225 -0.1732 -0.0903
  695POPI   C4B10748  17.864   2.919   7.412 -0.0535 -0.2743  0.1004
  696POPI    C110749  12.757  13.627   5.492  0.0695 -0.4404 -0.2247
  696POPI    C210750  13.107  13.540   5.666  0.0959  0.0157 -0.0352
  696POPI    C310751  13.093  13.625   5.275  0.2091  0.0672 -0.0285
  696POPI   PO410752  12.612  13.625   5.782  0.1483 -0.0553 -0.0744
  696POPI   GL110753  12.830  13.857   6.060 -0.0970  0.2095 -0.0966
  696POPI   GL210754  12.648  13.932   6.272  0.0097  0.0637 -0.1275
  696POPI   C1A10755  13.045  14.113   6.542 -0.1047  0.0180  0.0952
  696POPI   D2A10756  12.864  14.171   6.954 -0.1871 -0.1178 -0.1718
  696POPI   C3A10757  13.139  14.134   7.312  0.0863  0.0309 -0.0799
  696POPI   C4A10758  13.083  13.780   7.567 -0.2412  0.1644 -0.1391
  696POPI   C1B10759  12.483  13.608   6.398  0.1351  0.1241 -0.1616
  696POPI   C2B10760  12.535  13.268   6.690  0.2185  0.0773  0.3443
  696POPI   C3B10761  12.734  13.032   7.043  0.0728 -0.0364  0.2313
  696POPI   C4B10762  12.842  13.336   7.355  0.0987 -0.1253  0.0696
  697POPI    C110763  14.756  11.340   5.449 -0.0940  0.0071 -0.2285
  697POPI    C210764  14.981  11.484   5.151 -0.1645 -0.0696 -0.3193
  697POPI    C310765  14.777  11.144   5.101 -0.1058 -0.1304 -0.1522
  697POPI   PO410766  14.932  11.347   5.705 -0.3087 -0.0868  0.1820
  697POPI   GL110767  14.917  11.348   6.150  0.3033  0.0778 -0.0653
  697POPI   GL210768  14.734  11.293   6.381  0.1574 -0.0892  0.4546
  697POPI   C1A10769  15.235  11.606   6.340 -0.0170 -0.0856 -0.2386
  697POPI   D2A10770  15.724  11.729   6.463 -0.2177 -0.0997 -0.0290
  697POPI   C3A10771  15.809  12.005   6.755  0.0515  0.0155  0.0014
  697POPI   C4A10772  15.780  12.266   7.106 -0.0542 -0.2052  0.0109
  697POPI   C1B10773  15.108  11.122   6.724  0.0210 -0.1312 -0.0948
  697POPI   C2B10774  15.418  11.460   6.776 -0.1363  0.1060 -0.2181
  697POPI   C3B10775  15.486  11.755   7.088  0.1595 -0.1008 -0.2740
  697POPI   C4B10776  15.587  12.031   7.482  0.2549 -0.0099  0.2240
  698POPI    C110777  15.417   8.564   5.652  0.1135 -0.1072 -0.0911
  698POPI    C210778  15.398   8.372   5.302  0.4312  0.0084 -0.1753
  698POPI    C310779  15.528   8.750   5.315  0.1746  0.0916  0.0369
  698POPI   PO410780  15.192   8.460   5.809 -0.2573  0.1745 -0.2822
  698POPI   GL110781  15.302   8.518   6.258 -0.3762  0.0988  0.2872
  698POPI   GL210782  15.198   8.192   6.401 -0.1338 -0.1914 -0.4455
  698POPI   C1A10783  15.310   8.842   6.570 -0.0658  0.1655 -0.3873
  698POPI   D2A10784  15.320   8.858   7.045 -0.1264  0.1183 -0.1087
  698POPI   C3A10785  15.648   8.952   7.255 -0.0833 -0.0411 -0.2559
  698POPI   C4A10786  15.822   8.932   7.672  0.1426 -0.2901  0.3156
  698POPI   C1B10787  15.268   8.378   6.845 -0.0625 -0.0416 -0.1119
  698POPI   C2B10788  15.219   8.424   7.334  0.0031  0.2960 -0.0155
  698POPI   C3B10789  15.167   8.378   7.817 -0.2173  0.2070 -0.1511
  698POPI   C4B10790  15.096   8.166   8.168 -0.0369 -0.1795 -0.1872
  699POPI    C110791  17.959  16.914   5.608  0.0984  0.1077  0.0817
  699POPI    C210792  18.309  16.760   5.490  0.1195  0.2658 -0.0659
  699POPI    C310793  17.987  16.728   5.255 -0.0117 -0.0399  0.1499
  699POPI   PO410794  17.886  16.815   5.809 -0.2493  0.3175  0.1737
  699POPI   GL110795  17.904  17.057   6.175  0.1529  0.0693  0.0443
  699POPI   GL210796  18.137  16.875   6.283 -0.1003 -0.3095 -0.1288
  699POPI   C1A10797  17.902  17.343   6.615 -0.0132  0.0894 -0.2523
  699POPI   D2A10798  17.524  17.504   6.861 -0.0964 -0.5746 -0.2220
  699POPI   C3A10799  17.285  17.393   7.184 -0.2851  0.0951  0.2039
  699POPI   C4A10800  17.111  17.504   7.446  0.0728  0.1144 -0.1717
  699POPI   C1B10801  18.273  16.882   6.647 -0.0922  0.2811  0.0943
  699POPI   C2B10802  18.269  17.121   7.015  0.0509 -0.2025 -0.0140
  699POPI   C3B10803  18.272  17.313   7.356 -0.4807 -0.3513 -0.3153
  699POPI   C4B10804  18.582  17.246   7.766  0.2103  0.0080 -0.1222
  700POPI    C110805   0.910   8.006   5.950 -0.0239 -0.0153 -0.0251
  700POPI    C210806   1.102   7.978   5.600 -0.0485  0.3053 -0.0678
  700POPI    C310807   0.705   8.025   5.607 -0.0768  0.0690  0.0108
  700POPI   PO410808   0.988   8.231   6.118  0.1921 -0.1926 -0.0007
  700POPI   GL110809   0.783   8.491   6.404 -0.1795  0.1142 -0.1052
  700POPI   GL210810   0.890   8.770   6.219  0.1359  0.1336 -0.0975
  700POPI   C1A10811   0.906   8.379   6.783 -0.1609 -0.2379 -0.2435
  700POPI   D2A10812   1.030   8.327   7.216 -0.0262  0.1144  0.4266
  700POPI   C3A10813   1.362   8.074   7.194  0.2671  0.0711 -0.1458
  700POPI   C4A10814   1.472   7.650   7.157 -0.0183 -0.1009 -0.1139
  700POPI   C1B10815   0.821   9.142   6.550  0.1266  0.0784  0.1509
  700POPI   C2B10816   0.831   9.314   7.027 -0.0220  0.1939 -0.1555
  700POPI   C3B10817   0.816   9.436   7.418  0.2438  0.0123  0.0812
  700POPI   C4B10818   0.807   9.217   7.777 -0.0004  0.0359 -0.0023
  701POPI    C110819   9.557  14.875   5.876 -0.0036 -0.0688  0.2608
  701POPI    C210820   9.843  14.759   6.130  0.1994  0.0604  0.0940
  701POPI    C310821   9.849  14.633   5.750 -0.0597 -0.0702  0.1314
  701POPI   PO410822   9.377  14.952   6.019 -0.2968 -0.1873  0.1083
  701POPI   GL110823   9.246  14.917   6.375  0.1983 -0.3096 -0.2555
  701POPI   GL210824   9.022  14.684   6.299 -0.0970 -0.1421  0.1975
  701POPI   C1A10825   9.329  15.239   6.568 -0.1551  0.2918  0.2091
  701POPI   D2A10826   9.111  15.540   6.732  0.0042 -0.0227  0.2318
  701POPI   C3A10827   9.320  15.668   7.039  0.1415 -0.0565  0.1847
  701POPI   C4A10828   9.222  15.871   7.568 -0.0916  0.1874  0.2345
  701POPI   C1B10829   9.073  14.626   6.755 -0.0091 -0.2682 -0.0993
  701POPI   C2B10830   9.062  14.577   7.194  0.0181  0.1071 -0.1259
  701POPI   C3B10831   9.037  14.359   7.574 -0.1219 -0.2450 -0.2805
  701POPI   C4B10832   9.000  14.406   7.995 -0.0161  0.0651 -0.0947
  702POPI    C110833   7.527   2.942   5.400  0.0160  0.0498  0.1164
  702POPI    C210834   7.730   2.611   5.305 -0.0542 -0.0070  0.1635
  702POPI    C310835   7.368   2.675   5.148  0.1061  0.2180 -0.1227
  702POPI   PO410836   7.456   2.975   5.739 -0.1675  0.0687  0.2158
  702POPI   GL110837   7.038   3.296   5.832 -0.0148  0.3725 -0.0965
  702POPI   GL210838   7.284   3.405   5.926  0.0873  0.0936 -0.2757
  702POPI   C1A10839   6.789   3.217   6.231  0.0253 -0.0390  0.3110
  702POPI   D2A10840   6.755   2.917   6.674 -0.1100  0.1845  0.1909
  702POPI   C3A10841   6.624   2.912   7.080 -0.2395  0.2415  0.1354
  702POPI   C4A10842   6.495   2.642   7.469  0.1476  0.2051 -0.1472
  702POPI   C1B10843   7.221   3.449   6.340 -0.1361 -0.1926  0.1043
  702POPI   C2B10844   7.015   3.381   6.693 -0.1952 -0.2205 -0.1717
  702POPI   C3B10845   6.930   3.475   7.131 -0.0675 -0.2897  0.1028
  702POPI   C4B10846   6.947   3.518   7.575  0.0975 -0.2968  0.0445
  703POPI    C110847   0.658  15.652   5.636  0.0337 -0.0744  0.0094
  703POPI    C210848   0.534  16.032   5.628  0.1522 -0.0300  0.2180
  703POPI    C310849   0.471  15.795   5.313  0.2180  0.2067  0.0237
  703POPI   PO410850   0.651  15.556   5.832 -0.1249 -0.0979  0.0266
  703POPI   GL110851   0.458  15.829   6.113 -0.0510 -0.3877 -0.1135
  703POPI   GL210852   0.123  16.058   6.040  0.3402 -0.0689 -0.0765
  703POPI   C1A10853   0.439  15.913   6.628 -0.2452  0.1019 -0.0719
  703POPI   D2A10854   0.578  15.989   7.109  0.0623 -0.4622 -0.3582
  703POPI   C3A10855   0.647  15.756   7.476 -0.0359 -0.0006 -0.0656
  703POPI   C4A10856   0.441  15.706   7.855 -0.2419 -0.0810 -0.2569
  703POPI   C1B10857  -0.063  15.887   6.537 -0.1905  0.1788 -0.0771
  703POPI   C2B10858  -0.251  15.609   6.820  0.1189 -0.0128  0.2574
  703POPI   C3B10859  -0.403  15.704   7.180  0.1645  0.2855 -0.0367
  703POPI   C4B10860  -0.346  16.014   7.470  0.1047 -0.2042  0.0541
  704POPI    C110861  18.242  12.204   5.540 -0.0771 -0.2620 -0.1952
  704POPI    C210862  18.598  12.265   5.368 -0.0585 -0.0495 -0.0847
  704POPI    C310863  18.386  12.576   5.504 -0.1440 -0.2013  0.1352
  704POPI   PO410864  18.249  12.029   5.690 -0.2181 -0.0035 -0.0221
  704POPI   GL110865  18.388  11.889   6.097 -0.2577 -0.1876 -0.0898
  704POPI   GL210866  18.331  11.613   6.205 -0.2513 -0.1949 -0.0967
  704POPI   C1A10867  18.375  12.300   6.449  0.1800  0.0721 -0.0639
  704POPI   D2A10868  18.449  12.543   6.779  0.1086  0.1500 -0.1899
  704POPI   C3A10869  18.890  12.685   6.909 -0.0343 -0.0279 -0.0398
  704POPI   C4A10870  19.221  12.347   7.047 -0.2224 -0.1164  0.0590
  704POPI   C1B10871  18.533  11.771   6.525  0.2032  0.3657  0.1519
  704POPI   C2B10872  18.643  11.712   6.956  0.0655  0.0064 -0.3631
  704POPI   C3B10873  18.723  11.478   7.379 -0.1311  0.2191 -0.0432
  704POPI   C4B10874  18.572  11.635   7.713 -0.0081 -0.0778 -0.2142
  705POPI    C110875  13.601  16.305   5.877  0.0652  0.0073  0.1408
  705POPI    C210876  13.592  16.449   5.504  0.1307 -0.1009  0.0972
  705POPI    C310877  13.418  16.099   5.588  0.0669 -0.0495  0.1802
  705POPI   PO410878  13.571  16.462   6.021 -0.0071  0.2598 -0.0666
  705POPI   GL110879  13.653  16.387   6.498 -0.3853  0.0680 -0.2056
  705POPI   GL210880  13.769  16.171   6.445 -0.1584  0.0771 -0.2729
  705POPI   C1A10881  13.636  16.485   6.787  0.1217 -0.2432  0.0846
  705POPI   D2A10882  13.501  16.404   7.185  0.0656  0.0802 -0.0705
  705POPI   C3A10883  13.329  16.720   7.359  0.1236 -0.1572  0.0667
  705POPI   C4A10884  13.379  16.912   7.793 -0.0684 -0.2101  0.0382
  705POPI   C1B10885  13.898  15.798   6.715 -0.0354  0.0392 -0.0641
  705POPI   C2B10886  14.035  15.481   6.974 -0.1402  0.1866 -0.0319
  705POPI   C3B10887  14.032  15.365   7.264  0.0230  0.0296 -0.1818
  705POPI   C4B10888  14.092  15.306   7.714  0.0526  0.2405 -0.1018
  706POPI    C110889   1.396   5.369   5.598 -0.1454 -0.1571 -0.0467
  706POPI    C210890   1.735   5.526   5.457 -0.0787 -0.1744  0.0927
  706POPI    C310891   1.412   5.506   5.223 -0.0918  0.1779  0.0749
  706POPI   PO410892   1.338   5.472   5.799 -0.1535 -0.2089  0.2388
  706POPI   GL110893   1.617   5.559   6.142  0.0464 -0.0554 -0.0389
  706POPI   GL210894   1.808   5.537   5.981 -0.0228 -0.0096  0.0791
  706POPI   C1A10895   1.607   5.762   6.572  0.2373  0.2734 -0.1724
  706POPI   D2A10896   1.672   5.973   6.926  0.0726 -0.3429 -0.1980
  706POPI   C3A10897   2.032   6.002   7.019  0.0393 -0.1488 -0.1429
  706POPI   C4A10898   2.402   5.852   6.906  0.2627  0.1367 -0.2318
  706POPI   C1B10899   2.059   5.546   6.422  0.0359  0.0504  0.0846
  706POPI   C2B10900   2.013   5.502   6.857  0.1835 -0.1582  0.2849
  706POPI   C3B10901   2.104   5.573   7.323  0.0894 -0.0338 -0.0265
  706POPI   C4B10902   1.879   5.556   7.756  0.5792  0.0490  0.0237
  707POPI    C110903  13.643  14.735   5.948 -0.0170  0.0942 -0.1884
  707POPI    C210904  14.028  14.648   6.014 -0.0500 -0.1358 -0.2883
  707POPI    C310905  13.889  15.014   6.095  0.1316 -0.1248 -0.0136
  707POPI   PO410906  13.501  14.619   6.070 -0.0124 -0.0423  0.1201
  707POPI   GL110907  13.525  14.399   6.503  0.0520 -0.0099  0.0905
  707POPI   GL210908  13.778  14.654   6.552 -0.0945  0.0608 -0.3155
  707POPI   C1A10909  13.389  14.460   6.950 -0.0846 -0.3671  0.1329
  707POPI   D2A10910  13.403  14.662   7.348  0.0278  0.2110  0.0368
  707POPI   C3A10911  13.203  15.008   7.465 -0.0424  0.0622  0.1992
  707POPI   C4A10912  13.130  15.357   7.487  0.0264  0.1061  0.0729
  707POPI   C1B10913  13.950  14.519   6.912  0.1883  0.2741  0.2830
  707POPI   C2B10914  13.897  14.473   7.372 -0.0478 -0.3250  0.1691
  707POPI   C3B10915  13.603  14.294   7.664  0.1608  0.1588 -0.1480
  707POPI   C4B10916  13.501  14.336   8.013 -0.2068 -0.2449 -0.0721
  708POPI    C110917  17.499  15.295   5.377  0.0281 -0.0368 -0.0417
  708POPI    C210918  17.339  14.937   5.457 -0.0015 -0.0476 -0.1482
  708POPI    C310919  17.607  14.975   5.162  0.1137 -0.0097 -0.0392
  708POPI   PO410920  17.502  15.374   5.721  0.0380 -0.3848 -0.1626
  708POPI   GL110921  17.657  15.703   6.065 -0.2507 -0.0015 -0.1990
  708POPI   GL210922  17.688  16.044   6.100  0.4340  0.2377  0.0629
  708POPI   C1A10923  17.880  15.389   6.318 -0.1448 -0.1890  0.1309
  708POPI   D2A10924  18.297  15.300   6.475  0.0133 -0.1866  0.0280
  708POPI   C3A10925  18.383  15.175   6.857  0.1419 -0.0144 -0.0339
  708POPI   C4A10926  18.209  15.248   7.215  0.0249 -0.0916  0.1450
  708POPI   C1B10927  17.741  15.994   6.589 -0.1017  0.2278  0.2496
  708POPI   C2B10928  17.969  16.126   6.900 -0.1833 -0.1229  0.0221
  708POPI   C3B10929  18.157  16.474   7.235 -0.1793  0.2065 -0.1305
  708POPI   C4B10930  18.283  16.824   7.435  0.2190 -0.0517  0.4541
  709POPI    C110931   3.103  15.249   5.405 -0.0566  0.1435 -0.0327
  709POPI    C210932   3.393  15.524   5.406  0.2875 -0.2104  0.0023
  709POPI    C310933   3.376  15.253   5.113 -0.1017 -0.1027 -0.0800
  709POPI   PO410934   3.240  14.969   5.578  0.0628  0.2449 -0.2370
  709POPI   GL110935   3.218  14.951   6.080 -0.4094 -0.1465 -0.0730
  709POPI   GL210936   3.062  14.658   5.997 -0.0357  0.0070  0.1320
  709POPI   C1A10937   3.466  14.773   6.392  0.1009 -0.0794 -0.0905
  709POPI   D2A10938   3.711  14.723   6.712 -0.1073 -0.1106 -0.2637
  709POPI   C3A10939   3.871  14.902   7.114 -0.1745 -0.1834 -0.0561
  709POPI   C4A10940   4.156  14.831   7.461  0.0149 -0.2342  0.3067
  709POPI   C1B10941   3.061  14.401   6.376  0.0771 -0.1091  0.0190
  709POPI   C2B10942   3.231  14.482   6.683 -0.0509 -0.1193 -0.1837
  709POPI   C3B10943   3.438  14.635   7.164 -0.3313 -0.1163  0.1930
  709POPI   C4B10944   3.453  14.535   7.538  0.0863 -0.1457 -0.2323
  710POPI    C110945   2.364  10.439   5.616 -0.2112  0.1433 -0.1139
  710POPI    C210946   2.439  10.730   5.352  0.1489  0.2589  0.1074
  710POPI    C310947   2.365  10.821   5.734 -0.0655  0.0750  0.1119
  710POPI   PO410948   2.550  10.182   5.611  0.0665 -0.0390 -0.0288
  710POPI   GL110949   2.592   9.922   5.978  0.0865  0.2517 -0.1492
  710POPI   GL210950   2.327  10.148   6.090 -0.0819  0.0743 -0.1149
  710POPI   C1A10951   2.805  10.105   6.363 -0.2732  0.0089 -0.3895
  710POPI   D2A10952   2.698  10.038   6.750 -0.2264  0.1519 -0.0615
  710POPI   C3A10953   2.850  10.327   7.018 -0.1571 -0.1060  0.4729
  710POPI   C4A10954   2.835  10.754   7.162  0.0150  0.1462  0.0619
  710POPI   C1B10955   2.267  10.222   6.515 -0.2495  0.2578  0.1814
  710POPI   C2B10956   2.358  10.426   7.024  0.1938  0.0709 -0.1601
  710POPI   C3B10957   2.512  10.456   7.426 -0.0671  0.0971  0.1217
  710POPI   C4B10958   2.733  10.197   7.806  0.1530  0.1059  0.0364
  711POPI    C110959   6.595  11.692   5.637  0.0126 -0.1770  0.1261
  711POPI    C210960   6.318  11.751   5.355 -0.0814  0.0401  0.2608
  711POPI    C310961   6.666  11.576   5.261 -0.1557  0.0101  0.0351
  711POPI   PO410962   6.372  11.592   5.865 -0.2915 -0.0113 -0.0206
  711POPI   GL110963   6.397  11.713   6.271 -0.0505 -0.0030  0.0093
  711POPI   GL210964   6.358  11.447   6.344  0.0323 -0.1091 -0.0337
  711POPI   C1A10965   6.517  11.932   6.681  0.0232 -0.1784 -0.3554
  711POPI   D2A10966   6.535  12.221   7.053  0.2584  0.0044 -0.1268
  711POPI   C3A10967   6.538  12.600   7.156  0.1382 -0.2479  0.0687
  711POPI   C4A10968   6.534  12.874   7.418  0.0167 -0.2214  0.1088
  711POPI   C1B10969   6.054  11.566   6.658 -0.1337  0.1189  0.4432
  711POPI   C2B10970   5.751  11.443   6.932 -0.3698  0.0831  0.0614
  711POPI   C3B10971   5.566  11.546   7.358 -0.2849 -0.1815 -0.0825
  711POPI   C4B10972   5.824  11.703   7.574 -0.1856 -0.0523  0.0278
  712POPI    C110973   5.647  14.906   5.746  0.0829  0.1062 -0.0463
  712POPI    C210974   5.647  14.508   5.712 -0.0117  0.0940  0.0860
  712POPI    C310975   5.885  14.729   5.478  0.0622 -0.0414  0.0318
  712POPI   PO410976   5.676  14.947   5.923 -0.0770  0.2590  0.3793
  712POPI   GL110977   5.602  15.163   6.344  0.0139 -0.0490  0.1477
  712POPI   GL210978   5.801  15.281   6.505  0.0814 -0.1404  0.1613
  712POPI   C1A10979   5.369  15.035   6.672 -0.0476  0.3983  0.0054
  712POPI   D2A10980   5.371  14.848   7.082 -0.0621 -0.2255  0.2317
  712POPI   C3A10981   5.402  14.456   7.304  0.1389 -0.0121  0.3793
  712POPI   C4A10982   5.322  14.012   7.392  0.1098 -0.0388 -0.0724
  712POPI   C1B10983   5.926  15.171   6.854  0.0595  0.3775 -0.1534
  712POPI   C2B10984   6.224  14.904   7.090 -0.0541 -0.3923 -0.2783
  712POPI   C3B10985   6.604  14.856   7.427  0.2381 -0.0214 -0.0851
  712POPI   C4B10986   6.776  14.984   7.780 -0.3796 -0.3944 -0.0991
  713POPI    C110987  16.986   7.163   5.849  0.2699 -0.0070 -0.1183
  713POPI    C210988  17.181   7.110   5.503  0.0835 -0.1293 -0.2067
  713POPI    C310989  16.858   7.346   5.517  0.0856 -0.1315 -0.1176
  713POPI   PO410990  17.071   6.871   6.060  0.0858 -0.3056 -0.1145
  713POPI   GL110991  16.749   6.479   6.158 -0.1083 -0.0291  0.3585
  713POPI   GL210992  16.680   6.161   6.134  0.0725  0.0515  0.0719
  713POPI   C1A10993  16.930   6.365   6.630 -0.0099 -0.3690 -0.1102
  713POPI   D2A10994  17.207   6.182   6.764  0.3101  0.0234  0.0365
  713POPI   C3A10995  17.228   6.110   7.263  0.1775  0.0383 -0.1182
  713POPI   C4A10996  17.413   5.878   7.661 -0.1020  0.0400  0.1292
  713POPI   C1B10997  16.731   5.903   6.517  0.0878  0.0848 -0.0392
  713POPI   C2B10998  16.950   5.811   6.980  0.0446 -0.2069  0.1014
  713POPI   C3B10999  17.032   5.617   7.420  0.1162 -0.1548  0.0761
  713POPI   C4B11000  16.647   5.603   7.716  0.1348 -0.0715  0.0723
  714POPI    C111001  13.529  10.492   5.801 -0.0296 -0.0069 -0.0209
  714POPI    C211002  13.512  10.135   5.622  0.0705  0.0762 -0.1996
  714POPI    C311003  13.483  10.469   5.404  0.4211  0.1829 -0.0906
  714POPI   PO411004  13.675  10.367   6.031 -0.4273 -0.2077  0.2125
  714POPI   GL111005  13.728  10.368   6.461 -0.1435  0.1364  0.1495
  714POPI   GL211006  13.905  10.669   6.368  0.0549 -0.2225 -0.2644
  714POPI   C1A11007  13.553  10.172   6.784 -0.0141 -0.0935 -0.1299
  714POPI   D2A11008  13.385  10.399   7.023  0.2385 -0.1352 -0.1376
  714POPI   C3A11009  13.359  10.803   7.135 -0.3137  0.3020 -0.2805
  714POPI   C4A11010  13.453  11.273   7.155  0.1358  0.0143 -0.0951
  714POPI   C1B11011  13.882  10.647   6.870  0.2611 -0.1438  0.2176
  714POPI   C2B11012  13.855  10.828   7.234 -0.1437  0.2451  0.0108
  714POPI   C3B11013  13.744  10.837   7.615  0.0793  0.2881 -0.0906
  714POPI   C4B11014  13.802  10.878   7.964  0.2011 -0.0116 -0.0743
  715POPI    C111015   4.698  15.614   5.602 -0.3478  0.1894  0.2137
  715POPI    C211016   4.663  15.944   5.825 -0.2558  0.2470  0.1436
  715POPI    C311017   4.827  15.965   5.461  0.0738  0.0649  0.2766
  715POPI   PO411018   4.760  15.457   5.833  0.2000 -0.2979  0.0796
  715POPI   GL111019   4.517  15.664   6.191  0.0677  0.0931  0.1625
  715POPI   GL211020   4.650  15.330   6.285  0.0807  0.2101 -0.2144
  715POPI   C1A11021   4.560  15.719   6.541 -0.1661  0.0219  0.0219
  715POPI   D2A11022   4.495  15.693   6.876 -0.2706  0.0062 -0.0459
  715POPI   C3A11023   4.733  15.429   7.140 -0.0253  0.1469 -0.1219
  715POPI   C4A11024   4.800  15.339   7.639  0.2707  0.0515  0.3040
  715POPI   C1B11025   4.527  15.250   6.692 -0.2016  0.2974 -0.1385
  715POPI   C2B11026   4.298  15.170   7.137 -0.0856 -0.2295 -0.1192
  715POPI   C3B11027   4.312  15.474   7.439  0.0314 -0.3001  0.1021
  715POPI   C4B11028   4.366  15.699   7.960 -0.2495  0.0174  0.0504
  716POPI    C111029   7.144   8.034   6.004  0.0233  0.0787 -0.0345
  716POPI    C211030   7.225   8.096   5.617  0.2142  0.3470  0.0458
  716POPI    C311031   7.049   8.383   5.834  0.1008  0.1947  0.1577
  716POPI   PO411032   7.378   7.974   6.091 -0.1009 -0.2355 -0.0073
  716POPI   GL111033   7.639   8.055   6.462 -0.0455 -0.2548 -0.3801
  716POPI   GL211034   7.372   7.754   6.675  0.1289 -0.0394  0.1382
  716POPI   C1A11035   7.418   8.233   6.833  0.2951 -0.2077 -0.1464
  716POPI   D2A11036   7.041   8.272   7.004 -0.2853 -0.0387  0.2810
  716POPI   C3A11037   7.019   8.660   7.399  0.1106  0.0270 -0.0688
  716POPI   C4A11038   7.251   8.543   7.757  0.1118 -0.0135 -0.2652
  716POPI   C1B11039   7.375   7.865   7.149 -0.1169 -0.1939 -0.0362
  716POPI   C2B11040   7.190   8.016   7.492  0.1973 -0.1941  0.0223
  716POPI   C3B11041   7.022   7.754   7.737 -0.0978 -0.2090 -0.1220
  716POPI   C4B11042   7.219   7.512   8.123 -0.0175  0.0545 -0.3163
  717POPI    C111043   4.818  12.622   6.013  0.0432  0.1236  0.0662
  717POPI    C211044   4.480  12.428   6.100  0.0483  0.0608 -0.0523
  717POPI    C311045   4.680  12.341   5.765  0.1410  0.1519 -0.0211
  717POPI   PO411046   4.752  12.872   6.174  0.0807  0.2391 -0.3905
  717POPI   GL111047   4.822  13.114   6.524  0.0441  0.0229  0.1881
  717POPI   GL211048   4.763  12.860   6.696  0.0620  0.0489 -0.0652
  717POPI   C1A11049   5.061  13.296   6.819  0.3000  0.0526 -0.1885
  717POPI   D2A11050   5.253  13.192   7.231 -0.2327 -0.0862  0.2285
  717POPI   C3A11051   5.152  13.090   7.556  0.0594 -0.1765 -0.0130
  717POPI   C4A11052   4.811  12.989   7.860 -0.0861 -0.1414  0.0727
  717POPI   C1B11053   4.845  12.931   7.171 -0.0987  0.0083 -0.0325
  717POPI   C2B11054   4.599  12.616   7.570 -0.0179 -0.2691  0.0964
  717POPI   C3B11055   4.449  12.249   7.466  0.0532 -0.3080  0.2637
  717POPI   C4B11056   4.559  11.811   7.151  0.0027  0.0610 -0.2660
  718POPI    C111057  14.488   4.918   5.439 -0.0305  0.0360 -0.3922
  718POPI    C211058  14.777   5.064   5.205  0.0795  0.0447 -0.2520
  718POPI    C311059  14.765   4.673   5.288 -0.1446 -0.0107 -0.5287
  718POPI   PO411060  14.590   5.067   5.675  0.1752 -0.2130  0.0434
  718POPI   GL111061  14.709   5.262   6.033  0.1497  0.0074 -0.0931
  718POPI   GL211062  14.811   4.951   6.050  0.1111 -0.0479 -0.0553
  718POPI   C1A11063  14.692   5.519   6.339  0.2478 -0.2202 -0.1465
  718POPI   D2A11064  14.572   5.911   6.561 -0.0351  0.2009  0.0715
  718POPI   C3A11065  14.407   6.224   6.780  0.2584 -0.0594  0.3381
  718POPI   C4A11066  14.344   6.502   7.013 -0.0004 -0.2514 -0.2171
  718POPI   C1B11067  14.661   4.677   6.439 -0.3468 -0.2271 -0.1112
  718POPI   C2B11068  14.554   4.491   6.838 -0.2169  0.0425 -0.1918
  718POPI   C3B11069  14.354   4.457   7.226  0.1909  0.2787 -0.4130
  718POPI   C4B11070  14.457   4.293   7.595  0.1050 -0.1419 -0.3898
  719POPI    C111071   6.647  10.400   5.745 -0.2513  0.0840  0.0674
  719POPI    C211072   6.629  10.078   5.981  0.2590 -0.0300 -0.0373
  719POPI    C311073   6.546  10.045   5.591 -0.0117  0.0375  0.0128
  719POPI   PO411074   6.512  10.565   5.915  0.0360 -0.0162  0.0497
  719POPI   GL111075   6.471  10.425   6.382 -0.1181  0.3951 -0.0532
  719POPI   GL211076   6.737  10.466   6.402 -0.1267 -0.4346 -0.2130
  719POPI   C1A11077   6.456  10.364   6.908  0.2894  0.2525  0.0026
  719POPI   D2A11078   6.749  10.361   7.203 -0.2282  0.0419 -0.1130
  719POPI   C3A11079   6.694  10.657   7.563  0.3032  0.1093 -0.1718
  719POPI   C4A11080   6.770  10.567   7.983  0.0572  0.0061  0.0129
  719POPI   C1B11081   6.943  10.582   6.801 -0.1194  0.1653 -0.1792
  719POPI   C2B11082   6.633  10.810   7.107  0.0871  0.1782 -0.2343
  719POPI   C3B11083   6.592  11.103   7.408  0.3407 -0.3218  0.0418
  719POPI   C4B11084   6.314  11.358   7.689  0.2278  0.0296 -0.2764
  720POPI    C111085   5.088   8.888   6.108 -0.0489 -0.0031  0.0278
  720POPI    C211086   5.042   9.005   5.728  0.1185 -0.1114 -0.0271
  720POPI    C311087   5.387   9.075   5.918 -0.0045  0.0439  0.1430
  720POPI   PO411088   4.827   8.983   6.206  0.1595  0.2118  0.2049
  720POPI   GL111089   4.835   9.088   6.559  0.1480 -0.2765  0.0367
  720POPI   GL211090   4.765   9.464   6.626 -0.0490  0.0497  0.0342
  720POPI   C1A11091   4.516   8.939   6.847 -0.1959 -0.0949 -0.3189
  720POPI   D2A11092   4.213   8.962   7.098 -0.1344  0.0165  0.0596
  720POPI   C3A11093   4.029   9.376   7.197  0.0053 -0.1677 -0.2743
  720POPI   C4A11094   3.849   9.545   7.565  0.2356 -0.2109  0.0154
  720POPI   C1B11095   4.551   9.408   6.986  0.1065 -0.0945 -0.0682
  720POPI   C2B11096   4.511   9.415   7.339  0.0289  0.1482 -0.3057
  720POPI   C3B11097   4.307   9.303   7.716  0.2731 -0.1167  0.0806
  720POPI   C4B11098   4.270   9.387   8.046  0.1779  0.1606 -0.0387
  721POPI    C111099  15.328   1.276   5.780 -0.1861  0.0515  0.0268
  721POPI    C211100  15.334   1.211   5.385  0.0572 -0.0675  0.0480
  721POPI    C311101  15.422   1.573   5.529  0.0258 -0.0394 -0.0033
  721POPI   PO411102  15.422   1.040   5.877  0.2093  0.0258  0.1387
  721POPI   GL111103  15.489   0.870   6.314  0.1157  0.0600 -0.1593
  721POPI   GL211104  15.572   1.210   6.351 -0.0940 -0.0914 -0.3205
  721POPI   C1A11105  15.789   0.909   6.631  0.4037 -0.0185  0.1022
  721POPI   D2A11106  15.576   1.245   6.872 -0.0435 -0.2764 -0.2851
  721POPI   C3A11107  15.536   1.328   7.282  0.0920 -0.0539  0.1978
  721POPI   C4A11108  15.606   1.714   7.623  0.0411  0.2917  0.0231
  721POPI   C1B11109  15.158   1.040   6.703  0.1860  0.0634 -0.0347
  721POPI   C2B11110  15.214   0.877   7.143  0.0630 -0.2781  0.0576
  721POPI   C3B11111  15.141   0.988   7.578 -0.3035  0.2752 -0.0026
  721POPI   C4B11112  14.926   1.006   7.928 -0.1406 -0.2253  0.1202
  722POPI    C111113  13.790   8.210   6.068  0.0281 -0.0395 -0.1269
  722POPI    C211114  13.718   8.577   5.928 -0.1641 -0.0894 -0.1620
  722POPI    C311115  13.752   8.269   5.675  0.3068 -0.0485 -0.1568
  722POPI   PO411116  13.613   8.244   6.319 -0.3963  0.4256 -0.0242
  722POPI   GL111117  13.543   7.980   6.625 -0.1852  0.1810 -0.1805
  722POPI   GL211118  13.798   7.688   6.690  0.2516 -0.1091 -0.1385
  722POPI   C1A11119  13.440   8.232   7.003  0.2129  0.1676 -0.1106
  722POPI   D2A11120  13.391   8.003   7.416 -0.1237 -0.2727 -0.1076
  722POPI   C3A11121  13.409   8.181   7.822  0.0165  0.2288  0.0379
  722POPI   C4A11122  13.214   8.093   8.279  0.1862 -0.1532 -0.0666
  722POPI   C1B11123  13.744   7.877   7.085  0.0344  0.1478 -0.0383
  722POPI   C2B11124  13.884   8.169   7.438 -0.0422 -0.0948  0.4663
  722POPI   C3B11125  14.105   8.451   7.544  0.0369  0.0362 -0.1443
  722POPI   C4B11126  14.177   8.546   7.961  0.3548  0.1308  0.0023
  723POPI    C111127   2.920   4.857   5.817  0.1151  0.1325  0.1750
  723POPI    C211128   2.736   5.194   5.706  0.1764  0.0819 -0.0859
  723POPI    C311129   3.091   5.099   5.548  0.1751 -0.0886  0.0115
  723POPI   PO411130   2.685   4.607   5.874 -0.0147  0.0822  0.0603
  723POPI   GL111131   2.354   4.533   6.205 -0.1922  0.1671 -0.2366
  723POPI   GL211132   1.970   4.638   6.182 -0.0631 -0.0229 -0.0369
  723POPI   C1A11133   2.186   4.155   6.601 -0.0517  0.1509  0.3684
  723POPI   D2A11134   2.448   3.832   6.712  0.0661  0.2913 -0.0613
  723POPI   C3A11135   2.782   3.780   6.561  0.1411  0.1209  0.1419
  723POPI   C4A11136   3.074   3.500   6.334  0.0494  0.1334  0.0519
  723POPI   C1B11137   2.008   4.615   6.677 -0.0118  0.0423  0.0669
  723POPI   C2B11138   1.854   4.572   7.109  0.1292 -0.4103  0.0997
  723POPI   C3B11139   1.826   4.541   7.539  0.1046 -0.0634 -0.0019
  723POPI   C4B11140   1.976   4.790   7.922 -0.1831 -0.2657 -0.0815
  724POPI    C111141   3.587   4.424   5.404  0.0084 -0.1954  0.1206
  724POPI    C211142   3.720   4.212   5.092  0.1435 -0.0614  0.0860
  724POPI    C311143   3.424   4.476   5.042  0.5458  0.3775 -0.0581
  724POPI   PO411144   3.509   4.297   5.546  0.1625  0.1288 -0.0111
  724POPI   GL111145   3.505   4.326   5.974  0.0805 -0.3027  0.0141
  724POPI   GL211146   3.213   4.413   5.896  0.2316 -0.0151  0.0120
  724POPI   C1A11147   3.604   4.336   6.459 -0.2618 -0.0146  0.0436
  724POPI   D2A11148   3.496   4.420   6.856  0.0074 -0.0475 -0.0831
  724POPI   C3A11149   3.684   4.047   7.003 -0.0155  0.0554  0.1737
  724POPI   C4A11150   3.439   3.722   7.213 -0.2261 -0.2105 -0.1717
  724POPI   C1B11151   2.997   4.141   6.215  0.1030 -0.1435  0.2693
  724POPI   C2B11152   2.663   4.255   6.457 -0.1429 -0.0948  0.0171
  724POPI   C3B11153   2.765   4.214   6.917  0.0296  0.0648  0.2909
  724POPI   C4B11154   2.496   4.142   7.144  0.0720 -0.0568  0.1583
  725POPI    C111155   6.869  12.245   5.798 -0.0695 -0.1948 -0.0150
  725POPI    C211156   6.694  12.508   5.553  0.1393 -0.0297  0.0097
  725POPI    C311157   6.711  12.121   5.453 -0.1705 -0.0366 -0.0267
  725POPI   PO411158   6.797  12.348   6.034  0.0878 -0.3688  0.0648
  725POPI   GL111159   6.964  12.211   6.501 -0.1095 -0.1624  0.0226
  725POPI   GL211160   7.214  12.239   6.624 -0.2012  0.0111  0.3124
  725POPI   C1A11161   6.922  11.943   7.035 -0.0526  0.1900  0.0579
  725POPI   D2A11162   7.031  11.839   7.426  0.2789 -0.1155  0.1226
  725POPI   C3A11163   6.877  11.528   7.577  0.2850 -0.1690 -0.0378
  725POPI   C4A11164   6.875  11.114   7.767 -0.1125  0.0328  0.0347
  725POPI   C1B11165   7.420  12.259   6.979  0.0059  0.0200  0.0034
  725POPI   C2B11166   7.219  12.309   7.360  0.0958  0.1540  0.0432
  725POPI   C3B11167   7.174  12.152   7.774  0.0499  0.0843 -0.0847
  725POPI   C4B11168   7.081  11.860   8.004 -0.2694  0.3884 -0.0150
  726POPI    C111169   8.069   8.080   6.102 -0.1418  0.0180 -0.3521
  726POPI    C211170   8.276   8.383   5.944 -0.1385  0.1338 -0.1300
  726POPI    C311171   8.258   8.033   5.753 -0.0204  0.2277 -0.3168
  726POPI   PO411172   8.106   8.153   6.345  0.0628 -0.0032  0.0191
  726POPI   GL111173   8.137   8.056   6.840  0.1111  0.0749  0.0941
  726POPI   GL211174   8.448   7.973   6.738 -0.1496  0.1114  0.1219
  726POPI   C1A11175   8.291   8.163   7.162 -0.2645  0.0150 -0.1038
  726POPI   D2A11176   8.451   8.001   7.524 -0.3009  0.3044  0.1714
  726POPI   C3A11177   8.577   8.168   7.933  0.0964 -0.3746 -0.1849
  726POPI   C4A11178   8.528   8.231   8.334 -0.0811  0.2837  0.1390
  726POPI   C1B11179   8.797   8.128   7.155  0.1763 -0.0406 -0.1240
  726POPI   C2B11180   8.948   8.197   7.626 -0.0654  0.0671 -0.1481
  726POPI   C3B11181   8.972   8.663   7.851  0.2257  0.0829  0.1304
  726POPI   C4B11182   9.146   8.574   8.344  0.0086  0.0121  0.2102
  727POPI    C111183  18.171   3.068   5.696 -0.0430 -0.0902 -0.0010
  727POPI    C211184  17.808   3.198   5.799  0.0200 -0.1287  0.2755
  727POPI    C311185  17.930   3.228   5.420 -0.3893 -0.3986  0.1156
  727POPI   PO411186  18.296   3.136   5.877  0.0173  0.0601  0.0740
  727POPI   GL111187  18.664   3.283   6.045 -0.1760  0.0362 -0.2668
  727POPI   GL211188  18.819   3.128   6.363 -0.2497  0.2577 -0.0899
  727POPI   C1A11189  18.372   3.694   6.210 -0.1379  0.2178  0.0635
  727POPI   D2A11190  18.114   4.036   6.486 -0.1969  0.3569 -0.0116
  727POPI   C3A11191  17.620   3.921   6.495  0.0773  0.2164 -0.2705
  727POPI   C4A11192  17.198   3.856   6.306  0.0618  0.1037 -0.0550
  727POPI   C1B11193  18.994   3.173   6.739  0.0432  0.0218  0.1600
  727POPI   C2B11194  19.189   3.315   7.023 -0.0105  0.3855  0.2219
  727POPI   C3B11195  19.448   3.081   7.414  0.1533 -0.0848 -0.0892
  727POPI   C4B11196  19.639   2.824   7.713  0.0139  0.0461  0.0003
  728POPI    C111197   2.561  12.902   5.378 -0.1821 -0.1462  0.0943
  728POPI    C211198   2.373  12.555   5.444 -0.3790 -0.0734 -0.0747
  728POPI    C311199   2.557  12.619   5.095 -0.1498 -0.0933  0.0407
  728POPI   PO411200   2.698  13.019   5.662  0.1539 -0.0209  0.4054
  728POPI   GL111201   2.527  13.159   6.120  0.1542 -0.0463 -0.1288
  728POPI   GL211202   2.847  13.218   6.112  0.1086  0.0224 -0.0460
  728POPI   C1A11203   2.179  13.351   6.518  0.2258  0.2739  0.2950
  728POPI   D2A11204   1.823  13.291   6.754  0.2996  0.0238  0.1638
  728POPI   C3A11205   1.907  12.872   6.974 -0.3754 -0.3389 -0.1368
  728POPI   C4A11206   1.751  12.815   7.356 -0.2259 -0.2118  0.2476
  728POPI   C1B11207   2.929  12.962   6.437 -0.0326 -0.1076  0.0191
  728POPI   C2B11208   2.857  12.848   6.817  0.1884 -0.2219 -0.0708
  728POPI   C3B11209   2.814  12.741   7.129  0.1398 -0.1801  0.1310
  728POPI   C4B11210   2.762  12.440   7.383 -0.0454 -0.3192 -0.0110
  729POPI    C111211   9.619   3.945   5.304  0.2610 -0.2893 -0.2410
  729POPI    C211212   9.793   4.288   5.412 -0.1521 -0.2169  0.2318
  729POPI    C311213   9.622   4.255   5.052 -0.2774  0.1411  0.2544
  729POPI   PO411214   9.513   3.871   5.560 -0.1163 -0.2568  0.1677
  729POPI   GL111215   9.442   3.994   6.030  0.1201 -0.2067 -0.0640
  729POPI   GL211216   9.685   4.202   6.096 -0.0770  0.0333  0.1030
  729POPI   C1A11217   9.370   3.921   6.422  0.1962  0.0911 -0.2552
  729POPI   D2A11218   9.353   4.289   6.661  0.1719  0.2300 -0.1915
  729POPI   C3A11219   8.959   4.489   6.837  0.0517  0.0199 -0.1734
  729POPI   C4A11220   8.953   4.918   6.985 -0.1411  0.0502  0.3815
  729POPI   C1B11221   9.785   4.125   6.564  0.0463  0.2125  0.0289
  729POPI   C2B11222   9.897   4.043   6.976 -0.1316 -0.0822  0.1417
  729POPI   C3B11223  10.050   3.893   7.330  0.3046  0.0033 -0.1413
  729POPI   C4B11224   9.983   3.643   7.628  0.1418 -0.2657  0.0828
  730POPI    C111225   8.952   6.428   5.632 -0.1394 -0.0110 -0.3470
  730POPI    C211226   9.349   6.458   5.593 -0.1343  0.0504 -0.2491
  730POPI    C311227   9.116   6.773   5.515 -0.1263  0.1667  0.1702
  730POPI   PO411228   8.829   6.147   5.853 -0.0081 -0.0034 -0.1688
  730POPI   GL111229   8.508   5.861   6.112  0.1398  0.3257  0.0109
  730POPI   GL211230   8.210   5.725   6.195 -0.3065 -0.2338  0.0336
  730POPI   C1A11231   8.654   5.838   6.517 -0.0997  0.0037  0.1856
  730POPI   D2A11232   8.978   5.908   6.675 -0.0237 -0.0557 -0.1389
  730POPI   C3A11233   8.958   6.323   6.820 -0.1401 -0.0220 -0.3496
  730POPI   C4A11234   9.175   6.734   6.972  0.1445  0.0484  0.2917
  730POPI   C1B11235   8.166   5.944   6.609  0.2765  0.1266  0.0021
  730POPI   C2B11236   8.260   5.790   6.968  0.5341 -0.2303 -0.0241
  730POPI   C3B11237   8.245   5.472   7.194  0.2875 -0.0278  0.1288
  730POPI   C4B11238   8.394   5.103   7.342 -0.1567  0.0493 -0.0783
  731POPI    C111239  10.822   7.453   5.407  0.1131  0.0657  0.1353
  731POPI    C211240  10.767   7.066   5.322  0.1396  0.0934 -0.0105
  731POPI    C311241  11.067   7.268   5.150  0.1152  0.1833  0.0520
  731POPI   PO411242  10.907   7.532   5.628 -0.2222 -0.2372  0.0490
  731POPI   GL111243  11.013   7.860   5.960 -0.2675 -0.4838  0.0586
  731POPI   GL211244  10.902   7.500   6.120 -0.0825  0.0697 -0.1158
  731POPI   C1A11245  11.316   7.715   6.360 -0.2431 -0.1598 -0.2919
  731POPI   D2A11246  11.563   7.664   6.780 -0.3147 -0.1523 -0.0634
  731POPI   C3A11247  11.387   7.742   7.124  0.0583  0.0503  0.0019
  731POPI   C4A11248  11.042   7.572   7.426 -0.1750 -0.1562  0.2991
  731POPI   C1B11249  10.897   7.143   6.315  0.0007 -0.0723  0.0922
  731POPI   C2B11250  11.054   6.802   6.615  0.0278  0.4139  0.2202
  731POPI   C3B11251  11.094   6.579   6.976 -0.2817 -0.0564  0.0627
  731POPI   C4B11252  11.338   6.574   7.301  0.4127  0.1251 -0.0002
  732POPI    C111253  14.529   0.086   5.596  0.1704 -0.0940  0.0255
  732POPI    C211254  14.284   0.245   5.323  0.0331 -0.3249  0.0109
  732POPI    C311255  14.652   0.128   5.218  0.0380 -0.2659 -0.0383
  732POPI   PO411256  14.367   0.169   5.829 -0.0420  0.1342  0.0549
  732POPI   GL111257  14.102  -0.028   6.127 -0.0213 -0.3427 -0.0476
  732POPI   GL211258  13.808  -0.258   6.173 -0.2739  0.0552  0.0715
  732POPI   C1A11259  14.267   0.118   6.653 -0.1188 -0.0603 -0.1991
  732POPI   D2A11260  14.500   0.288   7.035 -0.0497 -0.1454 -0.2489
  732POPI   C3A11261  14.535   0.333   7.530  0.1958 -0.1545 -0.2031
  732POPI   C4A11262  14.685   0.118   7.827 -0.0820 -0.1106  0.0447
  732POPI   C1B11263  13.744  -0.071   6.610 -0.3365  0.0089 -0.1363
  732POPI   C2B11264  13.536   0.132   6.940  0.0246  0.1181  0.0563
  732POPI   C3B11265  13.479  -0.129   7.365 -0.0518  0.1345 -0.0965
  732POPI   C4B11266  13.217  -0.097   7.707 -0.0555  0.0427  0.2039
  733POPI    C111267   8.019   4.433   5.232  0.0488  0.0242  0.2781
  733POPI    C211268   8.385   4.279   5.185  0.0751  0.1450  0.0769
  733POPI    C311269   8.063   4.057   5.103  0.1068  0.0975  0.0810
  733POPI   PO411270   8.101   4.493   5.523 -0.0007 -0.0932 -0.1401
  733POPI   GL111271   8.380   4.441   5.866  0.2845  0.0652 -0.3484
  733POPI   GL211272   8.270   4.301   6.205  0.0241  0.0756  0.1358
  733POPI   C1A11273   8.655   4.709   6.121  0.0791 -0.3294 -0.3012
  733POPI   D2A11274   8.718   4.949   6.504 -0.0245  0.0122  0.4277
  733POPI   C3A11275   8.555   5.355   6.778 -0.1283  0.0282  0.4860
  733POPI   C4A11276   8.734   5.708   7.021  0.0203 -0.2472  0.0145
  733POPI   C1B11277   8.042   4.185   6.618 -0.0374  0.0160  0.0855
  733POPI   C2B11278   7.677   4.085   6.847  0.2418  0.1836  0.1636
  733POPI   C3B11279   7.682   3.799   7.118  0.1518  0.0899  0.0822
  733POPI   C4B11280   7.375   3.578   7.277  0.2621 -0.1421  0.1282
  734POPI    C111281   7.356  12.185   5.864  0.0414  0.0237 -0.0068
  734POPI    C211282   7.683  12.202   5.634 -0.0133  0.0765 -0.0812
  734POPI    C311283   7.512  12.539   5.764 -0.0550  0.0497 -0.0664
  734POPI   PO411284   7.431  12.021   6.095 -0.0038 -0.0020  0.2182
  734POPI   GL111285   7.760  11.750   6.399 -0.1315  0.0527 -0.1552
  734POPI   GL211286   7.678  12.014   6.524  0.4776  0.1108 -0.0688
  734POPI   C1A11287   7.946  11.506   6.787 -0.0058  0.0101 -0.1985
  734POPI   D2A11288   7.907  11.601   7.158 -0.2042 -0.1160  0.2033
  734POPI   C3A11289   7.637  11.994   7.399  0.1478 -0.0477  0.0327
  734POPI   C4A11290   7.802  12.433   7.486 -0.1685  0.2199  0.0476
  734POPI   C1B11291   7.926  12.181   6.954 -0.0188  0.1312 -0.1191
  734POPI   C2B11292   8.152  12.033   7.409  0.0486  0.1830 -0.0208
  734POPI   C3B11293   8.432  11.931   7.840 -0.0188  0.2666 -0.0934
  734POPI   C4B11294   8.717  11.863   8.168 -0.2919 -0.0525  0.0496
  735POPI    C111295  14.112  16.471   5.576 -0.0960 -0.1382 -0.0311
  735POPI    C211296  14.041  16.781   5.334  0.3454  0.0503  0.0717
  735POPI    C311297  14.001  16.408   5.197  0.2085  0.1523 -0.1735
  735POPI   PO411298  14.051  16.534   5.751  0.2341  0.1571 -0.2078
  735POPI   GL111299  13.997  16.710   6.221 -0.0831  0.0432  0.1053
  735POPI   GL211300  14.233  16.549   6.228 -0.2607 -0.0702  0.0844
  735POPI   C1A11301  13.797  16.894   6.539  0.0910 -0.3366 -0.0277
  735POPI   D2A11302  13.669  16.916   7.088  0.0120 -0.0646  0.2082
  735POPI   C3A11303  13.631  17.192   7.500  0.2296 -0.4774  0.1360
  735POPI   C4A11304  13.885  17.025   7.948  0.2064 -0.0321 -0.0155
  735POPI   C1B11305  14.392  16.779   6.616 -0.0241  0.0760  0.0100
  735POPI   C2B11306  14.623  16.810   7.023  0.0534 -0.0491 -0.4608
  735POPI   C3B11307  14.948  16.606   7.245  0.0073 -0.0192 -0.5189
  735POPI   C4B11308  15.392  16.502   7.428  0.3102 -0.0458 -0.1178
  736POPI    C111309   7.427   6.689   6.324 -0.1279 -0.0624 -0.0890
  736POPI    C211310   7.453   6.509   5.968 -0.0536 -0.0278 -0.1012
  736POPI    C311311   7.768   6.706   6.116  0.0063 -0.2751  0.1089
  736POPI   PO411312   7.216   6.944   6.353 -0.0340 -0.1748 -0.2397
  736POPI   GL111313   7.167   7.218   6.778 -0.0189  0.0183 -0.1567
  736POPI   GL211314   6.970   7.022   6.809 -0.0759  0.0954  0.0891
  736POPI   C1A11315   7.143   7.426   7.141 -0.3967  0.2353 -0.3482
  736POPI   D2A11316   7.180   7.330   7.559  0.1638  0.0007  0.0458
  736POPI   C3A11317   6.813   7.189   7.825  0.1477  0.0668 -0.0671
  736POPI   C4A11318   6.664   6.951   8.131  0.1114  0.2942 -0.3077
  736POPI   C1B11319   7.301   6.956   7.235 -0.0062  0.1158  0.0343
  736POPI   C2B11320   7.363   6.844   7.648 -0.0510  0.0178  0.1144
  736POPI   C3B11321   7.600   6.746   7.961  0.0441  0.1205 -0.1807
  736POPI   C4B11322   7.966   6.694   8.125 -0.1365 -0.0063 -0.0431
  737POPI    C111323  12.194   0.230   5.697  0.1768  0.1285 -0.0193
  737POPI    C211324  12.443   0.068   5.429 -0.0288 -0.1591 -0.0417
  737POPI    C311325  12.186   0.353   5.316  0.0862 -0.0707 -0.0831
  737POPI   PO411326  12.143  -0.001   5.857 -0.0952 -0.2399 -0.1543
  737POPI   GL111327  12.224  -0.140   6.287 -0.0591  0.0575 -0.0251
  737POPI   GL211328  12.180  -0.463   6.351 -0.0801 -0.2037  0.0253
  737POPI   C1A11329  12.649  -0.227   6.488  0.0559  0.0801  0.2069
  737POPI   D2A11330  12.961  -0.102   6.780  0.1667  0.0982 -0.0265
  737POPI   C3A11331  13.012  -0.319   7.237 -0.1451  0.2483  0.0987
  737POPI   C4A11332  12.919  -0.530   7.494  0.0602  0.2463  0.1004
  737POPI   C1B11333  12.168  -0.242   6.787  0.0125  0.1795  0.0781
  737POPI   C2B11334  12.209  -0.229   7.238 -0.1990  0.0522 -0.1918
  737POPI   C3B11335  12.289   0.009   7.545 -0.3913 -0.2797  0.0049
  737POPI   C4B11336  12.547   0.240   7.839 -0.0735 -0.3702  0.1167
  738POPI    C111337   7.706   9.639   5.875 -0.0336 -0.3439 -0.1366
  738POPI    C211338   7.748   9.808   5.515 -0.0518 -0.1011 -0.0273
  738POPI    C311339   7.819   9.417   5.562 -0.0350 -0.1320 -0.2900
  738POPI   PO411340   7.811   9.722   6.115 -0.2276  0.3763  0.0940
  738POPI   GL111341   7.767   9.772   6.618  0.0091  0.0777  0.1853
  738POPI   GL211342   8.001   9.557   6.782 -0.0052  0.2089  0.1160
  738POPI   C1A11343   7.439   9.583   6.918 -0.4088 -0.1295  0.0586
  738POPI   D2A11344   7.546   9.470   7.268  0.0185 -0.1743 -0.0218
  738POPI   C3A11345   7.303   9.264   7.614  0.0514  0.0093 -0.0756
  738POPI   C4A11346   7.109   9.240   8.054 -0.1337  0.1925  0.0921
  738POPI   C1B11347   7.853   9.796   7.118  0.0519  0.0172 -0.1200
  738POPI   C2B11348   7.761   9.875   7.491 -0.2273  0.3096 -0.0212
  738POPI   C3B11349   7.979   9.833   7.929  0.0097 -0.1611 -0.1444
  738POPI   C4B11350   8.063   9.543   8.288 -0.0376 -0.1221  0.1971
  739POPI    C111351  14.458   8.045   5.804  0.1266  0.0854  0.1858
  739POPI    C211352  14.477   7.655   5.891  0.1909  0.0956  0.2179
  739POPI    C311353  14.719   7.809   5.612 -0.1985  0.0108 -0.1773
  739POPI   PO411354  14.449   8.144   6.003 -0.3392 -0.1183 -0.0481
  739POPI   GL111355  14.572   8.339   6.374  0.1094 -0.0637  0.0878
  739POPI   GL211356  14.804   8.501   6.226  0.2000  0.0355 -0.1627
  739POPI   C1A11357  14.778   8.163   6.656 -0.1787  0.1601 -0.1317
  739POPI   D2A11358  14.906   8.114   7.059  0.1311  0.0770  0.0093
  739POPI   C3A11359  15.084   7.761   7.239 -0.0610  0.2945  0.1369
  739POPI   C4A11360  15.470   7.455   7.299  0.2648 -0.2563 -0.4071
  739POPI   C1B11361  14.890   8.633   6.655 -0.0685  0.0150  0.1014
  739POPI   C2B11362  14.898   8.661   6.991 -0.0860  0.1486 -0.1088
  739POPI   C3B11363  14.880   8.800   7.361 -0.3859  0.0000  0.0736
  739POPI   C4B11364  14.797   9.236   7.565  0.3057  0.0222  0.1243
  740POPI    C111365  14.787   3.603   5.437 -0.0541  0.3017  0.0204
  740POPI    C211366  14.597   3.280   5.297  0.3598  0.1152 -0.1267
  740POPI    C311367  14.453   3.646   5.222  0.0196 -0.0231 -0.1647
  740POPI   PO411368  14.844   3.512   5.686  0.1674  0.1763  0.0085
  740POPI   GL111369  14.790   3.728   6.019  0.0585  0.1934 -0.2419
  740POPI   GL211370  14.718   4.034   6.036  0.1306 -0.2710  0.1604
  740POPI   C1A11371  14.811   3.719   6.441 -0.2180  0.1678  0.1210
  740POPI   D2A11372  14.749   3.662   6.822  0.0417  0.3098  0.0161
  740POPI   C3A11373  14.985   3.745   7.195 -0.3675  0.3145 -0.2351
  740POPI   C4A11374  15.269   4.005   7.268 -0.1515  0.0631 -0.4529
  740POPI   C1B11375  14.400   4.329   6.103 -0.1400 -0.0889 -0.1142
  740POPI   C2B11376  14.189   4.551   6.382 -0.2993 -0.0574  0.0510
  740POPI   C3B11377  14.121   4.852   6.739  0.2179 -0.0435  0.3883
  740POPI   C4B11378  13.791   4.882   7.102  0.1530 -0.0361 -0.0844
  741POPS   CNO11379  15.696  11.699   5.829 -0.1206 -0.3615  0.2573
  741POPS   PO411380  15.720  12.085   5.806 -0.2002 -0.1383  0.3126
  741POPS   GL111381  15.635  12.147   6.220 -0.2244 -0.3982 -0.1291
  741POPS   GL211382  15.946  12.090   6.258  0.1353  0.0575 -0.1723
  741POPS   C1A11383  15.360  12.093   6.561  0.3817  0.0839  0.2064
  741POPS   D2A11384  15.244  12.181   6.995 -0.0596 -0.0416 -0.0348
  741POPS   C3A11385  15.130  12.079   7.411 -0.2688 -0.0584  0.1086
  741POPS   C4A11386  14.922  11.951   7.755 -0.0524  0.1080  0.5571
  741POPS   C1B11387  16.222  11.797   6.584 -0.1273  0.0348  0.2501
  741POPS   C2B11388  16.257  11.976   7.008  0.1937  0.1426 -0.1938
  741POPS   C3B11389  16.335  12.040   7.449  0.2378  0.1469 -0.1412
  741POPS   C4B11390  16.020  11.882   7.759 -0.2741 -0.1654 -0.3933
  742POPS   CNO11391   5.167  15.768   5.756  0.2413 -0.3338  0.1516
  742POPS   PO411392   5.502  15.610   6.016  0.0036 -0.0269  0.0197
  742POPS   GL111393   5.500  15.665   6.387 -0.1621 -0.1422  0.1260
  742POPS   GL211394   5.414  16.014   6.376 -0.0950  0.1503  0.2669
  742POPS   C1A11395   5.485  15.759   6.863  0.0457 -0.0296  0.1901
  742POPS   D2A11396   5.739  15.706   7.194  0.0561 -0.0924  0.2334
  742POPS   C3A11397   5.684  15.904   7.584  0.1938 -0.2915  0.0588
  742POPS   C4A11398   5.863  16.245   7.907 -0.1616 -0.0066  0.3658
  742POPS   C1B11399   5.221  16.151   6.667  0.0464 -0.1389 -0.0905
  742POPS   C2B11400   4.960  16.384   6.914  0.2090  0.0598  0.3419
  742POPS   C3B11401   4.776  16.792   6.967 -0.2174  0.1042 -0.1854
  742POPS   C4B11402   4.925  17.163   7.218  0.0491  0.1748  0.0585
  743POPS   CNO11403   1.626   2.446   5.659 -0.0543 -0.1965 -0.1443
  743POPS   PO411404   1.933   2.618   5.565  0.1654 -0.1499 -0.0551
  743POPS   GL111405   2.051   2.456   6.021  0.2650  0.1760  0.0517
  743POPS   GL211406   2.060   2.132   5.819 -0.1589  0.0077  0.2695
  743POPS   C1A11407   2.005   2.342   6.512  0.1224 -0.0422  0.1870
  743POPS   D2A11408   2.044   1.982   6.879 -0.0363  0.1886  0.2674
  743POPS   C3A11409   2.365   1.755   6.758 -0.3393  0.1235 -0.1994
  743POPS   C4A11410   2.684   1.734   6.391  0.0997  0.0284  0.2646
  743POPS   C1B11411   2.279   1.991   6.187 -0.0459 -0.0316  0.2568
  743POPS   C2B11412   2.499   2.174   6.559  0.1638 -0.3249  0.0990
  743POPS   C3B11413   2.318   2.439   6.862  0.0685  0.1922  0.2306
  743POPS   C4B11414   2.068   2.556   7.246 -0.4794  0.2049  0.0014
  744POPS   CNO11415   6.574   0.834   5.309 -0.0953  0.1128  0.0240
  744POPS   PO411416   6.367   0.547   5.512 -0.1228 -0.2483  0.0993
  744POPS   GL111417   6.463   0.625   5.973  0.1235 -0.0377 -0.4399
  744POPS   GL211418   6.124   0.631   6.129  0.0520  0.0292  0.1691
  744POPS   C1A11419   6.582   0.495   6.385  0.1257 -0.0617  0.0527
  744POPS   D2A11420   6.652   0.671   6.852  0.2756  0.0102 -0.1197
  744POPS   C3A11421   6.535   1.082   6.974 -0.0466  0.2203  0.2910
  744POPS   C4A11422   6.457   1.487   6.721  0.4244  0.1001 -0.0555
  744POPS   C1B11423   5.871   0.520   6.487 -0.3371  0.0448 -0.1478
  744POPS   C2B11424   5.699   0.493   6.953 -0.2181  0.0686 -0.0596
  744POPS   C3B11425   5.352   0.479   7.239  0.4491 -0.0557  0.1958
  744POPS   C4B11426   5.084   0.593   7.548 -0.0215 -0.0553  0.1335
  745POPS   CNO11427   9.617  14.170   5.885  0.0242  0.0178 -0.1143
  745POPS   PO411428   9.418  14.407   6.054 -0.2119 -0.3507  0.0277
  745POPS   GL111429   9.509  14.462   6.422 -0.1078  0.0515  0.1786
  745POPS   GL211430   9.449  14.191   6.586 -0.0623 -0.1917 -0.1635
  745POPS   C1A11431   9.572  14.735   6.745 -0.0771 -0.1050 -0.2304
  745POPS   D2A11432   9.338  15.114   7.074  0.3025  0.3536 -0.0690
  745POPS   C3A11433   9.378  15.287   7.428  0.0801 -0.0328  0.0678
  745POPS   C4A11434   9.434  15.356   7.835  0.0599  0.0460  0.1326
  745POPS   C1B11435   9.303  14.101   6.959  0.1946  0.2127 -0.0915
  745POPS   C2B11436   9.535  14.390   7.110  0.4271  0.2887  0.4086
  745POPS   C3B11437   9.539  14.653   7.411  0.0931  0.0862 -0.0377
  745POPS   C4B11438   9.915  14.482   7.649  0.0715  0.0990  0.2115
  746POPS   CNO11439   9.984   4.530   5.846 -0.1809 -0.0986 -0.0925
  746POPS   PO411440   9.585   4.657   5.816  0.2567  0.0021  0.1448
  746POPS   GL111441   9.663   4.629   6.348 -0.1317  0.1348 -0.1431
  746POPS   GL211442  10.051   4.490   6.318 -0.0485 -0.2566 -0.1753
  746POPS   C1A11443   9.847   4.518   6.849 -0.0533 -0.0004 -0.1619
  746POPS   D2A11444   9.835   4.471   7.320  0.0551  0.0679  0.0366
  746POPS   C3A11445   9.702   4.803   7.646  0.2095  0.0898  0.2374
  746POPS   C4A11446   9.337   5.088   7.833  0.1850  0.0017  0.2606
  746POPS   C1B11447  10.187   4.788   6.465 -0.1510  0.1991  0.1292
  746POPS   C2B11448  10.365   4.832   6.807  0.0745  0.2180 -0.1416
  746POPS   C3B11449  10.525   4.982   7.156 -0.1634  0.3425 -0.0761
  746POPS   C4B11450  10.814   4.844   7.456 -0.1367 -0.1413 -0.0000
  747POPS   CNO11451   3.306   8.145   6.220  0.2974 -0.1817  0.1082
  747POPS   PO411452   3.440   8.410   5.925 -0.3103 -0.2592  0.1060
  747POPS   GL111453   3.273   8.727   6.259  0.3549 -0.3513 -0.1838
  747POPS   GL211454   3.575   8.689   6.646 -0.0879  0.2395  0.3488
  747POPS   C1A11455   3.094   8.471   6.553  0.1806 -0.2836  0.1371
  747POPS   D2A11456   2.984   8.601   7.016  0.0550 -0.1717 -0.2289
  747POPS   C3A11457   3.060   8.280   7.188 -0.3887 -0.0192 -0.1386
  747POPS   C4A11458   3.189   8.203   7.645  0.3331 -0.0114  0.0032
  747POPS   C1B11459   3.536   8.589   7.035 -0.0106  0.1462 -0.2490
  747POPS   C2B11460   3.305   8.641   7.392 -0.1409 -0.0200 -0.1330
  747POPS   C3B11461   3.511   8.601   7.701 -0.0748 -0.0939  0.1850
  747POPS   C4B11462   3.808   8.450   7.989  0.2806 -0.1830 -0.0299
  748POPS   CNO11463  12.090  16.247   5.523  0.1441 -0.0295  0.0421
  748POPS   PO411464  12.023  16.446   5.881 -0.1465  0.2056  0.1777
  748POPS   GL111465  12.010  16.756   6.154  0.0816  0.0102 -0.0566
  748POPS   GL211466  11.723  16.674   6.371  0.2050  0.1753 -0.0619
  748POPS   C1A11467  12.303  16.942   6.398 -0.0024  0.1675 -0.1372
  748POPS   D2A11468  12.397  17.430   6.255 -0.0341  0.0474  0.0532
  748POPS   C3A11469  12.529  17.635   6.614 -0.1654 -0.1734 -0.0659
  748POPS   C4A11470  12.624  17.891   6.976  0.0548  0.0032  0.0990
  748POPS   C1B11471  11.952  16.722   6.664  0.0126  0.2464 -0.1884
  748POPS   C2B11472  11.876  16.664   6.945 -0.5464  0.3463  0.0535
  748POPS   C3B11473  11.837  16.632   7.404 -0.1132  0.3306  0.0759
  748POPS   C4B11474  11.838  16.893   7.732  0.0396  0.1264 -0.4473
  749POPS   CNO11475  12.739   1.167   5.347  0.2172 -0.0815 -0.1548
  749POPS   PO411476  12.698   1.126   5.767 -0.1577  0.0797 -0.0485
  749POPS   GL111477  12.367   1.191   6.071  0.0818 -0.1404 -0.1670
  749POPS   GL211478  12.248   1.523   6.066 -0.2186  0.2641  0.1673
  749POPS   C1A11479  12.398   1.175   6.431 -0.1175  0.2131 -0.0213
  749POPS   D2A11480  12.692   1.443   6.649 -0.1365 -0.3069  0.0172
  749POPS   C3A11481  12.602   1.634   6.906 -0.0280  0.0765 -0.2200
  749POPS   C4A11482  12.638   1.641   7.341  0.0465  0.3582  0.0551
  749POPS   C1B11483  12.299   1.646   6.497  0.2631  0.0580  0.0599
  749POPS   C2B11484  12.159   1.814   6.827  0.2442 -0.1809 -0.2029
  749POPS   C3B11485  12.053   1.934   7.219  0.1978 -0.0263  0.2586
  749POPS   C4B11486  12.048   2.246   7.437 -0.2326 -0.0004  0.0441
  750POPS   CNO11487  15.918   1.633   5.422 -0.1015 -0.1137  0.4044
  750POPS   PO411488  15.817   1.399   5.779  0.2936 -0.0320  0.2100
  750POPS   GL111489  15.924   1.462   6.132 -0.0641 -0.0980  0.0557
  750POPS   GL211490  16.154   1.228   6.234 -0.1468  0.0232 -0.2510
  750POPS   C1A11491  15.951   1.521   6.651 -0.0856 -0.0636  0.0170
  750POPS   D2A11492  15.868   1.656   7.079 -0.1804  0.0864  0.0307
  750POPS   C3A11493  15.706   2.081   7.213 -0.1660 -0.0210 -0.1113
  750POPS   C4A11494  15.872   2.489   7.313 -0.0901  0.1333  0.0231
  750POPS   C1B11495  16.508   1.395   6.466  0.0281 -0.1309  0.1913
  750POPS   C2B11496  16.712   1.348   6.829 -0.0604  0.0957 -0.0213
  750POPS   C3B11497  17.068   1.430   7.037 -0.1394 -0.0641  0.1976
  750POPS   C4B11498  17.353   1.716   6.787  0.0897 -0.2313 -0.1094
  751POPS   CNO11499  14.196  10.402   6.086  0.2320  0.2531 -0.1508
  751POPS   PO411500  14.364  10.134   5.828 -0.2231 -0.0539  0.2508
  751POPS   GL111501  14.525  10.025   6.270  0.1319  0.0281 -0.4635
  751POPS   GL211502  14.209   9.907   6.277 -0.0219 -0.1062 -0.0942
  751POPS   C1A11503  14.740  10.155   6.704 -0.0677 -0.0189 -0.0470
  751POPS   D2A11504  14.796   9.965   7.086 -0.1439 -0.0237 -0.1314
  751POPS   C3A11505  14.659  10.161   7.348  0.1771  0.0383 -0.0543
  751POPS   C4A11506  14.551  10.210   7.804  0.0416 -0.1530  0.3621
  751POPS   C1B11507  14.170  10.120   6.636  0.4868  0.0078  0.0538
  751POPS   C2B11508  14.335  10.077   6.998  0.0503 -0.5681  0.0047
  751POPS   C3B11509  14.193   9.912   7.437  0.0736  0.2027  0.0462
  751POPS   C4B11510  14.064   9.969   7.793  0.0963 -0.2494  0.0421
  752POPS   CNO11511  17.346  13.776   5.997  0.4764  0.3974 -0.2482
  752POPS   PO411512  17.792  13.692   5.940 -0.0146 -0.1985 -0.1443
  752POPS   GL111513  17.738  13.888   6.369  0.2279  0.0996  0.3385
  752POPS   GL211514  17.471  13.696   6.488  0.2111  0.2579 -0.1467
  752POPS   C1A11515  17.583  14.046   6.754  0.1048  0.0543 -0.1667
  752POPS   D2A11516  17.725  14.044   7.171  0.2818  0.0017  0.0155
  752POPS   C3A11517  18.005  13.742   7.239 -0.1056 -0.0148 -0.1621
  752POPS   C4A11518  18.097  13.421   7.145 -0.0695  0.3845 -0.4116
  752POPS   C1B11519  17.107  13.820   6.481  0.3102 -0.3788  0.2407
  752POPS   C2B11520  16.692  13.944   6.637 -0.2517  0.0250 -0.0846
  752POPS   C3B11521  16.366  14.071   6.467 -0.3102  0.0260  0.0400
  752POPS   C4B11522  16.138  14.319   6.440 -0.2476  0.3078  0.0584
  753POPS   CNO11523  11.704  15.015   5.585  0.1582 -0.0111 -0.1052
  753POPS   PO411524  11.432  14.659   5.773 -0.0635 -0.1724 -0.1663
  753POPS   GL111525  11.573  14.612   6.218  0.0831 -0.0214  0.3132
  753POPS   GL211526  11.540  14.327   6.400  0.1034 -0.1061 -0.0935
  753POPS   C1A11527  11.842  14.724   6.486  0.2470  0.0871  0.0525
  753POPS   D2A11528  11.967  15.107   6.695 -0.1667 -0.0101  0.0951
  753POPS   C3A11529  11.681  15.082   7.002 -0.1046 -0.0662 -0.1850
  753POPS   C4A11530  11.221  15.076   6.929  0.0956  0.1581 -0.0126
  753POPS   C1B11531  11.427  14.707   6.670 -0.0330  0.1218 -0.1391
  753POPS   C2B11532  11.388  14.719   7.170  0.2519  0.1808 -0.0450
  753POPS   C3B11533  11.469  14.727   7.529 -0.3338 -0.1436  0.1310
  753POPS   C4B11534  11.151  14.675   7.812 -0.0008  0.0450 -0.3718
  754POPS   CNO11535   8.121  15.597   5.775  0.1071  0.2031 -0.0657
  754POPS   PO411536   8.464  15.530   5.904  0.2364 -0.0109 -0.2577
  754POPS   GL111537   8.644  15.689   6.272 -0.0997  0.0132 -0.0771
  754POPS   GL211538   8.797  15.827   6.438 -0.0761 -0.2602 -0.1238
  754POPS   C1A11539   8.471  15.620   6.752 -0.1332  0.1305 -0.1427
  754POPS   D2A11540   8.381  15.645   7.152  0.0706  0.1030  0.0116
  754POPS   C3A11541   8.095  15.978   7.377 -0.2336 -0.2850  0.2208
  754POPS   C4A11542   7.709  16.169   7.623 -0.0501 -0.0041  0.0381
  754POPS   C1B11543   8.868  15.970   6.864  0.0001 -0.1058 -0.0500
  754POPS   C2B11544   8.838  15.818   7.230 -0.3185  0.2021 -0.3365
  754POPS   C3B11545   8.614  15.931   7.549 -0.0269 -0.1752  0.2187
  754POPS   C4B11546   8.375  15.668   7.788 -0.2268  0.2262  0.0570
  755POPS   CNO11547   9.304   3.381   5.558 -0.2715 -0.1540  0.0982
  755POPS   PO411548   8.855   3.463   5.538  0.0477  0.0566  0.2201
  755POPS   GL111549   8.806   3.457   5.900  0.0978  0.0879  0.1909
  755POPS   GL211550   9.086   3.643   6.050 -0.3248 -0.3237 -0.1440
  755POPS   C1A11551   8.947   3.128   6.292  0.2413 -0.3683  0.1431
  755POPS   D2A11552   8.950   3.263   6.786  0.0082  0.5487 -0.3569
  755POPS   C3A11553   8.779   3.047   7.139  0.0433 -0.1676  0.0772
  755POPS   C4A11554   8.886   2.670   7.016  0.0960  0.2342 -0.4308
  755POPS   C1B11555   8.756   3.728   6.354 -0.1725  0.1521  0.3608
  755POPS   C2B11556   8.917   3.923   6.726  0.1807  0.1947 -0.0082
  755POPS   C3B11557   8.881   4.073   7.157 -0.1385  0.0303 -0.1319
  755POPS   C4B11558   9.059   3.972   7.589  0.0354 -0.3349  0.0883
  756POPS   CNO11559  10.838   2.071   5.786  0.3130  0.1948  0.2320
  756POPS   PO411560  11.195   2.265   5.523  0.1746 -0.0054  0.0210
  756POPS   GL111561  11.297   2.265   5.938  0.1685 -0.1399  0.0763
  756POPS   GL211562  11.012   2.450   6.048 -0.0594 -0.0439 -0.1748
  756POPS   C1A11563  11.232   2.004   6.344 -0.2201 -0.0786 -0.0052
  756POPS   D2A11564  11.147   2.042   6.801 -0.1296  0.1804  0.2682
  756POPS   C3A11565  10.918   2.393   6.923  0.2378 -0.1310  0.2096
  756POPS   C4A11566  10.767   2.720   7.155  0.0649 -0.0259 -0.3377
  756POPS   C1B11567  10.902   2.610   6.452  0.2703 -0.0720  0.5685
  756POPS   C2B11568  10.707   2.945   6.751 -0.1148  0.0136  0.0932
  756POPS   C3B11569  10.700   3.226   7.104  0.0608 -0.1447  0.2395
  756POPS   C4B11570  10.807   3.336   7.543  0.1067 -0.2362 -0.1640
  757POPS   CNO11571  12.509   3.662   5.531  0.3116  0.1692 -0.1066
  757POPS   PO411572  12.519   3.814   5.974 -0.0856 -0.0549  0.2534
  757POPS   GL111573  12.627   3.456   6.289  0.1142 -0.2146 -0.2080
  757POPS   GL211574  12.850   3.311   6.418 -0.1194 -0.2762 -0.1434
  757POPS   C1A11575  12.394   3.277   6.661 -0.0042  0.0146 -0.0860
  757POPS   D2A11576  12.095   3.274   6.987  0.1342 -0.1328  0.4856
  757POPS   C3A11577  11.689   2.979   6.950 -0.0777  0.0727 -0.1540
  757POPS   C4A11578  11.427   2.588   6.833 -0.2587  0.1771 -0.0451
  757POPS   C1B11579  12.871   3.486   6.774  0.0519  0.0244 -0.0160
  757POPS   C2B11580  12.985   3.595   7.093 -0.0071 -0.0073  0.0133
  757POPS   C3B11581  13.011   3.788   7.485 -0.3123 -0.0493  0.1982
  757POPS   C4B11582  12.955   4.084   7.772 -0.0291 -0.1002  0.0212
  758POPS   CNO11583  10.442  10.760   5.749 -0.1667 -0.2266  0.1875
  758POPS   PO411584  10.330  10.823   6.206 -0.0549  0.0603 -0.2594
  758POPS   GL111585  10.212  10.471   6.438 -0.0336 -0.0688  0.1434
  758POPS   GL211586   9.890  10.523   6.510 -0.4503  0.0690  0.4920
  758POPS   C1A11587  10.370  10.204   6.738 -0.0060 -0.0751 -0.0619
  758POPS   D2A11588  10.361   9.979   7.097  0.2361 -0.0981  0.0832
  758POPS   C3A11589  10.120   9.877   7.464 -0.1420 -0.5557  0.3229
  758POPS   C4A11590   9.810  10.051   7.743 -0.3556 -0.4117  0.0956
  758POPS   C1B11591  10.236  10.707   6.883  0.0845 -0.0019 -0.0192
  758POPS   C2B11592  10.356  10.772   7.385 -0.0539  0.1420  0.5788
  758POPS   C3B11593  10.355  10.946   7.752  0.0628 -0.2505 -0.4725
  758POPS   C4B11594  10.625  11.099   8.098 -0.2870 -0.0108  0.0031
  759POPS   CNO11595   4.467   4.464   6.115  0.2044  0.1090  0.0059
  759POPS   PO411596   4.554   4.846   6.072  0.0538  0.3081  0.0394
  759POPS   GL111597   4.592   4.821   6.462  0.1679 -0.1126 -0.0712
  759POPS   GL211598   4.376   5.145   6.550  0.0998  0.1846  0.0268
  759POPS   C1A11599   4.572   4.775   6.813  0.2485 -0.0017 -0.1252
  759POPS   D2A11600   4.698   4.703   7.277 -0.2347 -0.2456  0.3554
  759POPS   C3A11601   4.800   4.823   7.676 -0.0466 -0.1639 -0.3609
  759POPS   C4A11602   4.842   5.034   8.047  0.0352 -0.1768  0.0197
  759POPS   C1B11603   4.067   5.013   6.764  0.0931 -0.0533 -0.1189
  759POPS   C2B11604   3.823   4.908   7.101  0.0331 -0.0053 -0.0869
  759POPS   C3B11605   3.700   4.933   7.503 -0.1039  0.0565  0.0211
  759POPS   C4B11606   3.675   4.874   7.892  0.2329 -0.1896  0.1417
  760POPS   CNO11607  14.507   0.675   5.775 -0.2311  0.2408  0.1753
  760POPS   PO411608  14.161   1.038   5.873  0.2164 -0.1186 -0.0658
  760POPS   GL111609  14.104   0.781   6.200 -0.0558  0.2701 -0.0137
  760POPS   GL211610  14.302   0.423   6.229 -0.0477 -0.5632  0.2418
  760POPS   C1A11611  14.172   0.847   6.686 -0.3837  0.0861 -0.0886
  760POPS   D2A11612  13.972   0.852   7.013 -0.0274  0.2158  0.3351
  760POPS   C3A11613  14.179   0.703   7.396 -0.0169  0.0942 -0.0824
  760POPS   C4A11614  14.103   0.495   7.705 -0.3710  0.0910 -0.0630
  760POPS   C1B11615  14.720   0.563   6.433  0.0083 -0.1864  0.2028
  760POPS   C2B11616  14.879   0.585   6.818  0.1173 -0.2365 -0.0237
  760POPS   C3B11617  14.860   0.601   7.283 -0.1464  0.0156 -0.0451
  760POPS   C4B11618  15.014   0.471   7.601  0.0616 -0.0153  0.0738
  761POPS   CNO11619  18.096  10.186   5.222 -0.1353 -0.2256 -0.0754
  761POPS   PO411620  17.824  10.098   5.490  0.0590  0.3808  0.1254
  761POPS   GL111621  18.129   9.924   5.761 -0.1818  0.0706  0.0322
  761POPS   GL211622  18.235  10.193   5.769 -0.1025 -0.1694 -0.1245
  761POPS   C1A11623  18.030   9.618   6.068 -0.3123 -0.0332 -0.0000
  761POPS   D2A11624  17.601   9.444   6.177  0.2742 -0.0395  0.1819
  761POPS   C3A11625  17.293   9.746   6.047  0.1787  0.0650 -0.1104
  761POPS   C4A11626  16.918   9.784   6.197 -0.2673 -0.0313 -0.0635
  761POPS   C1B11627  18.109  10.128   6.281 -0.1436  0.0141 -0.2375
  761POPS   C2B11628  18.151  10.338   6.665  0.1857  0.1275  0.0872
  761POPS   C3B11629  18.206  10.257   7.128 -0.0332  0.2083  0.0858
  761POPS   C4B11630  18.266  10.295   7.462  0.0670 -0.1574 -0.5688
  762POPS   CNO11631  14.375   9.080   5.807 -0.2297 -0.0537  0.0360
  762POPS   PO411632  14.819   9.234   5.975  0.1656  0.2293  0.0436
  762POPS   GL111633  14.810   9.038   6.329  0.3584 -0.0338 -0.0878
  762POPS   GL211634  14.452   8.909   6.263 -0.1627 -0.0925  0.3135
  762POPS   C1A11635  14.931   9.203   6.859  0.0018  0.2401 -0.0130
  762POPS   D2A11636  15.188   9.259   7.253  0.0648  0.0139  0.1805
  762POPS   C3A11637  15.575   9.358   7.477 -0.0241 -0.0692  0.0694
  762POPS   C4A11638  15.809   9.430   7.822 -0.2926  0.4387  0.0468
  762POPS   C1B11639  14.533   8.931   6.779  0.0826 -0.2967  0.0405
  762POPS   C2B11640  14.427   8.973   7.117  0.1427 -0.3439  0.1185
  762POPS   C3B11641  14.404   8.848   7.509 -0.0611 -0.2642 -0.1538
  762POPS   C4B11642  14.464   8.979   7.884 -0.0627 -0.0697 -0.0632
  763POPS   CNO11643   6.247  16.297   5.851 -0.0651  0.0926 -0.3054
  763POPS   PO411644   6.062  15.809   5.833 -0.0677 -0.0879  0.1657
  763POPS   GL111645   5.866  15.939   6.177 -0.0129 -0.1717 -0.0708
  763POPS   GL211646   5.831  16.339   6.178  0.1407  0.1472 -0.1512
  763POPS   C1A11647   5.824  16.129   6.602 -0.0226 -0.1322 -0.0372
  763POPS   D2A11648   5.587  16.343   7.023 -0.0476 -0.2208 -0.0283
  763POPS   C3A11649   5.363  16.083   7.197 -0.0134 -0.1326  0.2334
  763POPS   C4A11650   4.961  15.872   7.018 -0.2287 -0.1792  0.1257
  763POPS   C1B11651   6.254  16.428   6.364 -0.0194  0.1386  0.0437
  763POPS   C2B11652   6.514  16.404   6.696 -0.3555 -0.0409 -0.1519
  763POPS   C3B11653   6.663  16.197   7.063 -0.1870 -0.0202  0.2774
  763POPS   C4B11654   6.723  15.778   7.176 -0.0910  0.0560 -0.1818
  764POPS   CNO11655  12.831   7.411   5.670 -0.1987  0.2026 -0.3041
  764POPS   PO411656  12.419   7.237   5.864 -0.3005  0.0660  0.1300
  764POPS   GL111657  12.487   7.316   6.384  0.0744 -0.4077 -0.0194
  764POPS   GL211658  12.613   6.888   6.390  0.2408 -0.1861  0.1819
  764POPS   C1A11659  12.348   7.331   6.815  0.4512 -0.1223  0.0677
  764POPS   D2A11660  12.484   7.453   7.174 -0.1824 -0.1326 -0.1972
  764POPS   C3A11661  12.211   7.580   7.550  0.1660  0.4599  0.3817
  764POPS   C4A11662  11.992   7.717   8.023  0.0158 -0.1378 -0.0640
  764POPS   C1B11663  12.405   6.807   6.732 -0.1787  0.1732  0.1725
  764POPS   C2B11664  12.392   6.783   7.169 -0.4681  0.0212  0.0819
  764POPS   C3B11665  12.352   6.967   7.399 -0.1244 -0.2679 -0.0175
  764POPS   C4B11666  12.570   7.188   7.686 -0.1829  0.3213  0.0327
  765POPS   CNO11667  17.053   4.079   5.801 -0.1104  0.2687 -0.3444
  765POPS   PO411668  16.892   4.256   5.419  0.1553  0.0630 -0.0512
  765POPS   GL111669  16.680   4.378   5.829 -0.2284 -0.2064 -0.0952
  765POPS   GL211670  16.337   4.322   5.941 -0.2221  0.2978  0.0114
  765POPS   C1A11671  16.616   4.400   6.313  0.1374 -0.1670  0.0827
  765POPS   D2A11672  16.631   4.394   6.758 -0.0976 -0.0790 -0.1640
  765POPS   C3A11673  16.503   4.031   7.072 -0.2265 -0.1888 -0.0865
  765POPS   C4A11674  16.438   3.980   7.544  0.0105  0.0229 -0.1855
  765POPS   C1B11675  16.114   4.475   6.378 -0.0922 -0.0068 -0.2551
  765POPS   C2B11676  15.970   4.339   6.817  0.0602  0.2692  0.0673
  765POPS   C3B11677  16.097   4.245   7.196 -0.1121 -0.0880 -0.3617
  765POPS   C4B11678  15.948   4.049   7.484  0.1840  0.0246 -0.1946
  766POPS   CNO11679   1.121  14.507   5.798 -0.2156 -0.1853 -0.1248
  766POPS   PO411680   1.369  14.839   5.941 -0.0408 -0.0254  0.0464
  766POPS   GL111681   1.253  15.230   6.258 -0.1600 -0.1462 -0.1615
  766POPS   GL211682   1.607  15.168   6.309 -0.2841  0.0792 -0.3137
  766POPS   C1A11683   1.032  15.158   6.723  0.0046  0.0648 -0.1309
  766POPS   D2A11684   0.936  15.015   7.093  0.0659  0.2728 -0.0867
  766POPS   C3A11685   1.219  14.996   7.445 -0.0285 -0.2032  0.2039
  766POPS   C4A11686   1.344  14.835   7.815 -0.1177 -0.2012  0.2518
  766POPS   C1B11687   1.428  14.813   6.719  0.2285 -0.0223  0.0730
  766POPS   C2B11688   1.272  14.701   7.066 -0.2373 -0.4563 -0.5046
  766POPS   C3B11689   1.248  14.467   7.379  0.0587 -0.3000  0.2378
  766POPS   C4B11690   1.171  14.250   7.679 -0.1386  0.3790 -0.0195
  767POPS   CNO11691  10.113   1.288   5.276  0.1562  0.0607 -0.1090
  767POPS   PO411692   9.823   1.371   5.425 -0.0638 -0.1343 -0.1630
  767POPS   GL111693   9.728   1.445   5.893  0.0444 -0.0546 -0.0861
  767POPS   GL211694   9.484   1.183   5.993 -0.2340  0.2490  0.0001
  767POPS   C1A11695   9.597   1.670   6.279 -0.2405  0.1094  0.0216
  767POPS   D2A11696   9.356   1.750   6.668 -0.2273 -0.0029 -0.0818
  767POPS   C3A11697   9.565   1.686   7.097  0.3133  0.0633  0.4598
  767POPS   C4A11698   9.446   1.604   7.514 -0.2294 -0.0855 -0.1272
  767POPS   C1B11699   9.733   1.168   6.361  0.0405 -0.0247 -0.0608
  767POPS   C2B11700   9.873   1.556   6.649  0.1928  0.3337  0.1876
  767POPS   C3B11701  10.100   1.695   7.062  0.1909  0.3400  0.2394
  767POPS   C4B11702  10.184   1.428   7.498 -0.0955 -0.0757 -0.1175
  768POPS   CNO11703  18.169  10.600   5.478  0.1242  0.0797  0.4924
  768POPS   PO411704  17.862  10.541   5.815 -0.1004 -0.0230 -0.1577
  768POPS   GL111705  17.734  10.489   6.241  0.1876 -0.2286 -0.2081
  768POPS   GL211706  17.615  10.813   6.309 -0.2383  0.3303 -0.1947
  768POPS   C1A11707  17.599  10.325   6.633 -0.0397 -0.1482  0.0437
  768POPS   D2A11708  17.752  10.129   6.993 -0.1618 -0.0416  0.4613
  768POPS   C3A11709  17.814   9.994   7.392 -0.1809  0.0251 -0.1976
  768POPS   C4A11710  17.689   9.778   7.795 -0.3022 -0.0376  0.0475
  768POPS   C1B11711  17.608  10.874   6.790  0.3188  0.1153  0.0572
  768POPS   C2B11712  17.445  11.066   7.184  0.2706  0.5342 -0.4508
  768POPS   C3B11713  17.033  10.851   7.322  0.3082  0.1592  0.0511
  768POPS   C4B11714  16.642  10.861   7.579 -0.1470  0.0466  0.0486
  769POPS   CNO11715  17.461   5.963   5.836 -0.0686 -0.0981  0.2597
  769POPS   PO411716  17.061   5.849   5.804 -0.0617 -0.0968  0.1969
  769POPS   GL111717  16.923   5.636   6.108 -0.0345  0.2299  0.1194
  769POPS   GL211718  16.589   5.626   6.099  0.2109 -0.0554 -0.0687
  769POPS   C1A11719  16.999   5.361   6.414  0.2322 -0.0799  0.0964
  769POPS   D2A11720  17.067   5.359   6.887 -0.4577  0.1515  0.1111
  769POPS   C3A11721  17.412   5.557   7.041  0.2031 -0.3190  0.3510
  769POPS   C4A11722  17.534   5.466   7.470 -0.2073  0.0315  0.4004
  769POPS   C1B11723  16.514   5.465   6.474 -0.4731 -0.1504 -0.0700
  769POPS   C2B11724  16.577   5.382   6.856 -0.0120 -0.0599 -0.3317
  769POPS   C3B11725  16.491   5.312   7.380 -0.1774 -0.0863  0.0484
  769POPS   C4B11726  16.487   5.140   7.667 -0.1628 -0.0162  0.2748
  770POPS   CNO11727   3.147  11.526   5.487  0.0596  0.0186  0.1312
  770POPS   PO411728   2.859  11.751   5.674 -0.1007 -0.0713  0.0542
  770POPS   GL111729   2.958  11.869   6.045 -0.1354 -0.2782  0.0363
  770POPS   GL211730   2.757  12.097   6.084  0.0535 -0.1353  0.1086
  770POPS   C1A11731   3.148  11.794   6.425  0.1293  0.1770 -0.2936
  770POPS   D2A11732   3.195  11.622   6.732 -0.3335  0.0978  0.1066
  770POPS   C3A11733   3.353  11.667   7.131  0.3816  0.1174  0.1967
  770POPS   C4A11734   3.557  11.485   7.395  0.2273  0.0616 -0.4601
  770POPS   C1B11735   2.470  11.964   6.485 -0.0481  0.0179 -0.1745
  770POPS   C2B11736   2.388  11.928   6.921  0.1010  0.0747 -0.1938
  770POPS   C3B11737   2.395  12.029   7.427 -0.2017 -0.0373 -0.0405
  770POPS   C4B11738   2.530  12.151   7.801 -0.1646  0.2317 -0.2861
  771POPS   CNO11739   7.381  10.922   5.745 -0.1168  0.0863  0.0821
  771POPS   PO411740   7.445  10.551   5.969 -0.2538 -0.0607  0.1118
  771POPS   GL111741   7.298  10.585   6.390  0.3527  0.1752 -0.4588
  771POPS   GL211742   7.092  10.931   6.487  0.2049 -0.0178  0.0262
  771POPS   C1A11743   7.293  10.252   6.744 -0.1695 -0.2386  0.0472
  771POPS   D2A11744   7.447  10.142   7.004  0.0429 -0.1964  0.1688
  771POPS   C3A11745   7.170  10.136   7.297 -0.2624 -0.0105 -0.1304
  771POPS   C4A11746   6.839  10.102   7.604 -0.2167 -0.0811 -0.0545
  771POPS   C1B11747   7.370  10.849   6.830 -0.0128 -0.0983  0.2577
  771POPS   C2B11748   7.567  10.584   7.211 -0.1447 -0.0220 -0.0374
  771POPS   C3B11749   7.603  10.344   7.455 -0.1227 -0.2921 -0.2106
  771POPS   C4B11750   7.494  10.126   7.823 -0.2191  0.0991  0.0194
  772POPS   CNO11751  15.931   7.313   5.915  0.0956 -0.0527  0.0591
  772POPS   PO411752  16.003   7.645   5.664 -0.0730  0.0295  0.4542
  772POPS   GL111753  15.896   7.839   6.025 -0.3253 -0.0220 -0.0841
  772POPS   GL211754  16.177   7.748   6.244  0.0848 -0.1981 -0.3042
  772POPS   C1A11755  15.680   7.860   6.452 -0.1872 -0.0767  0.3282
  772POPS   D2A11756  15.654   7.503   6.779 -0.0054  0.2553  0.1382
  772POPS   C3A11757  15.878   7.642   7.237  0.0996  0.1351  0.1272
  772POPS   C4A11758  15.904   7.651   7.712  0.1663 -0.1358  0.0431
  772POPS   C1B11759  16.373   7.688   6.644 -0.0123 -0.0149 -0.2907
  772POPS   C2B11760  16.341   7.663   7.082 -0.3153 -0.2227 -0.0778
  772POPS   C3B11761  16.373   7.698   7.571 -0.1156 -0.1900  0.3992
  772POPS   C4B11762  16.576   7.816   7.971 -0.1449  0.0849  0.2821
  773POPS   CNO11763   3.924   7.320   6.178  0.0028 -0.1891 -0.1970
  773POPS   PO411764   3.585   7.515   6.113  0.1159 -0.0906  0.1025
  773POPS   GL111765   3.545   7.770   6.511  0.3482 -0.1012  0.0900
  773POPS   GL211766   3.207   7.652   6.490  0.1939  0.2397  0.1838
  773POPS   C1A11767   3.560   7.736   6.884 -0.1754 -0.1781  0.1367
  773POPS   D2A11768   3.463   7.896   7.280  0.0043 -0.2669  0.0381
  773POPS   C3A11769   3.416   7.733   7.708 -0.1528  0.1442  0.0918
  773POPS   C4A11770   3.266   7.822   8.103  0.1456  0.3031 -0.0416
  773POPS   C1B11771   3.100   7.643   6.972 -0.2321 -0.2147 -0.2287
  773POPS   C2B11772   2.986   7.788   7.418 -0.1693  0.1533 -0.1494
  773POPS   C3B11773   2.779   7.698   7.847 -0.2745 -0.0689  0.0522
  773POPS   C4B11774   2.473   7.402   7.995  0.1066  0.0126 -0.1057
  774POPS   CNO11775   0.958   5.134   5.498 -0.2319 -0.0636 -0.2530
  774POPS   PO411776   0.556   5.151   5.707 -0.0655 -0.0194  0.1062
  774POPS   GL111777   0.711   5.169   6.043 -0.2336 -0.2410  0.1356
  774POPS   GL211778   1.039   5.171   6.070  0.2026  0.0465 -0.2136
  774POPS   C1A11779   0.774   5.086   6.483 -0.2738  0.0360 -0.1622
  774POPS   D2A11780   0.986   5.184   6.788 -0.2093 -0.4296 -0.0361
  774POPS   C3A11781   1.244   5.048   7.064  0.0406  0.0260 -0.2353
  774POPS   C4A11782   1.562   4.955   7.274 -0.0313  0.0280 -0.0655
  774POPS   C1B11783   1.194   5.410   6.420  0.2808 -0.0425 -0.2029
  774POPS   C2B11784   1.254   5.661   6.873 -0.1127 -0.3575  0.4614
  774POPS   C3B11785   1.070   5.793   7.308 -0.1272  0.0394  0.1060
  774POPS   C4B11786   1.007   5.675   7.644  0.0640 -0.0845 -0.1790
  775POPS   CNO11787  13.560   4.637   5.310 -0.2572  0.0551  0.3819
  775POPS   PO411788  13.672   4.204   5.297 -0.1280  0.1769  0.2279
  775POPS   GL111789  13.805   4.208   5.618  0.1001  0.1468  0.0832
  775POPS   GL211790  13.894   3.948   5.792  0.0596  0.1478  0.2300
  775POPS   C1A11791  13.798   4.308   6.161  0.1241  0.1414 -0.2849
  775POPS   D2A11792  13.760   4.491   6.571  0.2749 -0.0987  0.1672
  775POPS   C3A11793  13.493   4.519   6.809  0.1974  0.2220  0.0335
  775POPS   C4A11794  13.256   4.389   7.030  0.1280  0.1203 -0.1640
  775POPS   C1B11795  14.182   3.861   6.224 -0.1635  0.0898 -0.0946
  775POPS   C2B11796  14.404   4.023   6.549 -0.2227  0.0860 -0.0018
  775POPS   C3B11797  14.366   3.992   6.970  0.1381 -0.1314 -0.0344
  775POPS   C4B11798  14.453   3.735   7.308  0.0338  0.2903 -0.0288
  776POPS   CNO11799   7.275  15.427   5.927 -0.1461 -0.0050  0.3573
  776POPS   PO411800   7.309  14.912   5.814  0.0435  0.4284  0.5319
  776POPS   GL111801   7.366  15.004   6.179 -0.0798  0.0171  0.0394
  776POPS   GL211802   7.540  14.884   6.486 -0.1951  0.3067 -0.2271
  776POPS   C1A11803   7.117  15.017   6.540  0.1565 -0.0562  0.0973
  776POPS   D2A11804   7.090  14.889   6.941  0.2309 -0.2307  0.0129
  776POPS   C3A11805   6.899  15.221   7.231  0.3976  0.2451  0.0921
  776POPS   C4A11806   6.634  15.400   7.512  0.0691 -0.2113  0.0462
  776POPS   C1B11807   7.657  15.041   6.838  0.0216 -0.0962  0.1453
  776POPS   C2B11808   7.858  14.767   7.111  0.1918 -0.0916 -0.1161
  776POPS   C3B11809   8.187  14.756   7.481  0.1267  0.1757 -0.4156
  776POPS   C4B11810   8.668  14.807   7.436 -0.2506 -0.0007  0.2192
  777POPS   CNO11811   5.110  11.578   5.949 -0.1721  0.1619  0.1586
  777POPS   PO411812   4.677  11.538   6.111  0.2863  0.1121  0.0968
  777POPS   GL111813   4.490  11.661   6.491  0.2610 -0.2812 -0.2849
  777POPS   GL211814   4.544  12.012   6.622  0.2076 -0.0350 -0.3844
  777POPS   C1A11815   4.065  11.607   6.641  0.1703  0.1985 -0.1407
  777POPS   D2A11816   3.655  11.318   6.862 -0.0885  0.1744 -0.1764
  777POPS   C3A11817   3.565  11.007   7.204 -0.2624 -0.0796 -0.1881
  777POPS   C4A11818   3.341  10.604   7.245  0.1010  0.2134  0.1043
  777POPS   C1B11819   4.231  12.139   6.919  0.1319  0.1984 -0.2232
  777POPS   C2B11820   3.969  12.141   7.182 -0.2287 -0.1506 -0.3251
  777POPS   C3B11821   3.601  12.125   7.356  0.0198 -0.0016  0.1401
  777POPS   C4B11822   3.417  12.334   7.772 -0.2801 -0.3032 -0.1452
  778POPS   CNO11823   8.616  17.258   5.931  0.3206  0.1955 -0.3221
  778POPS   PO411824   8.791  16.858   6.108 -0.1096  0.0094  0.1778
  778POPS   GL111825   9.102  16.589   6.375  0.0750 -0.1390 -0.0232
  778POPS   GL211826   9.122  16.230   6.415 -0.1411  0.2276  0.1193
  778POPS   C1A11827   9.555  16.572   6.601  0.3091 -0.2943 -0.1967
  778POPS   D2A11828   9.831  16.428   6.978 -0.1016 -0.0845  0.2893
  778POPS   C3A11829   9.827  16.086   7.132  0.1005 -0.1774 -0.0598
  778POPS   C4A11830   9.689  15.694   7.432 -0.1900 -0.2073 -0.1208
  778POPS   C1B11831   9.313  16.113   6.796 -0.0200 -0.0527  0.1417
  778POPS   C2B11832   9.342  16.124   7.156  0.2711  0.1335 -0.1000
  778POPS   C3B11833   9.456  16.415   7.363  0.0552  0.0906 -0.2158
  778POPS   C4B11834   9.596  16.471   7.714 -0.1456 -0.0005 -0.1832
  779POPS   CNO11835   0.229  10.890   5.286 -0.3751 -0.0197 -0.1773
  779POPS   PO411836   0.378  10.523   5.444  0.1059 -0.0512  0.0106
  779POPS   GL111837   0.335  10.485   5.906 -0.0344 -0.1953  0.0134
  779POPS   GL211838   0.017  10.648   6.034  0.1432  0.2426 -0.1867
  779POPS   C1A11839   0.334  10.406   6.404  0.2971  0.2733 -0.0597
  779POPS   D2A11840   0.374  10.368   6.885 -0.0100  0.2126  0.1329
  779POPS   C3A11841   0.439   9.973   6.983 -0.1010  0.0926  0.0844
  779POPS   C4A11842   0.469   9.593   6.729 -0.0321  0.1534 -0.0141
  779POPS   C1B11843  -0.130  10.801   6.484  0.1357  0.1833  0.1036
  779POPS   C2B11844  -0.093  10.780   6.965 -0.0916 -0.1314  0.1756
  779POPS   C3B11845   0.211  10.645   7.261  0.1702 -0.0171  0.1427
  779POPS   C4B11846   0.523  10.309   7.354 -0.3433 -0.1422  0.0628
  780POPS   CNO11847  15.332  16.586   6.027  0.1027  0.4182 -0.0660
  780POPS   PO411848  15.690  16.637   5.788  0.0417  0.0855 -0.0014
  780POPS   GL111849  15.812  16.506   6.104 -0.0674 -0.1158 -0.2421
  780POPS   GL211850  15.600  16.237   6.298 -0.2358  0.2332 -0.0050
  780POPS   C1A11851  16.077  16.537   6.447 -0.0730  0.0943  0.0983
  780POPS   D2A11852  16.379  16.637   6.732  0.0369  0.0991 -0.1792
  780POPS   C3A11853  16.521  16.357   6.914 -0.0365 -0.3667  0.1068
  780POPS   C4A11854  16.623  16.021   7.135  0.0056  0.2419 -0.2156
  780POPS   C1B11855  15.741  16.184   6.670 -0.2161  0.1934 -0.0403
  780POPS   C2B11856  16.072  16.225   6.878  0.0360  0.2414  0.0793
  780POPS   C3B11857  16.215  16.165   7.295  0.0695 -0.0546  0.1083
  780POPS   C4B11858  16.531  16.473   7.520 -0.0877 -0.0645 -0.1223
  781POPS   CNO11859   6.208   9.455   6.260  0.1431 -0.2838 -0.2042
  781POPS   PO411860   5.919   9.760   6.203 -0.1122 -0.4205 -0.0575
  781POPS   GL111861   5.896   9.710   6.578  0.0218 -0.0760  0.0871
  781POPS   GL211862   5.587   9.698   6.629 -0.0088  0.0018 -0.1078
  781POPS   C1A11863   6.173   9.825   6.969 -0.2358  0.2408  0.1128
  781POPS   D2A11864   6.561   9.854   7.223  0.0101  0.0480  0.1511
  781POPS   C3A11865   6.739   9.582   7.560  0.0746 -0.1978 -0.4941
  781POPS   C4A11866   6.873   9.182   7.454 -0.0038 -0.0023  0.1044
  781POPS   C1B11867   5.734   9.563   7.008 -0.0354  0.0545 -0.0636
  781POPS   C2B11868   6.056   9.629   7.405 -0.1902  0.0334 -0.1605
  781POPS   C3B11869   6.185   9.718   7.778 -0.0063  0.4087 -0.0772
  781POPS   C4B11870   6.542   9.904   7.981 -0.2775 -0.1646 -0.3972
  782POPS   CNO11871   9.106   9.507   6.035 -0.1235 -0.2414 -0.0469
  782POPS   PO411872   8.703   9.674   6.046 -0.0536 -0.1125  0.2845
  782POPS   GL111873   8.865   9.671   6.424 -0.1380  0.0815  0.1641
  782POPS   GL211874   8.530   9.752   6.744  0.0717 -0.2441  0.3631
  782POPS   C1A11875   9.278   9.546   6.712  0.0573 -0.1605  0.0649
  782POPS   D2A11876   9.503   9.306   7.054 -0.1031  0.0946  0.1479
  782POPS   C3A11877   9.721   9.530   7.386 -0.0175 -0.2038 -0.0151
  782POPS   C4A11878   9.575   9.616   7.777 -0.1116 -0.1072  0.3152
  782POPS   C1B11879   8.821   9.604   6.899  0.1752  0.0179 -0.0557
  782POPS   C2B11880   9.172   9.614   7.303 -0.1291 -0.2441  0.0948
  782POPS   C3B11881   9.324   9.973   7.479  0.0265  0.2742 -0.0157
  782POPS   C4B11882   9.400  10.239   7.844 -0.2145 -0.0140 -0.1400
  783POPS   CNO11883   5.599   4.728   5.550  0.1117  0.1202  0.1898
  783POPS   PO411884   5.906   4.516   5.801  0.0496  0.2178 -0.2931
  783POPS   GL111885   6.302   4.332   6.000  0.0165  0.0875  0.1864
  783POPS   GL211886   6.376   3.976   6.134 -0.1475 -0.2163  0.2441
  783POPS   C1A11887   6.572   4.439   6.302  0.1154 -0.2853 -0.1262
  783POPS   D2A11888   6.598   4.816   6.604 -0.2609  0.1654 -0.0418
  783POPS   C3A11889   6.651   5.217   6.498  0.3739 -0.0631 -0.0261
  783POPS   C4A11890   6.623   5.749   6.565  0.1521  0.1603  0.0964
  783POPS   C1B11891   6.159   4.160   6.453 -0.0272  0.1728 -0.1127
  783POPS   C2B11892   6.111   4.331   6.783 -0.2613 -0.2383  0.2441
  783POPS   C3B11893   6.022   4.220   7.058 -0.0028 -0.1773 -0.1405
  783POPS   C4B11894   6.150   4.263   7.499 -0.0153 -0.3969 -0.0701
  784POPS   CNO11895  17.135  12.127   6.374 -0.2418  0.0667  0.0047
  784POPS   PO411896  17.423  12.156   6.088 -0.2918  0.1413 -0.1124
  784POPS   GL111897  17.551  12.439   6.455 -0.1856  0.0552  0.0889
  784POPS   GL211898  17.867  12.502   6.619  0.0954 -0.1134 -0.2994
  784POPS   C1A11899  17.456  12.467   6.863  0.0166  0.0196 -0.4048
  784POPS   D2A11900  17.610  12.350   7.300  0.2327 -0.1070  0.4542
  784POPS   C3A11901  17.672  12.700   7.546  0.1231  0.0522 -0.0166
  784POPS   C4A11902  17.873  13.098   7.549 -0.0471 -0.0987  0.0596
  784POPS   C1B11903  18.018  12.342   6.924  0.2796 -0.2389 -0.2253
  784POPS   C2B11904  18.142  12.248   7.210  0.0557  0.2138 -0.2451
  784POPS   C3B11905  18.273  12.352   7.616  0.0545 -0.0298  0.0476
  784POPS   C4B11906  18.056  12.455   7.987 -0.0361 -0.0034  0.2180
  785POPS   CNO11907  10.061  16.115   5.928 -0.1792  0.0067  0.2080
  785POPS   PO411908  10.025  15.755   5.935  0.0228  0.2059 -0.1351
  785POPS   GL111909  10.118  15.813   6.339 -0.1075  0.0386 -0.1880
  785POPS   GL211910  10.117  15.504   6.435  0.4449  0.0033  0.0724
  785POPS   C1A11911  10.077  15.776   6.834 -0.0727 -0.2757 -0.0111
  785POPS   D2A11912  10.148  15.717   7.238  0.3796 -0.0758  0.1743
  785POPS   C3A11913  10.092  15.966   7.690 -0.0090  0.3542 -0.1071
  785POPS   C4A11914   9.559  15.976   7.857 -0.2159 -0.0315 -0.2421
  785POPS   C1B11915  10.320  15.348   6.753 -0.0054  0.3910  0.0655
  785POPS   C2B11916  10.272  15.261   7.202  0.1096  0.3534  0.2758
  785POPS   C3B11917   9.948  15.270   7.429  0.1207 -0.1260 -0.1852
  785POPS   C4B11918   9.825  15.032   7.850  0.3991  0.0295  0.1859
  786POPS   CNO11919  12.000   6.436   5.479  0.2177 -0.1775 -0.0092
  786POPS   PO411920  11.647   6.333   5.710 -0.0155  0.0633  0.0277
  786POPS   GL111921  11.437   6.559   6.064  0.3146 -0.0093 -0.0222
  786POPS   GL211922  11.370   6.939   6.105  0.1207  0.0630  0.2373
  786POPS   C1A11923  11.275   6.440   6.438  0.0161 -0.0469 -0.0588
  786POPS   D2A11924  11.426   6.260   6.834  0.1517 -0.0472  0.0678
  786POPS   C3A11925  11.336   6.054   7.244 -0.2261 -0.3715 -0.1661
  786POPS   C4A11926  11.216   5.931   7.699 -0.2866 -0.1819 -0.2614
  786POPS   C1B11927  11.383   7.187   6.542  0.1770  0.3622  0.1053
  786POPS   C2B11928  11.067   7.398   6.770 -0.0349 -0.2297 -0.0444
  786POPS   C3B11929  10.712   7.461   7.044  0.1171 -0.1005 -0.1195
  786POPS   C4B11930  10.309   7.246   7.128 -0.0126 -0.0407 -0.0952
  787POPS   CNO11931   6.942   4.169   5.471  0.2014 -0.1805 -0.1405
  787POPS   PO411932   6.745   4.020   5.756 -0.2041 -0.0344 -0.2866
  787POPS   GL111933   6.917   4.218   6.083 -0.0825  0.3344  0.3122
  787POPS   GL211934   7.278   3.980   6.123 -0.0333 -0.1475 -0.1535
  787POPS   C1A11935   7.021   4.636   6.190  0.2041 -0.2523 -0.1225
  787POPS   D2A11936   7.115   4.885   6.428  0.2137 -0.2812 -0.1211
  787POPS   C3A11937   7.324   4.800   6.784  0.0096  0.0310  0.0780
  787POPS   C4A11938   7.334   4.452   6.984 -0.0235  0.3297  0.2533
  787POPS   C1B11939   7.256   4.008   6.526 -0.1233 -0.2344 -0.1788
  787POPS   C2B11940   7.120   3.932   6.965  0.0395 -0.3976  0.2311
  787POPS   C3B11941   7.013   3.963   7.382  0.2504 -0.1000  0.3562
  787POPS   C4B11942   6.677   4.093   7.741 -0.1441  0.1583  0.0140
  788POPS   CNO11943   0.830  13.377   5.319  0.1081 -0.0050  0.3446
  788POPS   PO411944   0.916  13.546   5.764 -0.2058 -0.0666  0.3759
  788POPS   GL111945   0.883  13.687   6.190  0.1787 -0.2288  0.3853
  788POPS   GL211946   0.736  13.382   6.192 -0.0517 -0.0906 -0.3226
  788POPS   C1A11947   0.704  14.032   6.480 -0.7050  0.2595  0.0143
  788POPS   D2A11948   0.493  14.394   6.561  0.2532 -0.2107 -0.0995
  788POPS   C3A11949   0.256  14.462   6.868 -0.0168  0.2232 -0.0786
  788POPS   C4A11950   0.028  14.681   7.058 -0.1578 -0.0770  0.1981
  788POPS   C1B11951   0.621  13.555   6.617  0.0546 -0.0155 -0.0641
  788POPS   C2B11952   0.495  13.501   6.969 -0.1605 -0.0148  0.2245
  788POPS   C3B11953   0.241  13.664   7.195 -0.0484  0.1542  0.0662
  788POPS   C4B11954   0.076  13.846   7.557  0.3468 -0.3075  0.3292
  789POPS   CNO11955   3.684  14.809   5.412  0.1190 -0.2136  0.2044
  789POPS   PO411956   4.009  14.945   5.777 -0.0786 -0.1826 -0.2820
  789POPS   GL111957   3.887  15.139   6.119 -0.4721 -0.1391 -0.1792
  789POPS   GL211958   3.647  15.229   6.243 -0.0605  0.1051  0.1316
  789POPS   C1A11959   3.944  15.183   6.636 -0.0518  0.1850  0.2498
  789POPS   D2A11960   3.820  15.438   7.073 -0.0614  0.1256  0.2320
  789POPS   C3A11961   3.746  15.301   7.408 -0.1526  0.3875  0.3299
  789POPS   C4A11962   3.580  15.090   7.651  0.0649  0.1521 -0.1530
  789POPS   C1B11963   3.447  15.514   6.556  0.0027 -0.1760  0.1150
  789POPS   C2B11964   3.410  15.670   6.888 -0.0626  0.2584 -0.0790
  789POPS   C3B11965   3.126  16.016   7.086  0.2743 -0.0257 -0.3372
  789POPS   C4B11966   2.963  16.090   7.584 -0.0539 -0.2001  0.3266
  790POPS   CNO11967  11.958   4.982   5.474  0.2714 -0.0137 -0.0791
  790POPS   PO411968  11.577   4.772   5.585  0.1652 -0.1889  0.3317
  790POPS   GL111969  11.608   4.950   5.891  0.2314  0.0666 -0.1733
  790POPS   GL211970  11.346   4.997   6.131 -0.0876  0.1547  0.1282
  790POPS   C1A11971  11.785   5.059   6.298  0.2443 -0.1891 -0.1527
  790POPS   D2A11972  12.087   5.233   6.666  0.0749 -0.4322 -0.0051
  790POPS   C3A11973  12.496   5.403   6.522 -0.0195  0.0502  0.1858
  790POPS   C4A11974  12.668   5.656   6.234 -0.0739 -0.0523  0.1758
  790POPS   C1B11975  11.230   5.040   6.554 -0.2813  0.0563 -0.3573
  790POPS   C2B11976  11.610   4.973   6.796 -0.0387 -0.0512  0.1064
  790POPS   C3B11977  11.959   4.884   6.993 -0.0521 -0.1215 -0.1398
  790POPS   C4B11978  11.974   4.972   7.476  0.0967  0.4637  0.0971
  791POPS   CNO11979  10.581  11.969   5.995 -0.1020 -0.0706 -0.1672
  791POPS   PO411980  10.167  12.120   5.907 -0.2917  0.0874  0.0066
  791POPS   GL111981  10.148  12.335   6.353  0.2853 -0.0908  0.0200
  791POPS   GL211982  10.462  12.232   6.504  0.2763  0.0513 -0.1296
  791POPS   C1A11983   9.946  12.213   6.685 -0.3277  0.2004  0.2651
  791POPS   D2A11984   9.940  11.738   6.896 -0.2960 -0.0692 -0.2999
  791POPS   C3A11985  10.109  11.840   7.344 -0.0675 -0.1463  0.1215
  791POPS   C4A11986  10.002  11.771   7.745  0.2100 -0.0905 -0.1879
  791POPS   C1B11987  10.294  12.448   6.884 -0.1637 -0.2945 -0.1519
  791POPS   C2B11988  10.407  12.742   7.207 -0.1183 -0.0102  0.0152
  791POPS   C3B11989  10.578  13.068   7.450 -0.2351 -0.0052  0.0165
  791POPS   C4B11990  10.517  13.191   7.890  0.1939 -0.2054  0.0697
  792POPS   CNO11991   1.790  13.557   5.652  0.0077  0.3600 -0.2411
  792POPS   PO411992   1.814  13.117   5.683  0.0264 -0.0811 -0.1632
  792POPS   GL111993   1.935  13.148   6.111 -0.1776 -0.0583  0.1228
  792POPS   GL211994   1.781  13.430   6.212 -0.0324 -0.0268 -0.1658
  792POPS   C1A11995   1.904  12.934   6.446 -0.1259  0.2439 -0.2009
  792POPS   D2A11996   1.534  12.869   6.617 -0.2398  0.3258  0.2979
  792POPS   C3A11997   1.470  13.099   7.016  0.1422 -0.2598  0.0222
  792POPS   C4A11998   1.298  13.277   7.437  0.0031  0.1515 -0.1224
  792POPS   C1B11999   1.453  13.480   6.484 -0.1540 -0.1990 -0.2484
  792POPS   C2B12000   1.199  13.802   6.607 -0.0872  0.0634 -0.2963
  792POPS   C3B12001   0.964  13.869   6.886  0.0266  0.0145 -0.3928
  792POPS   C4B12002   0.847  13.845   7.225  0.0949 -0.0693  0.0950
  793POPS   CNO12003   4.870   6.987   6.335  0.1389  0.1674 -0.1829
  793POPS   PO412004   4.861   6.641   6.414 -0.0267 -0.0875  0.0541
  793POPS   GL112005   4.601   6.476   6.783 -0.1293 -0.0773  0.3426
  793POPS   GL212006   4.316   6.364   6.752  0.1862 -0.4005  0.0854
  793POPS   C1A12007   4.587   6.281   7.169 -0.0657  0.0686  0.1160
  793POPS   D2A12008   4.638   5.949   7.526  0.4736  0.0570  0.0151
  793POPS   C3A12009   4.867   6.054   7.751 -0.1834  0.0786  0.1708
  793POPS   C4A12010   4.988   6.339   8.039  0.2328  0.1014 -0.0837
  793POPS   C1B12011   4.003   6.558   6.978 -0.0620  0.1213  0.1164
  793POPS   C2B12012   3.618   6.348   7.120 -0.1376  0.2093 -0.2685
  793POPS   C3B12013   3.280   6.088   7.172 -0.1439 -0.2166 -0.3567
  793POPS   C4B12014   2.819   6.011   7.120  0.1397  0.0367 -0.1070
  794POPS   CNO12015  10.666  12.983   5.889  0.0872 -0.1339 -0.0358
  794POPS   PO412016  10.372  13.258   5.962  0.1333 -0.1034 -0.2783
  794POPS   GL112017  10.417  13.160   6.354 -0.1842 -0.1628  0.0072
  794POPS   GL212018  10.208  13.343   6.471  0.0102  0.2796  0.0593
  794POPS   C1A12019  10.431  13.070   6.839 -0.0873 -0.0558  0.2802
  794POPS   D2A12020  10.777  12.922   6.931 -0.1674  0.0892  0.1670
  794POPS   C3A12021  10.905  12.697   7.257  0.1239 -0.3392 -0.1100
  794POPS   C4A12022  11.241  12.677   7.508  0.1617 -0.0009  0.0125
  794POPS   C1B12023  10.433  13.592   6.770  0.1277  0.0325  0.0234
  794POPS   C2B12024  10.700  13.495   7.108  0.3464 -0.1167 -0.0416
  794POPS   C3B12025  10.849  13.537   7.554 -0.0888  0.0854  0.3337
  794POPS   C4B12026  10.763  13.598   8.073 -0.0033  0.0895  0.2886
  795POPS   CNO12027  11.652   0.454   5.679 -0.2085 -0.3249 -0.0047
  795POPS   PO412028  11.634   0.081   5.830 -0.3541  0.1408 -0.0499
  795POPS   GL112029  11.843   0.263   6.139  0.0899  0.0127  0.3314
  795POPS   GL212030  11.613   0.512   6.189  0.0083  0.1852 -0.1309
  795POPS   C1A12031  11.990   0.168   6.545  0.0458 -0.3221 -0.2563
  795POPS   D2A12032  12.121   0.207   6.977 -0.0218 -0.0046  0.2309
  795POPS   C3A12033  12.005   0.540   7.372  0.1417  0.0275 -0.0214
  795POPS   C4A12034  12.166   0.602   7.771 -0.2585  0.0417 -0.1159
  795POPS   C1B12035  11.522   0.319   6.567 -0.0018 -0.0013 -0.0554
  795POPS   C2B12036  11.596   0.367   7.000  0.2689 -0.2799  0.0420
  795POPS   C3B12037  11.356   0.315   7.388 -0.0147  0.1764  0.1710
  795POPS   C4B12038  11.419   0.060   7.895 -0.2077 -0.0023  0.0757
  796POPS   CNO12039   3.487   2.260   5.367  0.4083 -0.0248  0.2090
  796POPS   PO412040   3.550   2.572   5.600  0.2548 -0.0473 -0.0432
  796POPS   GL112041   3.509   2.678   5.969  0.1212  0.0261 -0.0320
  796POPS   GL212042   3.560   3.037   6.118 -0.0381 -0.0726 -0.0370
  796POPS   C1A12043   3.148   2.768   6.259  0.3770 -0.1679  0.0521
  796POPS   D2A12044   3.048   3.071   6.554  0.2008  0.2832  0.2373
  796POPS   C3A12045   2.869   3.329   6.811 -0.2015  0.1991  0.2565
  796POPS   C4A12046   2.719   3.653   7.114  0.2081  0.2137  0.3351
  796POPS   C1B12047   3.535   2.948   6.543  0.2171 -0.0722 -0.1775
  796POPS   C2B12048   3.386   2.633   6.802  0.0003  0.0311  0.2005
  796POPS   C3B12049   3.228   2.522   7.120  0.0024 -0.0259  0.0114
  796POPS   C4B12050   3.135   2.748   7.368  0.1251 -0.2081 -0.1334
  797POPS   CNO12051   7.356   5.724   5.730 -0.0392  0.4338 -0.5691
  797POPS   PO412052   7.421   5.265   5.695  0.1759  0.2057 -0.2181
  797POPS   GL112053   7.375   5.349   6.180 -0.2696  0.0993  0.3011
  797POPS   GL212054   7.334   5.751   6.246  0.0045  0.2542  0.0998
  797POPS   C1A12055   7.076   5.416   6.671 -0.1432 -0.0899  0.2206
  797POPS   D2A12056   6.849   5.172   6.939 -0.2909  0.2213 -0.0112
  797POPS   C3A12057   6.880   4.795   6.997 -0.1153  0.2690 -0.3376
  797POPS   C4A12058   6.971   4.446   7.278 -0.1181 -0.2117  0.2033
  797POPS   C1B12059   7.703   5.657   6.512 -0.0802  0.3631 -0.1318
  797POPS   C2B12060   7.768   5.681   6.926 -0.2593  0.0778  0.2918
  797POPS   C3B12061   7.759   5.581   7.349  0.0847 -0.2135  0.1798
  797POPS   C4B12062   7.375   5.479   7.685  0.0390 -0.1503  0.0558
  798POPS   CNO12063   6.737   9.370   5.514  0.0882  0.0265  0.1839
  798POPS   PO412064   6.880   9.528   5.846 -0.0044 -0.0037  0.1658
  798POPS   GL112065   6.675   9.657   6.241  0.0342  0.3366  0.1526
  798POPS   GL212066   6.856   9.899   6.410  0.0092  0.0514  0.3416
  798POPS   C1A12067   6.523   9.601   6.722  0.1039 -0.1926 -0.1346
  798POPS   D2A12068   6.730   9.383   7.033 -0.1633 -0.2972 -0.1104
  798POPS   C3A12069   7.062   9.129   6.958 -0.3604  0.0984 -0.1216
  798POPS   C4A12070   7.130   8.794   6.778  0.0132 -0.0673 -0.2094
  798POPS   C1B12071   6.930   9.982   6.833 -0.1255  0.2292 -0.3613
  798POPS   C2B12072   7.050   9.704   7.206  0.0928  0.2242 -0.0687
  798POPS   C3B12073   7.222   9.716   7.584  0.0078  0.1650 -0.2176
  798POPS   C4B12074   7.503   9.590   7.950  0.0072  0.1365  0.0923
  799POPS   CNO12075  12.721  12.686   5.926  0.2640  0.1678 -0.0986
  799POPS   PO412076  12.903  12.593   6.266 -0.0593 -0.0132  0.2159
  799POPS   GL112077  12.920  12.847   6.599 -0.2433  0.0898  0.2630
  799POPS   GL212078  13.144  13.087   6.694 -0.2547 -0.1416  0.1379
  799POPS   C1A12079  13.099  12.648   6.932 -0.1350  0.0061 -0.1194
  799POPS   D2A12080  13.118  12.792   7.438  0.3311 -0.2259  0.1672
  799POPS   C3A12081  13.384  12.724   7.818  0.0386 -0.2799 -0.0213
  799POPS   C4A12082  13.743  12.714   8.241 -0.1114  0.1764  0.3541
  799POPS   C1B12083  13.276  13.171   7.075  0.0354  0.2149 -0.0438
  799POPS   C2B12084  13.453  13.251   7.496  0.1190  0.2266 -0.2742
  799POPS   C3B12085  13.684  13.138   7.706 -0.3910 -0.0697 -0.0191
  799POPS   C4B12086  14.086  13.145   7.551  0.0799 -0.0261 -0.1983
  800POPS   CNO12087  14.654  14.839   5.417 -0.0381  0.0582 -0.0152
  800POPS   PO412088  14.433  14.736   5.727  0.1871  0.2550 -0.0044
  800POPS   GL112089  14.527  14.840   6.240 -0.1065 -0.0634 -0.0514
  800POPS   GL212090  14.243  14.996   6.426 -0.0378  0.0359 -0.0645
  800POPS   C1A12091  14.629  14.740   6.662  0.0515 -0.1326 -0.2697
  800POPS   D2A12092  14.700  14.816   7.084  0.1193 -0.0273 -0.1602
  800POPS   C3A12093  14.883  15.203   7.282 -0.3106  0.1855 -0.0365
  800POPS   C4A12094  15.004  15.162   7.609  0.0140  0.1953 -0.1944
  800POPS   C1B12095  14.268  14.940   6.911  0.1524  0.1834  0.1400
  800POPS   C2B12096  14.281  14.926   7.311 -0.3078  0.1177 -0.1660
  800POPS   C3B12097  14.141  14.778   7.715  0.0001 -0.2922 -0.1353
  800POPS   C4B12098  14.057  14.417   7.845 -0.0730 -0.1730  0.0806
  801POPS   CNO12099   4.943  10.634   5.808  0.3293  0.1715 -0.0998
  801POPS   PO412100   5.249  10.482   6.126  0.2454  0.1217  0.0257
  801POPS   GL112101   5.183  10.278   6.552  0.1424 -0.1082 -0.1059
  801POPS   GL212102   5.500  10.260   6.749 -0.2068  0.0613 -0.0691
  801POPS   C1A12103   4.992  10.298   7.008 -0.0571  0.0625 -0.1097
  801POPS   D2A12104   5.107  10.280   7.460 -0.0738  0.1831  0.1352
  801POPS   C3A12105   5.295   9.952   7.597 -0.2302 -0.1441  0.0556
  801POPS   C4A12106   5.239   9.712   7.945  0.0938 -0.0724 -0.2248
  801POPS   C1B12107   5.525  10.432   7.177  0.0461 -0.1528 -0.2165
  801POPS   C2B12108   5.581  10.318   7.646 -0.2475  0.0378  0.1434
  801POPS   C3B12109   5.720   9.993   7.913  0.1406 -0.0875 -0.0455
  801POPS   C4B12110   5.960   9.912   8.256 -0.1273 -0.2328 -0.2081
  802POPS   CNO12111   6.996   2.998   5.392  0.0251 -0.0998  0.7184
  802POPS   PO412112   6.563   3.279   5.437 -0.1159 -0.1200  0.3319
  802POPS   GL112113   6.544   3.046   5.813  0.0618 -0.2293  0.0467
  802POPS   GL212114   6.299   3.150   5.980 -0.0606 -0.0164  0.3140
  802POPS   C1A12115   6.488   2.838   6.258  0.2395 -0.2517  0.0374
  802POPS   D2A12116   6.351   2.633   6.692  0.2507 -0.0073 -0.3117
  802POPS   C3A12117   6.160   2.342   7.048 -0.0633 -0.2264  0.1121
  802POPS   C4A12118   6.204   2.165   7.463 -0.2956 -0.0100  0.0355
  802POPS   C1B12119   6.406   3.484   6.369  0.2387 -0.4197  0.0652
  802POPS   C2B12120   6.539   3.323   6.799 -0.1077 -0.1742 -0.1340
  802POPS   C3B12121   6.488   3.326   7.311 -0.0088 -0.0402 -0.0705
  802POPS   C4B12122   6.603   3.154   7.696  0.2595  0.2102 -0.0107
  803POPS   CNO12123   9.025   2.509   5.378 -0.3397  0.3008 -0.0048
  803POPS   PO412124   9.223   2.085   5.336 -0.0769  0.0342 -0.1716
  803POPS   GL112125   9.353   2.298   5.735  0.0679 -0.2920  0.0380
  803POPS   GL212126   9.416   2.098   6.019 -0.2746  0.2097  0.0089
  803POPS   C1A12127   9.099   2.563   6.026 -0.1804  0.0229  0.0034
  803POPS   D2A12128   9.349   2.908   6.109  0.1295 -0.0619  0.3063
  803POPS   C3A12129   9.410   3.356   6.315 -0.2254 -0.2168  0.0886
  803POPS   C4A12130   9.524   3.602   6.836  0.0993  0.1669 -0.3580
  803POPS   C1B12131   9.124   2.047   6.303  0.0645 -0.0367 -0.3941
  803POPS   C2B12132   9.195   2.272   6.710 -0.0477 -0.3401 -0.1479
  803POPS   C3B12133   9.417   2.445   7.060 -0.1339  0.2233  0.1325
  803POPS   C4B12134   9.277   2.555   7.387 -0.2379  0.2450 -0.3166
  804POPS   CNO12135   5.285   0.473   5.121 -0.0923 -0.1492  0.1364
  804POPS   PO412136   5.350   0.743   5.562  0.0435  0.0085  0.0954
  804POPS   GL112137   5.280   0.791   6.021 -0.2832 -0.0942  0.1350
  804POPS   GL212138   5.477   0.961   6.203  0.4891 -0.0264 -0.2083
  804POPS   C1A12139   5.173   0.572   6.405 -0.0577 -0.0502 -0.0060
  804POPS   D2A12140   5.207   0.739   6.784 -0.1026 -0.2342 -0.2588
  804POPS   C3A12141   4.920   0.849   6.976 -0.2546 -0.5834  0.3070
  804POPS   C4A12142   4.726   1.234   6.837  0.1623  0.0065 -0.0425
  804POPS   C1B12143   5.673   0.957   6.626  0.2369 -0.0517  0.0543
  804POPS   C2B12144   5.504   1.111   6.981 -0.0073 -0.0102 -0.2351
  804POPS   C3B12145   5.296   0.977   7.298  0.1135 -0.0886 -0.0727
  804POPS   C4B12146   4.949   1.071   7.644  0.0894 -0.2099  0.0633
  805POPS   CNO12147   8.581  11.810   5.692 -0.1388 -0.2157 -0.0124
  805POPS   PO412148   8.645  11.431   5.814  0.1257 -0.0367 -0.0202
  805POPS   GL112149   8.875  11.295   6.259 -0.2039  0.0006 -0.0146
  805POPS   GL212150   8.660  11.089   6.571 -0.0219  0.0513 -0.0726
  805POPS   C1A12151   8.955  11.485   6.632 -0.3976 -0.2023  0.1554
  805POPS   D2A12152   9.127  11.463   7.021  0.1772 -0.1122 -0.0099
  805POPS   C3A12153   9.427  11.783   7.216  0.0890 -0.0175  0.0640
  805POPS   C4A12154   9.362  12.127   7.407 -0.0707 -0.0920  0.2942
  805POPS   C1B12155   8.765  11.135   6.934 -0.1494  0.1019  0.1707
  805POPS   C2B12156   8.823  10.980   7.340 -0.2182  0.2830 -0.0719
  805POPS   C3B12157   9.040  10.772   7.584 -0.0355  0.4099 -0.1755
  805POPS   C4B12158   9.294  10.727   7.977  0.0422 -0.0419 -0.1065
  806POPS   CNO12159   5.145   3.518   5.645  0.1502 -0.1575  0.1056
  806POPS   PO412160   5.285   3.915   5.930  0.1391  0.0780 -0.0207
  806POPS   GL112161   5.203   4.024   6.317  0.0336 -0.0305 -0.1577
  806POPS   GL212162   5.247   4.280   6.407  0.0383 -0.1422  0.0854
  806POPS   C1A12163   5.304   3.685   6.631 -0.3124 -0.0174 -0.0416
  806POPS   D2A12164   5.609   3.482   6.873 -0.1310  0.2257  0.0919
  806POPS   C3A12165   5.541   3.192   7.203  0.0850 -0.0676 -0.1133
  806POPS   C4A12166   5.555   2.954   7.571 -0.2437  0.0329  0.1489
  806POPS   C1B12167   4.835   4.326   6.531  0.1501 -0.1396 -0.1921
  806POPS   C2B12168   4.601   4.271   6.978 -0.0177 -0.3442 -0.2153
  806POPS   C3B12169   4.701   4.191   7.376  0.1051 -0.1916 -0.3610
  806POPS   C4B12170   4.529   4.403   7.698 -0.0782 -0.1629  0.0047
  807POPS   CNO12171   6.358  17.082   4.848 -0.1236 -0.1734 -0.1262
  807POPS   PO412172   6.078  17.029   5.264 -0.0354 -0.0243  0.2271
  807POPS   GL112173   5.876  17.128   5.700 -0.3769 -0.1029  0.0260
  807POPS   GL212174   5.594  17.252   5.712  0.1305  0.1131  0.2374
  807POPS   C1A12175   5.934  16.891   5.982  0.2693  0.1088  0.0341
  807POPS   D2A12176   5.832  16.805   6.342  0.0098  0.0265  0.1299
  807POPS   C3A12177   5.864  16.618   6.747  0.3513 -0.0471  0.0251
  807POPS   C4A12178   6.133  16.589   7.009 -0.0791  0.1611 -0.1222
  807POPS   C1B12179   5.594  17.565   6.100  0.4293 -0.1075  0.0358
  807POPS   C2B12180   5.580  17.757   6.529 -0.0524 -0.0091  0.3462
  807POPS   C3B12181   5.443  17.928   6.907 -0.1815 -0.0377 -0.0792
  807POPS   C4B12182   5.435  18.288   7.162 -0.1837 -0.1026 -0.3170
  808POPS   CNO12183  15.349  16.940   5.594 -0.3827 -0.0792 -0.1573
  808POPS   PO412184  15.264  17.309   5.685  0.0418 -0.1653 -0.2621
  808POPS   GL112185  15.239  17.330   6.123  0.1364 -0.2130 -0.1407
  808POPS   GL212186  15.046  17.068   6.250  0.0182  0.1734  0.0231
  808POPS   C1A12187  15.111  17.441   6.576 -0.1559  0.0966 -0.0813
  808POPS   D2A12188  15.028  17.360   6.966  0.0004 -0.0552 -0.1546
  808POPS   C3A12189  15.291  17.441   7.368 -0.0421 -0.0211 -0.0076
  808POPS   C4A12190  15.666  17.466   7.764 -0.2025  0.0252  0.2583
  808POPS   C1B12191  15.097  16.829   6.690  0.0424  0.0254  0.2375
  808POPS   C2B12192  15.313  16.924   7.104  0.1946  0.1381 -0.1624
  808POPS   C3B12193  15.514  16.962   7.537 -0.0842 -0.3567 -0.0264
  808POPS   C4B12194  15.739  16.975   7.953  0.1238 -0.2480  0.0756
  809POPS   CNO12195  13.695   2.715   5.776 -0.0662 -0.0346 -0.0815
  809POPS   PO412196  13.212   2.635   5.831 -0.2334 -0.0517 -0.0379
  809POPS   GL112197  13.351   2.620   6.308 -0.1158 -0.1607  0.0836
  809POPS   GL212198  13.695   2.536   6.252  0.2844  0.0969 -0.2334
  809POPS   C1A12199  13.410   2.642   6.712  0.1579 -0.0190  0.2095
  809POPS   D2A12200  13.512   2.740   7.068 -0.2551  0.2262  0.0520
  809POPS   C3A12201  13.197   2.996   7.308  0.2676 -0.2549  0.6118
  809POPS   C4A12202  12.991   3.243   7.469  0.0097  0.0539  0.1867
  809POPS   C1B12203  13.826   2.940   6.420  0.0596 -0.0393  0.0236
  809POPS   C2B12204  13.857   3.079   6.823  0.1471  0.0290  0.0077
  809POPS   C3B12205  13.762   3.150   7.186  0.0230 -0.2111  0.0372
  809POPS   C4B12206  13.930   3.411   7.578  0.0325  0.1834  0.2686
  810POPS   CNO12207   2.088   0.660   4.978 -0.2107 -0.0227  0.0610
  810POPS   PO412208   2.155   0.665   5.523  0.0075  0.0266 -0.2927
  810POPS   GL112209   2.216   0.505   5.888  0.0123  0.2319  0.1109
  810POPS   GL212210   2.488   0.282   5.861  0.2455 -0.0182 -0.1490
  810POPS   C1A12211   2.158   0.467   6.361  0.1244 -0.1147 -0.2221
  810POPS   D2A12212   2.201   0.491   6.811 -0.1531  0.0071  0.1022
  810POPS   C3A12213   2.062   0.180   7.091  0.0858  0.0879  0.0087
  810POPS   C4A12214   1.806  -0.045   7.421 -0.1326  0.3789 -0.2998
  810POPS   C1B12215   2.700   0.135   6.258 -0.0004 -0.1026 -0.2122
  810POPS   C2B12216   2.790  -0.198   6.522  0.1309 -0.2177 -0.0446
  810POPS   C3B12217   2.855  -0.259   6.932  0.0307 -0.2119 -0.0882
  810POPS   C4B12218   2.723  -0.124   7.271  0.0616 -0.1000 -0.0993
  811YOPS   CNO12219   4.903   2.615   4.937 -0.1616  0.2127 -0.1270
  811YOPS   PO412220   4.950   2.432   5.304  0.2023  0.0529 -0.3295
  811YOPS   GL112221   4.963   2.536   5.733 -0.1738  0.0009 -0.0003
  811YOPS   GL212222   5.287   2.593   5.930  0.0450 -0.0102 -0.5001
  811YOPS   C1A12223   4.768   2.415   6.189  0.3224 -0.0025  0.1090
  811YOPS   D2A12224   4.409   2.274   6.448  0.0958  0.0245 -0.2140
  811YOPS   C3A12225   4.313   2.247   6.959 -0.0833  0.1447  0.0867
  811YOPS   C4A12226   4.484   2.098   7.464 -0.0699  0.0747  0.0055
  811YOPS   C1B12227   5.282   2.093   6.031  0.3159 -0.1103  0.2179
  811YOPS   C2B12228   4.989   1.818   6.092  0.1420  0.0668 -0.0648
  811YOPS   D3B12229   4.591   1.720   5.950  0.1355  0.3341  0.3990
  811YOPS   C4B12230   4.415   1.407   6.061  0.0421  0.1305  0.2999
  812YOPS   CNO12231   5.242  14.369   5.426  0.3411  0.1066 -0.0031
  812YOPS   PO412232   5.167  14.729   5.643 -0.3076  0.0024  0.0400
  812YOPS   GL112233   5.176  14.555   6.022  0.0053 -0.1306 -0.0731
  812YOPS   GL212234   5.291  14.755   6.242  0.0176  0.0338 -0.0340
  812YOPS   C1A12235   5.186  14.219   6.326 -0.2745 -0.0266 -0.2490
  812YOPS   D2A12236   4.974  14.035   6.606  0.1940 -0.0454  0.0604
  812YOPS   C3A12237   5.020  14.095   7.023  0.4319  0.2001  0.1287
  812YOPS   C4A12238   4.887  14.530   7.218 -0.1702 -0.1566 -0.0217
  812YOPS   C1B12239   5.681  14.609   6.521  0.3244  0.1968  0.0329
  812YOPS   C2B12240   5.781  14.694   6.944 -0.3205 -0.0011 -0.0436
  812YOPS   D3B12241   5.776  14.817   7.417 -0.0511 -0.0149  0.0547
  812YOPS   C4B12242   5.546  15.284   7.485 -0.0820 -0.0199  0.0898
  813YOPS   CNO12243   3.995  13.068   5.669 -0.2647  0.0354  0.0299
  813YOPS   PO412244   4.295  13.230   5.806 -0.0167 -0.0963 -0.0388
  813YOPS   GL112245   4.092  13.247   6.185  0.2212 -0.3276 -0.0462
  813YOPS   GL212246   3.766  13.270   6.314 -0.0690  0.2481 -0.0204
  813YOPS   C1A12247   4.187  13.526   6.605 -0.4258 -0.0946  0.0904
  813YOPS   D2A12248   4.054  13.559   6.967 -0.0108  0.0306  0.1334
  813YOPS   C3A12249   4.241  13.526   7.305  0.1752  0.0903  0.1598
  813YOPS   C4A12250   4.260  13.030   7.484  0.2752  0.0603  0.0772
  813YOPS   C1B12251   3.606  13.508   6.781 -0.0339 -0.0377 -0.2962
  813YOPS   C2B12252   3.514  13.633   7.210 -0.1966  0.1037 -0.0014
  813YOPS   D3B12253   3.290  13.552   7.523  0.1267 -0.2120 -0.3983
  813YOPS   C4B12254   2.862  13.650   7.662  0.2169 -0.1222  0.2356
  814YOPS   CNO12255   6.840  17.074   5.873  0.1320 -0.1518 -0.3606
  814YOPS   PO412256   6.885  16.712   5.655 -0.0721 -0.1752  0.1344
  814YOPS   GL112257   6.945  16.552   6.091  0.3617 -0.0568 -0.1613
  814YOPS   GL212258   6.701  16.353   6.124 -0.0005 -0.3430  0.2090
  814YOPS   C1A12259   7.158  16.312   6.347  0.0340  0.0939  0.0834
  814YOPS   D2A12260   7.501  16.460   6.683  0.0290 -0.0729  0.0987
  814YOPS   C3A12261   7.659  16.265   7.135  0.2786 -0.0610 -0.0931
  814YOPS   C4A12262   7.729  15.806   7.127 -0.3284 -0.1637  0.2313
  814YOPS   C1B12263   6.773  16.049   6.541 -0.1956 -0.1713 -0.1119
  814YOPS   C2B12264   6.649  15.712   6.640  0.1541  0.2847 -0.0214
  814YOPS   D3B12265   6.854  15.403   6.733  0.0361 -0.2067 -0.0415
  814YOPS   C4B12266   7.233  15.406   6.938  0.1590  0.1473  0.0044
  815YOPS   CNO12267   0.373  11.844   5.708 -0.0556  0.2798 -0.0282
  815YOPS   PO412268   0.454  11.453   5.939 -0.2511 -0.1548  0.1435
  815YOPS   GL112269   0.686  11.340   6.268 -0.2113 -0.3620  0.0987
  815YOPS   GL212270   0.524  11.420   6.563 -0.0181  0.0832 -0.1695
  815YOPS   C1A12271   1.013  11.393   6.589 -0.0733 -0.4103  0.5445
  815YOPS   D2A12272   1.210  11.443   6.940 -0.1129 -0.0380  0.0633
  815YOPS   C3A12273   1.424  11.647   7.277 -0.0466 -0.1336 -0.0110
  815YOPS   C4A12274   1.523  11.451   7.480 -0.4106  0.1454  0.1692
  815YOPS   C1B12275   0.650  11.344   6.927  0.1431 -0.1539  0.0795
  815YOPS   C2B12276   0.904  11.390   7.380 -0.0285  0.0002  0.0631
  815YOPS   D3B12277   1.121  11.439   7.738  0.2044  0.0923 -0.2960
  815YOPS   C4B12278   1.257  11.867   7.727  0.0470 -0.0158  0.0833
  816YOPS   CNO12279   2.113  13.948   5.581 -0.0257  0.0335 -0.0386
  816YOPS   PO412280   1.898  13.971   5.977  0.2046  0.0448  0.2436
  816YOPS   GL112281   1.617  13.926   6.337 -0.1149  0.3439  0.0610
  816YOPS   GL212282   1.464  14.270   6.504 -0.0258 -0.0575  0.2658
  816YOPS   C1A12283   1.798  13.776   6.789  0.2388 -0.0306  0.0025
  816YOPS   D2A12284   1.841  13.810   7.179  0.0307 -0.2575 -0.0420
  816YOPS   C3A12285   1.965  13.786   7.654 -0.3460  0.1506  0.0346
  816YOPS   C4A12286   1.952  13.403   7.788  0.0711 -0.1730 -0.1370
  816YOPS   C1B12287   1.403  14.208   6.929 -0.0232 -0.3418 -0.2341
  816YOPS   C2B12288   1.297  13.997   7.202  0.1287 -0.0381 -0.1699
  816YOPS   D3B12289   1.477  13.770   7.543 -0.0227  0.1781  0.2411
  816YOPS   C4B12290   1.431  13.483   7.950  0.0395  0.3528 -0.1246
  817YOPS   CNO12291   7.272   3.832   5.665 -0.0574  0.0963  0.3483
  817YOPS   PO412292   7.696   3.880   5.843 -0.0632 -0.0629 -0.1128
  817YOPS   GL112293   7.916   3.912   6.197 -0.0289  0.0675 -0.2016
  817YOPS   GL212294   7.757   3.582   6.251 -0.1238  0.0250 -0.0474
  817YOPS   C1A12295   8.204   3.677   6.461  0.1071  0.0052 -0.2431
  817YOPS   D2A12296   8.433   3.467   6.733  0.3013 -0.1668  0.2635
  817YOPS   C3A12297   8.708   3.591   7.093  0.0960  0.1797 -0.0061
  817YOPS   C4A12298   9.191   3.405   7.220 -0.0131 -0.2314  0.1680
  817YOPS   C1B12299   7.597   3.571   6.637  0.3456  0.1412 -0.4266
  817YOPS   C2B12300   7.671   3.255   6.920  0.2670 -0.3327 -0.0622
  817YOPS   D3B12301   8.107   3.040   7.050  0.1304 -0.1051 -0.3046
  817YOPS   C4B12302   8.458   3.252   7.412 -0.0489  0.1251  0.4477
  818YOPS   CNO12303   4.182  10.407   5.478 -0.0163  0.1156  0.0933
  818YOPS   PO412304   3.889  10.562   5.739  0.2866 -0.0014  0.0412
  818YOPS   GL112305   3.921  10.411   6.195  0.1405 -0.0607  0.0378
  818YOPS   GL212306   4.123  10.675   6.286 -0.1063 -0.1378  0.3172
  818YOPS   C1A12307   3.670  10.214   6.393  0.1274 -0.2010  0.1203
  818YOPS   D2A12308   3.267  10.239   6.545 -0.0191 -0.0146  0.1463
  818YOPS   C3A12309   3.133  10.632   6.657  0.2612  0.0375  0.2428
  818YOPS   C4A12310   2.655  10.575   6.585 -0.3518  0.5783  0.1250
  818YOPS   C1B12311   4.051  10.714   6.770 -0.2669 -0.1240  0.0838
  818YOPS   C2B12312   4.039  10.547   7.201  0.4340  0.1521  0.0011
  818YOPS   D3B12313   3.844  10.565   7.625 -0.1837  0.1531  0.2316
  818YOPS   C4B12314   3.664  10.541   8.014  0.1672 -0.0896  0.2325
  819YOPS   CNO12315   1.668  12.138   5.756  0.0318 -0.0230 -0.2082
  819YOPS   PO412316   1.463  11.637   5.796  0.2056 -0.1195  0.0362
  819YOPS   GL112317   1.637  11.769   6.151  0.1258 -0.1447 -0.0209
  819YOPS   GL212318   1.932  11.984   6.164 -0.1009 -0.2463 -0.0887
  819YOPS   C1A12319   1.457  11.968   6.483 -0.0529 -0.0532 -0.0586
  819YOPS   D2A12320   1.376  11.966   6.926 -0.0767  0.1908 -0.1575
  819YOPS   C3A12321   1.292  12.138   7.291  0.0683  0.0147 -0.0751
  819YOPS   C4A12322   0.926  12.320   7.506 -0.5723  0.3187 -0.1652
  819YOPS   C1B12323   2.011  11.850   6.558 -0.0170  0.2164  0.2028
  819YOPS   C2B12324   1.878  11.760   6.961  0.2440 -0.2549 -0.0790
  819YOPS   D3B12325   2.014  11.616   7.335  0.0085  0.1556  0.0091
  819YOPS   C4B12326   1.993  11.334   7.609 -0.1482  0.3397 -0.0071
  820YOPS   CNO12327   0.575   9.705   5.273  0.1142  0.0253  0.1045
  820YOPS   PO412328   0.754   9.700   5.663 -0.0196 -0.0392 -0.1742
  820YOPS   GL112329   0.648   9.640   6.052  0.1177  0.2803 -0.1698
  820YOPS   GL212330   0.514   9.386   6.165  0.0052  0.0578  0.1539
  820YOPS   C1A12331   0.874   9.631   6.456  0.0388  0.0622  0.2677
  820YOPS   D2A12332   0.900   9.777   6.953 -0.0279 -0.0611  0.2746
  820YOPS   C3A12333   0.971   9.914   7.445  0.0791  0.0242 -0.0141
  820YOPS   C4A12334   0.993   9.671   7.798  0.1386  0.0156 -0.0430
  820YOPS   C1B12335   0.093   9.325   6.265 -0.3758 -0.1310  0.0598
  820YOPS   C2B12336  -0.213   8.960   6.399 -0.0960 -0.4841 -0.1203
  820YOPS   D3B12337  -0.641   8.793   6.706 -0.1335  0.0485 -0.2474
  820YOPS   C4B12338  -0.504   9.039   6.873 -0.1644  0.1039  0.1021
  821YOPS   CNO12339  11.923  11.404   6.413  0.1304 -0.1301 -0.1136
  821YOPS   PO412340  12.280  11.679   6.310 -0.0262  0.1335 -0.0020
  821YOPS   GL112341  12.322  11.544   6.771  0.0481  0.1127  0.1826
  821YOPS   GL212342  12.415  11.140   6.787 -0.0133 -0.1756  0.0547
  821YOPS   C1A12343  12.366  11.655   7.177  0.2638  0.1695 -0.1467
  821YOPS   D2A12344  12.494  11.546   7.538  0.0909 -0.1092  0.1303
  821YOPS   C3A12345  12.441  11.612   7.867  0.0198  0.0220 -0.2274
  821YOPS   C4A12346  12.672  11.377   8.178 -0.0465  0.3047 -0.0615
  821YOPS   C1B12347  12.463  10.769   7.128 -0.2716 -0.3162  0.0564
  821YOPS   C2B12348  12.408  10.644   7.548  0.0946 -0.2960 -0.0011
  821YOPS   D3B12349  12.754  10.644   7.806  0.1086  0.1706  0.0948
  821YOPS   C4B12350  12.714  10.453   8.156 -0.1166 -0.1754  0.1285
  822YOPS   CNO12351  11.581   1.952   5.311 -0.3290 -0.1603  0.1347
  822YOPS   PO412352  11.666   2.106   5.720  0.0261 -0.1919  0.0096
  822YOPS   GL112353  11.755   2.239   6.191  0.2676  0.3945 -0.2720
  822YOPS   GL212354  11.521   2.508   6.330  0.0224  0.0076  0.0009
  822YOPS   C1A12355  12.049   2.374   6.605 -0.0722 -0.1296 -0.3106
  822YOPS   D2A12356  12.039   2.579   7.030  0.1203  0.1260 -0.1524
  822YOPS   C3A12357  11.714   2.708   7.374  0.4563 -0.1881 -0.3552
  822YOPS   C4A12358  11.248   2.523   7.245  0.0180  0.3872 -0.0725
  822YOPS   C1B12359  11.652   2.142   6.694  0.1623 -0.1310  0.1420
  822YOPS   C2B12360  11.672   2.247   7.125 -0.2878  0.3195  0.0289
  822YOPS   D3B12361  11.528   2.288   7.605  0.1315  0.1446  0.0809
  822YOPS   C4B12362  11.135   2.371   7.859  0.1222  0.1063  0.3376
  823YOPS   CNO12363  15.319   5.766   5.758 -0.0322 -0.0471 -0.1156
  823YOPS   PO412364  14.956   5.929   5.898  0.0554 -0.2869 -0.0950
  823YOPS   GL112365  15.058   5.841   6.252 -0.1410 -0.0961 -0.1515
  823YOPS   GL212366  15.137   5.490   6.138 -0.2323  0.1980  0.0332
  823YOPS   C1A12367  15.068   5.587   6.624 -0.0854  0.0770 -0.3052
  823YOPS   D2A12368  15.004   5.390   7.007 -0.0994 -0.0119 -0.0545
  823YOPS   C3A12369  14.981   5.212   7.381  0.1899 -0.0619  0.5261
  823YOPS   C4A12370  14.635   5.265   7.474  0.1468  0.0705 -0.3007
  823YOPS   C1B12371  15.151   5.149   6.373 -0.0755 -0.0025 -0.0330
  823YOPS   C2B12372  15.110   4.886   6.761  0.0893  0.0450  0.1724
  823YOPS   D3B12373  15.208   4.640   7.160 -0.2461  0.0239  0.0771
  823YOPS   C4B12374  15.400   4.804   7.479  0.0768 -0.0626  0.0026
  824YOPS   CNO12375   8.838   7.650   6.462  0.1430 -0.4114  0.0153
  824YOPS   PO412376   8.537   7.429   6.359 -0.0034  0.1604 -0.0354
  824YOPS   GL112377   8.692   7.284   6.760  0.0111  0.0179  0.1848
  824YOPS   GL212378   8.964   7.191   6.723 -0.1296  0.0745  0.1434
  824YOPS   C1A12379   8.568   7.093   7.209  0.1642  0.1940 -0.0880
  824YOPS   D2A12380   8.264   6.858   7.217 -0.4409  0.1811 -0.1406
  824YOPS   C3A12381   8.194   6.521   7.510 -0.2456 -0.1016  0.1679
  824YOPS   C4A12382   7.772   6.468   7.634 -0.0737 -0.1316 -0.0784
  824YOPS   C1B12383   9.113   7.176   7.113  0.0572  0.0281  0.1425
  824YOPS   C2B12384   9.356   7.034   7.381  0.0291  0.2071  0.1817
  824YOPS   D3B12385   9.571   7.239   7.805  0.1542  0.0959  0.2080
  824YOPS   C4B12386   9.569   7.677   8.028 -0.1379  0.0542 -0.0256
  825YOPS   CNO12387   2.121  12.070   5.535  0.1328 -0.1004 -0.0657
  825YOPS   PO412388   2.230  12.301   5.935 -0.2360 -0.1259 -0.0501
  825YOPS   GL112389   2.386  12.445   6.222  0.3102 -0.0035 -0.2620
  825YOPS   GL212390   2.369  12.756   6.374 -0.2067 -0.4500 -0.0244
  825YOPS   C1A12391   2.485  12.428   6.686  0.0771  0.2322 -0.4203
  825YOPS   D2A12392   2.326  12.487   7.123 -0.2561 -0.2614  0.1122
  825YOPS   C3A12393   2.185  12.495   7.528 -0.3824 -0.3193 -0.0108
  825YOPS   C4A12394   2.083  12.883   7.715  0.0470 -0.0205  0.0137
  825YOPS   C1B12395   2.377  12.883   6.766  0.1192 -0.1593  0.2321
  825YOPS   C2B12396   2.341  12.938   7.274  0.1101  0.1726  0.2555
  825YOPS   D3B12397   2.611  12.847   7.541 -0.0979 -0.1055  0.1387
  825YOPS   C4B12398   2.509  12.651   7.927 -0.3397  0.1090  0.0108
  826YOPS   CNO12399   6.901  13.560   5.570  0.3342 -0.0752 -0.3178
  826YOPS   PO412400   6.850  13.695   6.004  0.4254 -0.2119 -0.1870
  826YOPS   GL112401   6.751  13.705   6.444 -0.0775 -0.2908  0.2138
  826YOPS   GL212402   6.643  14.071   6.567  0.0351 -0.1086 -0.4120
  826YOPS   C1A12403   6.434  13.516   6.785 -0.1942 -0.0998  0.0723
  826YOPS   D2A12404   6.050  13.523   6.830 -0.3018 -0.1252 -0.0831
  826YOPS   C3A12405   5.906  13.944   6.862  0.2572 -0.1358  0.0593
  826YOPS   C4A12406   5.757  14.155   7.230 -0.0402 -0.1914  0.2000
  826YOPS   C1B12407   6.390  13.968   7.046 -0.3085  0.1248  0.0258
  826YOPS   C2B12408   6.432  14.008   7.520  0.1645  0.1388  0.1853
  826YOPS   D3B12409   6.560  14.379   7.797  0.2329 -0.3488  0.0094
  826YOPS   C4B12410   7.023  14.498   7.864 -0.1051 -0.1797  0.0080
  827YOPS   CNO12411   2.812   5.910   6.096 -0.0732  0.2912 -0.3100
  827YOPS   PO412412   2.831   6.340   5.948 -0.0103 -0.4136  0.0384
  827YOPS   GL112413   2.655   6.408   6.350  0.0410 -0.1932  0.2269
  827YOPS   GL212414   2.280   6.337   6.249  0.3276  0.1292 -0.1637
  827YOPS   C1A12415   2.444   6.362   6.727 -0.1507 -0.3666  0.0702
  827YOPS   D2A12416   2.421   6.316   7.118 -0.1241 -0.4057 -0.0103
  827YOPS   C3A12417   2.274   6.246   7.520 -0.1569 -0.2516 -0.1315
  827YOPS   C4A12418   2.481   6.083   7.841 -0.1823  0.1200  0.2535
  827YOPS   C1B12419   2.019   6.155   6.534  0.1401 -0.0247 -0.0082
  827YOPS   C2B12420   1.564   6.248   6.500  0.2741  0.0552 -0.0677
  827YOPS   D3B12421   1.143   6.103   6.707  0.1634 -0.3178  0.0684
  827YOPS   C4B12422   1.186   6.302   7.102  0.2116  0.7300  0.0452
  828YOPS   CNO12423   3.792   6.348   5.790 -0.4704 -0.4442 -0.2471
  828YOPS   PO412424   4.269   6.365   5.818  0.1565  0.3275 -0.0460
  828YOPS   GL112425   4.307   6.625   6.268  0.1430 -0.1215  0.0870
  828YOPS   GL212426   4.011   6.465   6.338  0.1613  0.1771  0.0883
  828YOPS   C1A12427   4.130   6.928   6.591  0.0073 -0.0333 -0.2979
  828YOPS   D2A12428   4.117   7.098   7.053  0.2054 -0.0709  0.3208
  828YOPS   C3A12429   4.282   7.264   7.505 -0.3120 -0.1893  0.0997
  828YOPS   C4A12430   4.121   7.322   7.896 -0.2370 -0.0678  0.2168
  828YOPS   C1B12431   3.648   6.369   6.544 -0.0383 -0.0090 -0.1416
  828YOPS   C2B12432   3.399   5.996   6.711 -0.0006 -0.1059  0.0513
  828YOPS   D3B12433   3.489   5.677   6.997 -0.3122 -0.1314 -0.0661
  828YOPS   C4B12434   3.763   5.380   6.899  0.1951  0.1461 -0.1741
  829YOPS   CNO12435   7.327  18.002   5.723 -0.3461  0.2118  0.0859
  829YOPS   PO412436   7.136  18.403   5.739  0.6326 -0.3354  0.0520
  829YOPS   GL112437   7.301  18.789   5.910  0.0744  0.1788  0.1497
  829YOPS   GL212438   7.020  18.840   6.101 -0.0976  0.2332  0.1050
  829YOPS   C1A12439   7.479  18.953   6.342  0.0640 -0.0996 -0.2365
  829YOPS   D2A12440   7.465  19.189   6.696 -0.2324  0.1517  0.2265
  829YOPS   C3A12441   7.598  19.416   7.096  0.0319  0.5112  0.0185
  829YOPS   C4A12442   7.591  19.197   7.532 -0.2647  0.1565  0.1153
  829YOPS   C1B12443   7.062  18.804   6.535 -0.2691 -0.1469  0.1523
  829YOPS   C2B12444   7.055  18.598   6.903  0.1598  0.0818  0.4955
  829YOPS   D3B12445   7.112  18.230   7.099  0.1411  0.2018 -0.1741
  829YOPS   C4B12446   7.455  18.278   7.466 -0.1036 -0.0628  0.1801
  830YOPS   CNO12447   0.879   3.096   5.793 -0.0823  0.0030  0.1910
  830YOPS   PO412448   0.762   3.485   5.609 -0.0680 -0.1885 -0.0520
  830YOPS   GL112449   0.789   3.545   6.026  0.2684 -0.2051  0.0763
  830YOPS   GL212450   1.136   3.596   6.111  0.1512 -0.0281  0.0862
  830YOPS   C1A12451   0.669   3.578   6.367  0.0825 -0.1528 -0.2685
  830YOPS   D2A12452   0.335   3.557   6.585 -0.2275  0.1747  0.3770
  830YOPS   C3A12453   0.250   3.934   6.727  0.2320 -0.1368 -0.0739
  830YOPS   C4A12454   0.396   4.231   6.884  0.3214  0.4881  0.4309
  830YOPS   C1B12455   0.989   3.243   6.376 -0.0254  0.2056  0.2519
  830YOPS   C2B12456   1.272   3.200   6.762  0.4664  0.3183  0.1360
  830YOPS   D3B12457   1.595   2.942   6.728 -0.1158  0.0868 -0.3139
  830YOPS   C4B12458   1.691   2.547   6.879  0.4047  0.4962  0.1573
  831YOPS   CNO12459  13.551   6.216   5.387 -0.2631  0.0533  0.1331
  831YOPS   PO412460  13.608   6.466   5.773  0.0110 -0.0515  0.0931
  831YOPS   GL112461  13.662   6.340   6.134  0.0660 -0.0924 -0.0046
  831YOPS   GL212462  13.836   6.466   6.247 -0.0332 -0.0207  0.2615
  831YOPS   C1A12463  13.758   6.021   6.483 -0.0683  0.2891 -0.1711
  831YOPS   D2A12464  14.009   5.967   6.862 -0.0086  0.0572  0.0520
  831YOPS   C3A12465  14.288   5.898   7.169 -0.2476  0.1957  0.0360
  831YOPS   C4A12466  14.602   5.609   7.148 -0.0263 -0.0168 -0.0086
  831YOPS   C1B12467  13.879   6.453   6.656 -0.2599  0.0983  0.0500
  831YOPS   C2B12468  13.690   6.278   6.984  0.1411 -0.4153  0.2794
  831YOPS   D3B12469  13.475   6.509   7.324  0.0119 -0.1991 -0.4123
  831YOPS   C4B12470  13.724   6.618   7.686 -0.5268  0.0858  0.1838
  832YOPS   CNO12471   4.411   3.269   5.870 -0.1067 -0.0635 -0.1725
  832YOPS   PO412472   4.856   3.066   5.770  0.0848  0.4113  0.0019
  832YOPS   GL112473   4.823   3.003   6.076 -0.1296 -0.1853  0.1247
  832YOPS   GL212474   4.730   3.204   6.283  0.1876 -0.1006  0.0045
  832YOPS   C1A12475   4.488   2.825   6.378  0.0677  0.0210  0.8260
  832YOPS   D2A12476   4.541   2.707   6.807  0.1619  0.0076 -0.0192
  832YOPS   C3A12477   4.259   2.783   6.985 -0.3654 -0.0186 -0.3837
  832YOPS   C4A12478   3.945   2.658   6.723  0.1705  0.2325 -0.0589
  832YOPS   C1B12479   4.801   3.144   6.776 -0.0653 -0.1197  0.4370
  832YOPS   C2B12480   4.718   3.035   7.157 -0.0197  0.2986  0.3264
  832YOPS   D3B12481   4.437   2.778   7.460  0.1931  0.2274  0.0245
  832YOPS   C4B12482   4.720   2.495   7.585  0.0505 -0.0244  0.1689
  833YOPS   CNO12483   5.158  16.943   5.575 -0.0736  0.0759  0.0038
  833YOPS   PO412484   4.682  16.904   5.722 -0.0214  0.0899  0.1443
  833YOPS   GL112485   4.739  16.821   6.110 -0.1241 -0.3368 -0.1990
  833YOPS   GL212486   4.498  17.032   6.233  0.1476  0.1092  0.0598
  833YOPS   C1A12487   5.088  16.915   6.449  0.1762 -0.1057  0.2564
  833YOPS   D2A12488   4.976  17.185   6.736 -0.0079  0.0773  0.1644
  833YOPS   C3A12489   5.345  17.443   7.010 -0.2848 -0.1406 -0.0421
  833YOPS   C4A12490   5.263  17.546   7.408  0.1762 -0.0986 -0.1141
  833YOPS   C1B12491   4.526  17.021   6.601 -0.2276 -0.0052 -0.0582
  833YOPS   C2B12492   4.451  17.137   7.064 -0.0853 -0.1009  0.4804
  833YOPS   D3B12493   4.404  17.149   7.410 -0.2607 -0.1937  0.1135
  833YOPS   C4B12494   4.180  17.488   7.637  0.1015  0.0801 -0.1771
  834YOPS   CNO12495   8.188  11.505   6.257 -0.0174  0.0282 -0.0977
  834YOPS   PO412496   8.300  11.112   6.178  0.3019 -0.2970 -0.0419
  834YOPS   GL112497   8.139  11.041   6.613 -0.0048 -0.1624  0.0062
  834YOPS   GL212498   7.839  10.952   6.859  0.3057  0.2291 -0.2309
  834YOPS   C1A12499   8.232  11.203   7.078 -0.1301 -0.0903  0.1503
  834YOPS   D2A12500   8.220  11.254   7.478  0.2321  0.3202  0.0449
  834YOPS   C3A12501   7.861  11.191   7.797  0.0368 -0.2429  0.2774
  834YOPS   C4A12502   7.752  11.399   8.073  0.0969 -0.0124 -0.0459
  834YOPS   C1B12503   7.740  11.181   7.267 -0.4250  0.0677  0.0280
  834YOPS   C2B12504   7.469  11.072   7.539  0.1041  0.3625  0.0138
  834YOPS   D3B12505   7.300  10.893   7.878  0.1160 -0.0291  0.0929
  834YOPS   C4B12506   7.101  10.820   8.286  0.0290  0.1483 -0.0535
  835YOPS   CNO12507  11.602   5.389   5.320 -0.0395  0.1152 -0.2729
  835YOPS   PO412508  12.025   5.549   5.429  0.1796 -0.1984 -0.1672
  835YOPS   GL112509  11.859   5.344   5.824 -0.1738 -0.0387 -0.1553
  835YOPS   GL212510  11.585   5.499   6.066 -0.0929 -0.1519 -0.2363
  835YOPS   C1A12511  12.090   5.496   6.247  0.1098  0.0058 -0.0303
  835YOPS   D2A12512  12.131   5.832   6.586 -0.0512  0.1639 -0.0095
  835YOPS   C3A12513  12.004   6.180   6.860 -0.1683 -0.3110 -0.2383
  835YOPS   C4A12514  11.899   6.463   7.207  0.4491 -0.3138  0.1459
  835YOPS   C1B12515  11.485   5.472   6.572  0.0748 -0.1492  0.3083
  835YOPS   C2B12516  11.379   5.391   6.995  0.4813 -0.0043  0.3687
  835YOPS   D3B12517  11.428   5.075   7.287 -0.2983 -0.0048  0.0923
  835YOPS   C4B12518  11.579   5.129   7.746 -0.2056 -0.0811 -0.1902
  836YOPS   CNO12519  17.717  14.224   5.888  0.0399 -0.0831 -0.1044
  836YOPS   PO412520  17.488  14.633   5.865 -0.1682 -0.1366 -0.2143
  836YOPS   GL112521  17.347  14.690   6.220  0.0196 -0.0292 -0.0838
  836YOPS   GL212522  17.061  14.680   6.362  0.2440  0.1804  0.4375
  836YOPS   C1A12523  17.486  14.681   6.706  0.0244 -0.0854 -0.1107
  836YOPS   D2A12524  17.446  14.481   7.003 -0.1079  0.0743 -0.1636
  836YOPS   C3A12525  17.281  14.292   7.244 -0.1291 -0.1313  0.2890
  836YOPS   C4A12526  17.224  13.992   7.407 -0.1476  0.1105 -0.0165
  836YOPS   C1B12527  17.063  14.265   6.742 -0.0618 -0.1113  0.2432
  836YOPS   C2B12528  16.832  14.253   7.070  0.0737 -0.1547  0.0296
  836YOPS   D3B12529  16.772  14.218   7.423 -0.0238  0.0683 -0.1089
  836YOPS   C4B12530  16.560  14.239   7.824  0.4811  0.1338 -0.2530
  837YOPS   CNO12531   4.323   5.410   5.925 -0.1020  0.0754 -0.0797
  837YOPS   PO412532   4.043   5.531   6.232 -0.2010 -0.1157 -0.0835
  837YOPS   GL112533   3.854   5.184   6.324 -0.2987  0.2038 -0.0596
  837YOPS   GL212534   4.057   4.931   6.229  0.1181  0.1022  0.1389
  837YOPS   C1A12535   3.653   4.891   6.609  0.3854  0.3692  0.0912
  837YOPS   D2A12536   3.399   5.029   6.911  0.2041  0.0378  0.4103
  837YOPS   C3A12537   3.314   5.179   7.312 -0.1600  0.0713 -0.1260
  837YOPS   C4A12538   3.077   4.974   7.669 -0.0966 -0.0603 -0.0450
  837YOPS   C1B12539   4.100   4.559   6.554  0.1419  0.2861 -0.1454
  837YOPS   C2B12540   4.141   4.538   6.999 -0.2566 -0.0795 -0.2643
  837YOPS   D3B12541   4.018   4.278   7.331 -0.0929 -0.0215  0.0091
  837YOPS   C4B12542   3.992   4.383   7.721 -0.0044 -0.1409 -0.1852
  838YOPS   CNO12543   3.313  10.141   5.277  0.1510 -0.0539  0.2344
  838YOPS   PO412544   3.430   9.977   5.670  0.1002  0.2981 -0.2776
  838YOPS   GL112545   3.308   9.974   6.118 -0.0855  0.0646 -0.2236
  838YOPS   GL212546   3.488   9.730   6.198  0.1098 -0.1310 -0.1454
  838YOPS   C1A12547   3.207   9.804   6.692 -0.1022 -0.1260  0.0389
  838YOPS   D2A12548   3.318  10.135   7.020 -0.2411 -0.0652 -0.0589
  838YOPS   C3A12549   3.675  10.219   7.347 -0.0364  0.1217 -0.1077
  838YOPS   C4A12550   3.524  10.149   7.778 -0.0984 -0.0097 -0.0413
  838YOPS   C1B12551   3.746   9.767   6.608  0.0139 -0.3060  0.2175
  838YOPS   C2B12552   3.628   9.735   7.108  0.1295 -0.1883 -0.2016
  838YOPS   D3B12553   3.356   9.704   7.519  0.1496 -0.0102 -0.0435
  838YOPS   C4B12554   2.965   9.437   7.623  0.2180  0.2183 -0.1899
  839YOPS   CNO12555   9.193   4.703   5.341  0.2259  0.0753 -0.1785
  839YOPS   PO412556   8.763   4.501   5.490  0.2316 -0.1783 -0.2845
  839YOPS   GL112557   8.841   4.266   5.856 -0.0379 -0.0321  0.0451
  839YOPS   GL212558   9.156   4.389   6.084 -0.1020 -0.3906 -0.0066
  839YOPS   C1A12559   8.735   4.292   6.353  0.2152 -0.0601 -0.0140
  839YOPS   D2A12560   8.533   4.217   6.717  0.1953  0.0811  0.2672
  839YOPS   C3A12561   8.340   3.950   6.972  0.0580 -0.2925  0.1262
  839YOPS   C4A12562   8.075   4.074   7.294  0.1156 -0.4036  0.6082
  839YOPS   C1B12563   9.133   4.690   6.360 -0.1163  0.2079 -0.0087
  839YOPS   C2B12564   9.364   4.804   6.678 -0.1374 -0.1467 -0.2048
  839YOPS   D3B12565   9.402   4.749   7.090 -0.3338 -0.1162 -0.0139
  839YOPS   C4B12566   9.356   4.303   7.198 -0.1157  0.2052 -0.1230
  840YOPS   CNO12567   1.521  15.461   5.882 -0.0555  0.0054  0.2309
  840YOPS   PO412568   1.171  15.635   5.860 -0.1337 -0.0714  0.1467
  840YOPS   GL112569   0.918  15.578   6.281 -0.1837 -0.2054 -0.2727
  840YOPS   GL212570   0.911  15.854   6.462  0.1344  0.4101  0.0025
  840YOPS   C1A12571   0.573  15.421   6.637 -0.0545 -0.0713  0.3140
  840YOPS   D2A12572   0.516  15.307   7.046 -0.0250  0.1553 -0.2994
  840YOPS   C3A12573   0.748  15.179   7.499  0.1657  0.1617 -0.0062
  840YOPS   C4A12574   0.485  15.207   7.845 -0.0500 -0.1797 -0.0278
  840YOPS   C1B12575   0.911  15.659   6.874 -0.1591 -0.0261 -0.0743
  840YOPS   C2B12576   1.035  15.497   7.247  0.4167 -0.0510 -0.3706
  840YOPS   D3B12577   1.178  15.420   7.630 -0.0116  0.1757  0.0599
  840YOPS   C4B12578   0.986  15.736   7.782  0.0503  0.2679 -0.0110
  841POPE   NH312579  14.216  12.569   5.941 -0.3044 -0.2624 -0.2629
  841POPE   PO412580  14.289  12.973   5.853 -0.0951  0.0932 -0.3647
  841POPE   GL112581  14.524  12.949   6.214  0.2188  0.1866 -0.2070
  841POPE   GL212582  14.874  12.884   6.155  0.0962  0.3788 -0.4429
  841POPE   C1A12583  14.527  12.750   6.563 -0.0572 -0.3885  0.0712
  841POPE   D2A12584  14.388  12.647   6.914 -0.2723 -0.0904  0.0467
  841POPE   C3A12585  14.448  12.164   7.037  0.0843  0.1568  0.3785
  841POPE   C4A12586  14.602  11.992   7.397  0.0022  0.2413 -0.0919
  841POPE   C1B12587  15.061  13.009   6.523  0.1485 -0.0917 -0.2180
  841POPE   C2B12588  15.208  13.253   6.873  0.0412 -0.1339  0.1310
  841POPE   C3B12589  15.363  13.104   7.306  0.1432  0.0499  0.0057
  841POPE   C4B12590  15.517  12.905   7.733 -0.0901  0.1655  0.3592
  842POPE   NH312591  10.193  12.769   6.007 -0.0168 -0.0561 -0.1081
  842POPE   PO412592   9.821  12.602   5.882 -0.1932 -0.2383  0.4132
  842POPE   GL112593   9.774  12.719   6.353  0.0336  0.0599 -0.1337
  842POPE   GL212594  10.035  12.848   6.490  0.0588  0.2658  0.2230
  842POPE   C1A12595   9.449  12.841   6.701 -0.1524 -0.1625 -0.0340
  842POPE   D2A12596   9.037  12.977   7.047 -0.0182 -0.0186  0.4116
  842POPE   C3A12597   8.917  12.835   7.355  0.1351  0.2583  0.0599
  842POPE   C4A12598   8.682  12.796   7.689 -0.4095  0.1035 -0.0550
  842POPE   C1B12599   9.886  12.714   6.917  0.0918  0.2762  0.0299
  842POPE   C2B12600   9.982  12.614   7.293  0.3557 -0.1401  0.1407
  842POPE   C3B12601  10.288  12.301   7.467 -0.0686 -0.0568 -0.0263
  842POPE   C4B12602  10.686  12.318   7.706  0.4308 -0.1430  0.2582
  843POPE   NH312603   1.929   6.198   5.442  0.1618 -0.0121  0.1737
  843POPE   PO412604   2.126   5.843   5.639  0.0250  0.1086 -0.0476
  843POPE   GL112605   2.325   5.745   5.986  0.2351  0.1888  0.0362
  843POPE   GL212606   2.456   5.555   6.081 -0.2039 -0.3238 -0.4791
  843POPE   C1A12607   2.450   5.917   6.423  0.1629  0.2111  0.2143
  843POPE   D2A12608   2.816   5.982   6.608  0.3455  0.2831 -0.0715
  843POPE   C3A12609   2.986   5.606   6.818 -0.3439 -0.3814  0.1650
  843POPE   C4A12610   3.411   5.417   6.586  0.0963 -0.1410  0.0215
  843POPE   C1B12611   2.567   5.360   6.539  0.5273 -0.1631  0.1214
  843POPE   C2B12612   2.548   5.406   6.950 -0.1310  0.1861 -0.0885
  843POPE   C3B12613   2.503   5.268   7.379  0.1745 -0.1858 -0.1835
  843POPE   C4B12614   2.465   4.951   7.685 -0.0336  0.0458  0.0779
  844POPE   NH312615   8.212  11.906   6.017 -0.0837 -0.1253  0.1132
  844POPE   PO412616   7.919  12.260   6.188  0.0661  0.1898  0.0166
  844POPE   GL112617   8.229  12.172   6.453 -0.0820  0.0897 -0.1729
  844POPE   GL212618   8.189  11.940   6.607  0.0398 -0.0357 -0.0454
  844POPE   C1A12619   8.606  12.276   6.505 -0.0774  0.3314 -0.3085
  844POPE   D2A12620   8.860  12.408   6.418  0.1640  0.2570 -0.0349
  844POPE   C3A12621   8.970  12.741   6.593  0.2071  0.2236 -0.0859
  844POPE   C4A12622   9.084  13.166   6.562  0.2880 -0.1513 -0.1863
  844POPE   C1B12623   8.433  12.100   6.961 -0.0683  0.3131 -0.2936
  844POPE   C2B12624   8.786  12.371   7.015  0.1464  0.0489 -0.0660
  844POPE   C3B12625   9.210  12.423   6.974  0.1945  0.0231  0.2327
  844POPE   C4B12626   9.499  12.566   7.115 -0.1119 -0.1116  0.1551
  845POPE   NH312627  13.148   8.497   6.392 -0.2182  0.2002  0.4265
  845POPE   PO412628  13.211   8.724   5.993  0.0867 -0.2913 -0.1247
  845POPE   GL112629  13.493   8.868   6.288  0.3038 -0.2942  0.1261
  845POPE   GL212630  13.553   9.195   6.327 -0.0937 -0.0119 -0.1928
  845POPE   C1A12631  13.698   8.826   6.675  0.2166 -0.1651 -0.1301
  845POPE   D2A12632  13.830   8.590   7.055  0.1312  0.0766 -0.0134
  845POPE   C3A12633  13.958   8.910   7.342 -0.3292  0.2063 -0.2006
  845POPE   C4A12634  13.971   8.993   7.708  0.1597  0.0516  0.0976
  845POPE   C1B12635  13.645   9.376   6.711 -0.1593  0.0068  0.0662
  845POPE   C2B12636  13.459   9.576   7.032 -0.3019 -0.1718  0.1503
  845POPE   C3B12637  13.209   9.543   7.280  0.5163  0.2398 -0.1424
  845POPE   C4B12638  13.077   9.132   7.421 -0.0310 -0.0901 -0.0234
  846POPE   NH312639   8.849   1.797   5.528  0.1343 -0.0794 -0.2072
  846POPE   PO412640   8.377   1.786   5.361  0.1573 -0.0480  0.0615
  846POPE   GL112641   8.293   1.772   5.782  0.1256 -0.0692  0.1321
  846POPE   GL212642   8.345   2.003   5.933  0.1117 -0.1427 -0.1541
  846POPE   C1A12643   8.651   1.598   6.075 -0.0178 -0.0197  0.0051
  846POPE   D2A12644   8.538   1.304   6.380  0.1059  0.2188 -0.2128
  846POPE   C3A12645   8.959   1.216   6.582  0.2425 -0.1392 -0.0432
  846POPE   C4A12646   9.449   1.236   6.763  0.0423  0.1655 -0.1857
  846POPE   C1B12647   8.509   2.010   6.361 -0.3335 -0.2448 -0.0804
  846POPE   C2B12648   8.682   2.280   6.697 -0.2147  0.1222 -0.0398
  846POPE   C3B12649   8.494   2.084   7.006  0.0286  0.0870 -0.1380
  846POPE   C4B12650   8.574   1.797   7.287  0.2351  0.0807 -0.0692
  847POPE   NH312651  14.782   9.795   5.890 -0.2857 -0.0389  0.0676
  847POPE   PO412652  15.070  10.052   5.911 -0.1102 -0.0797 -0.1866
  847POPE   GL112653  15.041   9.920   6.326 -0.1454 -0.0508 -0.1332
  847POPE   GL212654  15.034   9.642   6.265 -0.0805  0.0870 -0.1192
  847POPE   C1A12655  15.052   9.677   6.782  0.0417 -0.3683  0.1156
  847POPE   D2A12656  15.229   9.713   7.147  0.1283  0.0361 -0.0642
  847POPE   C3A12657  15.048   9.684   7.484 -0.1293  0.3185  0.2704
  847POPE   C4A12658  14.651   9.732   7.672  0.3670 -0.2342 -0.1060
  847POPE   C1B12659  15.515   9.723   6.216  0.0184 -0.0950  0.4365
  847POPE   C2B12660  15.951   9.632   6.140  0.3039 -0.3337 -0.0332
  847POPE   C3B12661  16.335   9.736   6.371 -0.2214  0.1511  0.0709
  847POPE   C4B12662  16.632   9.534   6.644 -0.3005  0.0664  0.1098
  848POPE   NH312663   4.790   8.498   6.045  0.0972  0.2029  0.2038
  848POPE   PO412664   4.431   8.112   5.976  0.0154 -0.0119  0.1362
  848POPE   GL112665   4.553   8.120   6.391 -0.1416  0.1203  0.2800
  848POPE   GL212666   4.321   8.093   6.620 -0.0153  0.0847 -0.1022
  848POPE   C1A12667   4.692   8.298   6.840 -0.1228 -0.2232  0.0841
  848POPE   D2A12668   4.454   8.487   7.196 -0.0719  0.0733  0.0794
  848POPE   C3A12669   4.342   8.216   7.649  0.0236 -0.0993 -0.0375
  848POPE   C4A12670   4.231   8.245   8.101 -0.0258  0.0085  0.2460
  848POPE   C1B12671   4.326   8.050   7.008  0.0061 -0.1088 -0.0296
  848POPE   C2B12672   4.005   7.804   7.068 -0.2860 -0.0348 -0.3163
  848POPE   C3B12673   3.923   7.520   7.267  0.2247  0.0800  0.4872
  848POPE   C4B12674   3.762   7.293   7.573 -0.1186 -0.2690  0.1940
  849POPE   NH312675  18.029  15.903   5.701  0.3992 -0.0669  0.0807
  849POPE   PO412676  18.021  16.291   5.861 -0.0152  0.0975 -0.0731
  849POPE   GL112677  18.092  16.348   6.277  0.4694  0.0420 -0.0645
  849POPE   GL212678  17.892  16.449   6.491  0.3511 -0.0224  0.1412
  849POPE   C1A12679  18.436  16.328   6.562  0.1819 -0.1077  0.3179
  849POPE   D2A12680  18.513  16.201   6.983 -0.1539  0.0125 -0.2092
  849POPE   C3A12681  18.491  15.721   7.060 -0.1172  0.0843 -0.0923
  849POPE   C4A12682  18.507  15.532   7.464  0.1493  0.2269  0.1892
  849POPE   C1B12683  17.890  16.649   6.847  0.1580  0.4894 -0.1192
  849POPE   C2B12684  17.789  16.767   7.209 -0.0288 -0.1236 -0.0724
  849POPE   C3B12685  17.845  16.936   7.642  0.1967 -0.1470 -0.2093
  849POPE   C4B12686  17.467  16.834   7.959  0.1063  0.0583  0.3350
  850POPE   NH312687   3.015   2.282   5.537  0.1250 -0.0254  0.0868
  850POPE   PO412688   2.890   2.638   5.647 -0.1911 -0.2292 -0.1335
  850POPE   GL112689   2.983   2.408   6.033  0.5423 -0.3416  0.1285
  850POPE   GL212690   2.940   2.297   6.246 -0.2096 -0.0034  0.0655
  850POPE   C1A12691   3.443   2.370   6.373  0.1242 -0.1805 -0.1701
  850POPE   D2A12692   3.523   2.088   6.728 -0.0414 -0.1781 -0.1026
  850POPE   C3A12693   3.364   2.093   7.114  0.0216 -0.2981  0.2323
  850POPE   C4A12694   3.630   2.123   7.492  0.0234 -0.1054  0.1730
  850POPE   C1B12695   3.039   2.289   6.691  0.2173  0.1566  0.2859
  850POPE   C2B12696   2.752   2.317   7.056  0.0095 -0.1299 -0.2048
  850POPE   C3B12697   2.688   2.544   7.393 -0.1484  0.3338  0.0733
  850POPE   C4B12698   2.705   2.892   7.742 -0.0525  0.1208  0.2694
  851POPE   NH312699  17.335   4.520   5.351  0.2384 -0.0801  0.0773
  851POPE   PO412700  17.754   4.494   5.502  0.2091  0.2702  0.0953
  851POPE   GL112701  17.520   4.275   5.748  0.0700 -0.0829  0.0166
  851POPE   GL212702  17.284   4.516   5.918  0.3325 -0.1590 -0.0290
  851POPE   C1A12703  17.671   4.052   6.036  0.1150  0.1856 -0.2387
  851POPE   D2A12704  17.882   3.592   6.148 -0.3328 -0.1552  0.4192
  851POPE   C3A12705  18.018   3.469   6.632 -0.1509  0.1589 -0.2532
  851POPE   C4A12706  17.980   3.272   7.119 -0.0115 -0.0060  0.1013
  851POPE   C1B12707  17.315   4.356   6.302 -0.0675  0.2074  0.2227
  851POPE   C2B12708  17.154   4.229   6.712 -0.0419 -0.1141 -0.2882
  851POPE   C3B12709  17.134   4.148   7.139 -0.2657  0.0303  0.2540
  851POPE   C4B12710  16.905   4.044   7.423  0.1722 -0.1985 -0.0474
  852POPE   NH312711  15.140  15.688   5.970  0.0662 -0.0682 -0.1533
  852POPE   PO412712  15.203  15.307   5.976 -0.1566 -0.0297 -0.0665
  852POPE   GL112713  15.257  15.487   6.465  0.1560  0.1499  0.2177
  852POPE   GL212714  15.370  15.797   6.500 -0.0421  0.1288 -0.1291
  852POPE   C1A12715  15.249  15.365   6.950 -0.0803 -0.1165 -0.0151
  852POPE   D2A12716  15.457  15.277   7.274  0.3681  0.2070  0.0333
  852POPE   C3A12717  15.754  15.596   7.226  0.2272  0.0857 -0.2695
  852POPE   C4A12718  16.096  15.745   7.099  0.0809  0.0254 -0.1594
  852POPE   C1B12719  15.371  15.870   6.945 -0.1451  0.0557  0.1170
  852POPE   C2B12720  15.722  16.108   7.247  0.2910 -0.2427  0.1043
  852POPE   C3B12721  15.551  15.878   7.659  0.0015  0.0578 -0.0421
  852POPE   C4B12722  15.329  15.879   7.984 -0.1356 -0.2917 -0.0988
  853POPE   NH312723   6.761  18.062   5.536 -0.0735 -0.3365  0.0726
  853POPE   PO412724   6.901  17.636   5.597 -0.0547 -0.3185  0.2283
  853POPE   GL112725   6.587  17.767   5.856 -0.1536  0.0782  0.0234
  853POPE   GL212726   6.534  17.449   6.050 -0.0119  0.0692  0.0065
  853POPE   C1A12727   6.474  18.036   6.245  0.0442  0.1869 -0.1371
  853POPE   D2A12728   6.109  17.909   6.555 -0.0992 -0.0431  0.0551
  853POPE   C3A12729   6.290  17.924   7.000  0.2200  0.1850  0.1555
  853POPE   C4A12730   6.348  18.028   7.455  0.0933 -0.0062  0.1736
  853POPE   C1B12731   6.541  17.502   6.496  0.0706 -0.1986 -0.2056
  853POPE   C2B12732   6.435  17.494   6.921  0.0377 -0.1981  0.0150
  853POPE   C3B12733   6.611  17.307   7.227  0.1396 -0.3363  0.1034
  853POPE   C4B12734   6.510  17.036   7.550 -0.1855  0.4273  0.1947
  854POPE   NH312735   6.353   4.350   5.499  0.0764 -0.0368 -0.2031
  854POPE   PO412736   6.050   4.090   5.627 -0.0388  0.0836  0.0619
  854POPE   GL112737   5.788   4.007   6.150 -0.1429 -0.0724 -0.1974
  854POPE   GL212738   5.870   3.734   6.366  0.2161 -0.1894  0.1542
  854POPE   C1A12739   5.656   4.095   6.622 -0.0983  0.2879 -0.0066
  854POPE   D2A12740   5.549   3.908   7.069 -0.1199 -0.1141  0.0534
  854POPE   C3A12741   5.221   3.729   7.250  0.0209 -0.2470 -0.2466
  854POPE   C4A12742   5.023   3.320   7.412 -0.0926  0.0168  0.0271
  854POPE   C1B12743   6.071   3.692   6.807 -0.0207  0.0580 -0.2630
  854POPE   C2B12744   5.941   3.721   7.272 -0.1128  0.0282  0.1789
  854POPE   C3B12745   5.704   3.590   7.613 -0.0635  0.0128  0.2009
  854POPE   C4B12746   5.440   3.475   7.959 -0.0276 -0.1256  0.0445
  855POPE   NH312747  12.611  15.623   5.984 -0.0116  0.1672 -0.4139
  855POPE   PO412748  12.497  16.100   5.944 -0.2243  0.0735 -0.0790
  855POPE   GL112749  12.404  15.939   6.333  0.1731  0.0600 -0.0865
  855POPE   GL212750  12.115  15.691   6.349 -0.2974 -0.0919 -0.3691
  855POPE   C1A12751  12.380  15.966   6.722 -0.0371  0.2274  0.1071
  855POPE   D2A12752  12.440  15.836   7.190 -0.1804 -0.1343 -0.1012
  855POPE   C3A12753  12.370  16.124   7.521 -0.1327  0.4176  0.1548
  855POPE   C4A12754  12.150  16.428   7.704 -0.3985  0.1119  0.0701
  855POPE   C1B12755  12.351  15.464   6.707 -0.3614  0.1027  0.0306
  855POPE   C2B12756  12.556  15.379   7.037  0.0622  0.1739  0.1212
  855POPE   C3B12757  12.878  15.232   6.932 -0.0915 -0.0588 -0.1818
  855POPE   C4B12758  13.300  15.026   6.990  0.0331  0.0290  0.2867
  856POPE   NH312759   9.485   7.321   6.104 -0.0489  0.1576 -0.3865
  856POPE   PO412760   9.279   6.957   5.945  0.1476  0.2736  0.0561
  856POPE   GL112761   9.460   6.899   6.419 -0.0703  0.2484  0.0980
  856POPE   GL212762   9.524   7.129   6.605 -0.0413 -0.0397  0.0797
  856POPE   C1A12763   9.900   6.740   6.548 -0.0596 -0.1333 -0.1155
  856POPE   D2A12764  10.215   6.495   6.316 -0.0281  0.1372  0.0991
  856POPE   C3A12765  10.211   6.246   6.667  0.2657 -0.0508 -0.1908
  856POPE   C4A12766  10.197   6.043   6.995 -0.0565  0.1026 -0.4201
  856POPE   C1B12767   9.615   6.824   6.897 -0.3273 -0.0664 -0.0665
  856POPE   C2B12768   9.796   6.677   7.167 -0.2306 -0.1597  0.0482
  856POPE   C3B12769   9.962   6.299   7.313  0.3084 -0.0701 -0.3825
  856POPE   C4B12770   9.884   5.775   7.315 -0.3633 -0.2388 -0.2154
  857POPE   NH312771   1.934  11.661   5.738 -0.1379 -0.1547  0.1877
  857POPE   PO412772   2.081  11.303   5.541  0.0751  0.3450  0.0962
  857POPE   GL112773   2.385  11.345   5.868 -0.0222 -0.0311 -0.0499
  857POPE   GL212774   2.422  11.730   5.969  0.1736 -0.3762  0.1416
  857POPE   C1A12775   2.468  11.086   6.244  0.4142  0.0198 -0.0935
  857POPE   D2A12776   2.112  11.001   6.534 -0.4816 -0.1454  0.1385
  857POPE   C3A12777   1.854  10.744   6.555 -0.0177  0.1267 -0.2130
  857POPE   C4A12778   1.843  10.335   6.748  0.0117  0.0297  0.0073
  857POPE   C1B12779   2.213  11.490   6.290  0.2596 -0.1510 -0.1057
  857POPE   C2B12780   2.186  11.431   6.756  0.2644  0.2193  0.0717
  857POPE   C3B12781   2.383  11.287   7.225 -0.0877 -0.1208  0.0366
  857POPE   C4B12782   2.442  11.222   7.601  0.4036  0.6244 -0.1857
  858POPE   NH312783  14.517   2.950   5.715 -0.0585 -0.0532 -0.1661
  858POPE   PO412784  14.581   2.563   5.798  0.1623  0.2661 -0.1655
  858POPE   GL112785  14.479   2.319   6.181  0.0225 -0.1590  0.0794
  858POPE   GL212786  14.502   2.035   6.353 -0.0961 -0.0594  0.0099
  858POPE   C1A12787  14.211   2.518   6.478 -0.0092 -0.0020  0.2167
  858POPE   D2A12788  13.902   2.585   6.772  0.0749  0.1037  0.0991
  858POPE   C3A12789  13.963   2.452   7.326 -0.1426 -0.0997  0.2219
  858POPE   C4A12790  14.218   2.322   7.629 -0.0633 -0.3893 -0.0370
  858POPE   C1B12791  14.427   2.163   6.836  0.2738  0.2352  0.0399
  858POPE   C2B12792  14.544   2.451   7.059  0.0176 -0.0313 -0.4356
  858POPE   C3B12793  14.656   2.590   7.519  0.1811  0.2522 -0.0717
  858POPE   C4B12794  14.574   3.010   7.714 -0.3442  0.2781 -0.4140
  859POPE   NH312795  13.623   5.230   5.720 -0.0166 -0.0075  0.1065
  859POPE   PO412796  14.049   5.244   5.618 -0.0425 -0.1172 -0.0656
  859POPE   GL112797  13.977   5.223   6.101 -0.1066 -0.1309  0.0976
  859POPE   GL212798  14.302   5.082   6.307 -0.1610  0.2233  0.1207
  859POPE   C1A12799  13.725   5.009   6.416 -0.3118  0.1225  0.1680
  859POPE   D2A12800  13.371   4.954   6.626  0.0293  0.1179 -0.0285
  859POPE   C3A12801  13.308   4.915   7.075 -0.1682 -0.1551 -0.2193
  859POPE   C4A12802  13.072   5.125   7.446 -0.1702  0.0649  0.2359
  859POPE   C1B12803  14.600   5.088   6.698 -0.1061 -0.3045  0.1125
  859POPE   C2B12804  14.577   4.922   7.105  0.0202  0.2187  0.4672
  859POPE   C3B12805  14.764   4.695   7.401  0.2019 -0.1030 -0.0694
  859POPE   C4B12806  15.045   4.386   7.638  0.0579  0.0632 -0.1577
  860POPE   NH312807  14.783   2.066   5.571  0.1628  0.0399  0.0049
  860POPE   PO412808  15.165   1.991   5.800 -0.0235 -0.1659 -0.2446
  860POPE   GL112809  15.012   2.216   6.147  0.1698 -0.0971  0.0364
  860POPE   GL212810  15.326   2.480   6.307  0.0689  0.0481 -0.1801
  860POPE   C1A12811  15.017   2.226   6.641 -0.1590  0.0946 -0.2426
  860POPE   D2A12812  15.347   2.444   6.913  0.1331 -0.0426 -0.1741
  860POPE   C3A12813  15.707   2.425   6.724 -0.1642  0.0634 -0.0051
  860POPE   C4A12814  16.128   2.549   6.606 -0.3714  0.1555  0.2145
  860POPE   C1B12815  15.283   2.768   6.521 -0.1874 -0.2969 -0.0360
  860POPE   C2B12816  15.431   2.985   6.853 -0.0831  0.0643  0.0636
  860POPE   C3B12817  15.533   2.907   7.280  0.2859 -0.2571 -0.0272
  860POPE   C4B12818  15.587   3.167   7.710  0.0626 -0.1196 -0.2172
  861POPE   NH312819   3.801  13.526   5.882  0.0728 -0.0220  0.0870
  861POPE   PO412820   3.581  13.095   5.877 -0.1022  0.1092  0.2896
  861POPE   GL112821   3.377  12.945   6.276 -0.0635  0.2359  0.0499
  861POPE   GL212822   3.673  12.676   6.338  0.0734 -0.1689  0.0237
  861POPE   C1A12823   3.313  12.749   6.645  0.1619  0.0079 -0.1816
  861POPE   D2A12824   3.721  12.508   6.924 -0.0291  0.0555  0.2974
  861POPE   C3A12825   4.093  12.677   7.111 -0.2309 -0.1491 -0.0404
  861POPE   C4A12826   4.436  12.670   7.117  0.0708 -0.0905 -0.0812
  861POPE   C1B12827   3.742  12.950   6.711 -0.0921  0.1576 -0.1471
  861POPE   C2B12828   3.830  13.087   7.182  0.1715  0.2257  0.1093
  861POPE   C3B12829   3.826  13.338   7.520 -0.0245 -0.1039 -0.2150
  861POPE   C4B12830   3.991  13.445   7.860 -0.0375  0.0965 -0.0517
  862POPE   NH312831  16.650   7.843   6.033  0.1644 -0.0334  0.0015
  862POPE   PO412832  16.517   7.732   5.652  0.2519  0.3673  0.2075
  862POPE   GL112833  16.425   7.345   5.922 -0.0755  0.0227 -0.0416
  862POPE   GL212834  16.711   7.373   6.189  0.0726  0.0868 -0.0477
  862POPE   C1A12835  16.198   7.277   6.365 -0.0119 -0.0433  0.2386
  862POPE   D2A12836  15.808   7.132   6.422  0.2380 -0.1520 -0.0005
  862POPE   C3A12837  15.766   6.911   6.754  0.1487  0.1186  0.3763
  862POPE   C4A12838  15.780   6.673   7.133 -0.2337 -0.0343  0.3363
  862POPE   C1B12839  16.626   7.150   6.529  0.1245 -0.1746 -0.0787
  862POPE   C2B12840  16.640   7.231   6.957  0.0711  0.1031 -0.4836
  862POPE   C3B12841  16.411   7.289   7.324  0.1931  0.4022 -0.0975
  862POPE   C4B12842  16.117   7.196   7.610 -0.1118  0.1174  0.1516
  863POPE   NH312843   9.174  13.929   6.128  0.2372 -0.2018 -0.1825
  863POPE   PO412844   9.578  13.789   6.247 -0.0879 -0.1305 -0.0853
  863POPE   GL112845   9.340  13.680   6.648  0.2137  0.1110 -0.1459
  863POPE   GL212846   9.020  13.647   6.583 -0.2254  0.0533  0.1363
  863POPE   C1A12847   9.363  13.407   6.918  0.0241 -0.0103 -0.0100
  863POPE   D2A12848   9.360  13.322   7.344 -0.1222 -0.0456  0.0929
  863POPE   C3A12849   9.558  12.952   7.452  0.3569  0.1580  0.1143
  863POPE   C4A12850   9.804  12.802   7.738 -0.1359  0.1457 -0.0832
  863POPE   C1B12851   8.810  13.421   6.932  0.0464 -0.2974 -0.0867
  863POPE   C2B12852   8.706  13.561   7.279  0.1914 -0.0629  0.1278
  863POPE   C3B12853   8.916  13.264   7.587 -0.2607  0.2359 -0.1098
  863POPE   C4B12854   9.182  12.976   7.933 -0.2246 -0.1975  0.2057
  864POPE   NH312855   5.163   0.317   5.698 -0.1037  0.2040  0.2306
  864POPE   PO412856   5.334   0.035   5.741  0.1148  0.1495 -0.0058
  864POPE   GL112857   5.594  -0.180   6.056  0.1609  0.0563 -0.0912
  864POPE   GL212858   5.788  -0.047   6.292 -0.0088  0.0448  0.1506
  864POPE   C1A12859   5.967  -0.482   6.076  0.0096 -0.0162 -0.1776
  864POPE   D2A12860   6.035  -0.986   6.181  0.0788  0.1326 -0.0525
  864POPE   C3A12861   5.985  -1.001   6.575 -0.0738 -0.3540 -0.2579
  864POPE   C4A12862   5.929  -0.794   6.891  0.0146 -0.0354 -0.1323
  864POPE   C1B12863   5.894  -0.056   6.843  0.1892 -0.0206 -0.4260
  864POPE   C2B12864   5.963   0.119   7.270 -0.0703  0.0208  0.0953
  864POPE   C3B12865   5.841   0.363   7.610 -0.2186  0.3792  0.0796
  864POPE   C4B12866   5.461   0.191   7.733  0.1963 -0.0311 -0.0943
  865POPE   NH312867  16.602   2.744   5.335 -0.0341  0.2128  0.0290
  865POPE   PO412868  16.428   2.540   5.740 -0.4355  0.1159 -0.0299
  865POPE   GL112869  16.445   2.835   6.132  0.1054  0.0729 -0.0936
  865POPE   GL212870  16.663   3.171   6.219  0.1973  0.1101 -0.1815
  865POPE   C1A12871  16.178   3.074   6.338  0.0569  0.0800  0.0572
  865POPE   D2A12872  15.917   3.380   6.683 -0.1949 -0.2483  0.1016
  865POPE   C3A12873  15.851   3.381   7.072  0.2574 -0.1303 -0.0146
  865POPE   C4A12874  16.040   3.430   7.464 -0.2523 -0.0960 -0.0056
  865POPE   C1B12875  16.872   3.417   6.449 -0.1962 -0.1388  0.0788
  865POPE   C2B12876  16.824   3.546   6.838 -0.1125 -0.1189 -0.0217
  865POPE   C3B12877  16.998   3.587   7.183  0.0362  0.3258 -0.1305
  865POPE   C4B12878  17.261   3.707   7.496  0.2040  0.0343  0.0147
  866POPE   NH312879  17.298   2.517   5.208  0.1334 -0.0697 -0.0029
  866POPE   PO412880  16.969   2.571   5.552 -0.2728  0.0437  0.4882
  866POPE   GL112881  16.913   2.525   5.984 -0.1617 -0.0135  0.3454
  866POPE   GL212882  17.031   2.276   6.223  0.0269 -0.1153  0.3548
  866POPE   C1A12883  16.876   2.715   6.392 -0.2845 -0.2319  0.0814
  866POPE   D2A12884  16.537   2.799   6.619  0.2785 -0.2504  0.0844
  866POPE   C3A12885  16.518   2.748   7.032  0.0901 -0.1076 -0.1188
  866POPE   C4A12886  16.507   3.163   7.437 -0.3004 -0.1806 -0.0200
  866POPE   C1B12887  17.313   2.232   6.629 -0.0162 -0.1634  0.1774
  866POPE   C2B12888  17.349   2.131   7.066 -0.1409 -0.2189 -0.0622
  866POPE   C3B12889  17.254   2.151   7.385 -0.0401 -0.5241 -0.2209
  866POPE   C4B12890  17.142   2.089   7.737 -0.0126 -0.0123 -0.2136
  867POPE   NH312891  12.928   3.956   5.758 -0.0671  0.2189  0.0043
  867POPE   PO412892  13.044   3.478   5.651 -0.3959 -0.0097  0.2661
  867POPE   GL112893  13.097   3.617   6.094 -0.0493 -0.0763  0.0745
  867POPE   GL212894  13.429   3.820   5.962 -0.2329 -0.3465 -0.3265
  867POPE   C1A12895  13.272   3.644   6.513 -0.1039 -0.0351  0.1495
  867POPE   D2A12896  13.765   3.578   6.726 -0.0877  0.2562 -0.0271
  867POPE   C3A12897  13.830   3.708   7.052  0.1965 -0.0443  0.1506
  867POPE   C4A12898  14.055   4.014   7.397 -0.0664 -0.1657 -0.3589
  867POPE   C1B12899  13.668   3.870   6.287 -0.0893  0.4126 -0.0686
  867POPE   C2B12900  13.880   4.017   6.651 -0.2582  0.0293  0.1789
  867POPE   C3B12901  13.914   4.211   6.974  0.2170 -0.1183 -0.5295
  867POPE   C4B12902  13.766   4.390   7.273  0.1834 -0.3086  0.0011
  868POPE   NH312903   8.240  17.014   6.142 -0.3147  0.1938  0.0580
  868POPE   PO412904   8.403  16.679   6.447  0.0285 -0.1569 -0.1514
  868POPE   GL112905   8.341  16.882   6.819 -0.0160  0.0560 -0.0974
  868POPE   GL212906   8.090  17.213   6.832 -0.2159  0.1130 -0.1650
  868POPE   C1A12907   8.580  16.793   7.139  0.2533 -0.3017  0.3528
  868POPE   D2A12908   9.018  16.775   7.297 -0.0256  0.1540 -0.4092
  868POPE   C3A12909   9.207  16.799   7.722 -0.0084  0.0929 -0.1998
  868POPE   C4A12910   9.585  16.941   7.882  0.2397 -0.3275 -0.0011
  868POPE   C1B12911   8.192  17.065   7.310 -0.1337  0.2102 -0.2509
  868POPE   C2B12912   8.486  17.028   7.686 -0.0977  0.1238 -0.1917
  868POPE   C3B12913   8.682  17.050   8.107 -0.0970  0.0448  0.2318
  868POPE   C4B12914   9.090  16.860   8.151 -0.0549  0.2226  0.3862
  869POPE   NH312915  16.607  16.458   5.485 -0.1740  0.0606 -0.1115
  869POPE   PO412916  16.283  16.817   5.457 -0.0073  0.0924 -0.1317
  869POPE   GL112917  16.375  16.967   5.764 -0.1999 -0.1371  0.1607
  869POPE   GL212918  16.143  16.910   5.977  0.1199  0.1582  0.1553
  869POPE   C1A12919  16.619  17.138   6.064  0.1531 -0.0264  0.0860
  869POPE   D2A12920  16.604  17.454   6.337 -0.0120  0.1600 -0.1668
  869POPE   C3A12921  16.399  17.677   6.702 -0.1671 -0.0754  0.1439
  869POPE   C4A12922  16.537  17.956   6.965  0.0404 -0.1514 -0.1768
  869POPE   C1B12923  16.173  17.045   6.343  0.2519 -0.0245 -0.0675
  869POPE   C2B12924  16.484  17.173   6.682  0.2385  0.1940  0.1051
  869POPE   C3B12925  16.723  16.961   7.063  0.3239  0.2590  0.0465
  869POPE   C4B12926  16.885  16.889   7.399 -0.0448  0.1481 -0.1330
  870POPE   NH312927  13.117  10.544   6.294  0.0766  0.2550 -0.0744
  870POPE   PO412928  12.749  10.809   6.331  0.1291  0.0403  0.2341
  870POPE   GL112929  12.758  10.752   6.624  0.0419  0.2387 -0.0646
  870POPE   GL212930  12.999  10.660   6.799 -0.0710 -0.1674  0.0642
  870POPE   C1A12931  12.647  10.351   6.919  0.1773 -0.1779 -0.0836
  870POPE   D2A12932  12.629   9.945   7.114  0.2009  0.0791  0.2498
  870POPE   C3A12933  12.272   9.848   7.016  0.0746  0.3121 -0.0851
  870POPE   C4A12934  11.902   9.916   7.084 -0.0719 -0.2859  0.2157
  870POPE   C1B12935  12.917  10.622   7.218  0.0438  0.0523 -0.2639
  870POPE   C2B12936  12.667  10.247   7.458  0.4341 -0.3460  0.1844
  870POPE   C3B12937  12.530  10.038   7.827 -0.0765 -0.0411  0.0659
  870POPE   C4B12938  12.539   9.946   8.236 -0.0106 -0.1114 -0.1543
  871YOPE   NH312939   4.889  14.258   5.762 -0.0750  0.2120  0.1498
  871YOPE   PO412940   4.570  14.530   5.954  0.1060  0.0697 -0.2962
  871YOPE   GL112941   4.789  14.558   6.329  0.3189  0.0167  0.1161
  871YOPE   GL212942   4.829  14.908   6.481 -0.1440  0.3097 -0.2613
  871YOPE   C1A12943   4.673  14.347   6.743 -0.0792 -0.0993 -0.1236
  871YOPE   D2A12944   4.413  13.982   6.808 -0.0967  0.1413  0.2078
  871YOPE   C3A12945   4.100  14.073   7.182 -0.2328 -0.1866 -0.0248
  871YOPE   C4A12946   3.858  14.434   7.209  0.3413 -0.0974  0.0360
  871YOPE   C1B12947   4.797  14.923   6.963  0.0673  0.0747  0.1055
  871YOPE   C2B12948   4.639  14.905   7.419 -0.1535  0.0719  0.1651
  871YOPE   D3B12949   4.368  15.114   7.785  0.1789 -0.4178 -0.1279
  871YOPE   C4B12950   4.035  15.340   7.843 -0.4323  0.1463 -0.0262
  872YOPE   NH312951  14.393  14.251   5.900 -0.2018 -0.0997  0.2461
  872YOPE   PO412952  14.219  13.891   6.068 -0.0964 -0.0952  0.1139
  872YOPE   GL112953  14.334  13.768   6.521 -0.1526  0.0665  0.1199
  872YOPE   GL212954  14.182  13.504   6.620  0.3588 -0.0043  0.2167
  872YOPE   C1A12955  14.636  13.667   6.729 -0.4179  0.1144  0.0391
  872YOPE   D2A12956  14.878  13.541   7.077  0.1201  0.1413 -0.2609
  872YOPE   C3A12957  14.595  13.262   7.350  0.0130  0.0349  0.0457
  872YOPE   C4A12958  14.471  13.077   7.824  0.2924  0.1040  0.0890
  872YOPE   C1B12959  14.481  13.189   6.879 -0.2762 -0.0743 -0.0284
  872YOPE   C2B12960  14.773  12.972   6.990  0.0501 -0.1031  0.2817
  872YOPE   D3B12961  15.235  12.760   6.888  0.0508 -0.1009 -0.0301
  872YOPE   C4B12962  15.406  12.608   6.457  0.3216  0.0846 -0.1485
  873YOPE   NH312963  16.706   0.527   5.759  0.0151 -0.0444  0.0175
  873YOPE   PO412964  16.284   0.384   5.871  0.1298  0.2632 -0.2066
  873YOPE   GL112965  16.274   0.075   6.200 -0.0465 -0.1480 -0.1356
  873YOPE   GL212966  16.240  -0.249   6.208 -0.1571  0.1867 -0.1157
  873YOPE   C1A12967  16.264  -0.143   6.675 -0.1062 -0.1251  0.2575
  873YOPE   D2A12968  16.112  -0.053   7.089 -0.0509  0.1401 -0.0548
  873YOPE   C3A12969  16.091  -0.315   7.353  0.2336  0.0910  0.0550
  873YOPE   C4A12970  15.754  -0.501   7.335  0.0425 -0.4994  0.1419
  873YOPE   C1B12971  16.639  -0.243   6.432  0.2959  0.0325  0.0573
  873YOPE   C2B12972  16.953  -0.145   6.723  0.0281  0.2731  0.0479
  873YOPE   D3B12973  16.997  -0.217   7.185  0.0869  0.0415  0.2294
  873YOPE   C4B12974  16.970  -0.180   7.618 -0.0073  0.2148 -0.2147
  874YOPE   NH312975   6.503   9.209   5.999  0.0973 -0.1009 -0.0883
  874YOPE   PO412976   6.309   8.925   6.263 -0.5740 -0.3142 -0.0266
  874YOPE   GL112977   6.029   8.928   6.617 -0.2636  0.2620  0.2492
  874YOPE   GL212978   6.048   9.208   6.713 -0.4497  0.0231  0.1638
  874YOPE   C1A12979   5.945   8.744   6.998  0.1661  0.0557 -0.0259
  874YOPE   D2A12980   6.099   8.592   7.380 -0.1927  0.3150  0.1158
  874YOPE   C3A12981   5.959   8.634   7.750 -0.1725  0.4858  0.0523
  874YOPE   C4A12982   5.666   8.840   8.007  0.1559  0.1566  0.3597
  874YOPE   C1B12983   6.155   9.294   7.064 -0.4406 -0.2180  0.1504
  874YOPE   C2B12984   6.376   9.242   7.450  0.2065 -0.5795 -0.1087
  874YOPE   D3B12985   6.524   9.264   7.866 -0.0674  0.1465  0.2720
  874YOPE   C4B12986   6.277   9.465   8.260  0.3491 -0.0117 -0.1015
  875YOPE   NH312987  10.745   3.480   5.397 -0.1989 -0.2121 -0.0823
  875YOPE   PO412988  10.467   3.186   5.469 -0.0002 -0.1145 -0.1296
  875YOPE   GL112989  10.469   2.963   5.915 -0.2521  0.2787 -0.1234
  875YOPE   GL212990  10.662   3.029   6.205  0.1884 -0.2450  0.0274
  875YOPE   C1A12991  10.074   2.687   5.976 -0.0211 -0.0579  0.0822
  875YOPE   D2A12992   9.678   2.593   6.019  0.0391 -0.2014  0.0815
  875YOPE   C3A12993   9.530   2.416   6.404 -0.0238  0.1760  0.0802
  875YOPE   C4A12994   9.725   2.161   6.821  0.1584  0.0425  0.2143
  875YOPE   C1B12995  10.419   2.692   6.422  0.0329 -0.1474  0.0387
  875YOPE   C2B12996  10.337   2.530   6.843  0.1289  0.2246 -0.4106
  875YOPE   D3B12997  10.043   2.243   7.210 -0.0939 -0.2324  0.0210
  875YOPE   C4B12998   9.959   1.855   7.497  0.2483  0.0042 -0.1348
  876YOPE   NH312999  17.717  13.054   5.764 -0.1980  0.3038  0.1829
  876YOPE   PO413000  18.055  13.203   6.049 -0.4334  0.2682 -0.2789
  876YOPE   GL113001  18.214  13.527   6.293  0.0503  0.0611  0.0159
  876YOPE   GL213002  17.879  13.381   6.479  0.3747 -0.0960  0.3911
  876YOPE   C1A13003  18.421  13.629   6.721 -0.2425  0.1851  0.4779
  876YOPE   D2A13004  18.741  13.987   6.831 -0.0532  0.1590  0.1117
  876YOPE   C3A13005  18.656  14.202   7.246 -0.1633  0.2250 -0.1613
  876YOPE   C4A13006  18.581  14.482   7.558 -0.3470  0.0391  0.1182
  876YOPE   C1B13007  17.915  13.584   6.760  0.4117 -0.2086  0.1638
  876YOPE   C2B13008  17.559  13.616   6.986 -0.0308  0.0134  0.0266
  876YOPE   D3B13009  17.115  13.757   6.992  0.0486 -0.2448 -0.2128
  876YOPE   C4B13010  16.770  13.731   7.256  0.0597  0.1449 -0.0141
  877YOPE   NH313011  10.591  13.641   6.176 -0.4208  0.1863 -0.0807
  877YOPE   PO413012  11.020  13.775   6.110  0.2522  0.1314  0.0643
  877YOPE   GL113013  11.133  14.066   6.393 -0.0042  0.1407 -0.1049
  877YOPE   GL213014  10.889  14.187   6.462 -0.1505  0.2000  0.1441
  877YOPE   C1A13015  11.383  14.190   6.876 -0.0762 -0.0601 -0.0599
  877YOPE   D2A13016  11.581  14.258   7.285  0.0142  0.1585  0.0829
  877YOPE   C3A13017  11.889  14.539   7.339  0.1633 -0.2909  0.1890
  877YOPE   C4A13018  11.877  14.996   7.517 -0.0106  0.1776  0.2044
  877YOPE   C1B13019  10.859  13.930   6.832 -0.0215 -0.2031 -0.4029
  877YOPE   C2B13020  10.688  13.941   7.202  0.0244  0.2298 -0.1012
  877YOPE   D3B13021  10.270  13.881   7.151  0.0767 -0.1143 -0.0249
  877YOPE   C4B13022   9.950  14.057   7.426  0.0849 -0.2052 -0.0025
  878YOPE   NH313023  17.482  13.300   6.140  0.1191  0.3056  0.3141
  878YOPE   PO413024  17.647  12.864   6.238  0.0382 -0.0880 -0.0372
  878YOPE   GL113025  18.027  12.931   6.434  0.1104  0.1686  0.0421
  878YOPE   GL213026  18.255  12.794   6.372 -0.1305 -0.1006  0.0496
  878YOPE   C1A13027  18.232  13.183   6.706 -0.2866  0.2083 -0.2597
  878YOPE   D2A13028  18.585  13.083   6.870  0.0900 -0.0665 -0.0779
  878YOPE   C3A13029  18.620  13.153   7.348  0.0606  0.0627  0.0613
  878YOPE   C4A13030  18.770  13.009   7.760  0.1591  0.0314  0.1971
  878YOPE   C1B13031  18.613  12.947   6.385 -0.0150 -0.1061  0.1484
  878YOPE   C2B13032  18.986  13.076   6.556 -0.1156 -0.1210  0.0138
  878YOPE   D3B13033  19.324  13.347   6.886 -0.2840  0.0599  0.2053
  878YOPE   C4B13034  19.748  13.562   7.090  0.2690 -0.2413  0.0049
  879YOPE   NH313035   5.440  11.938   5.711  0.1022 -0.2404  0.3121
  879YOPE   PO413036   5.242  12.309   5.881  0.3774 -0.1165 -0.0162
  879YOPE   GL113037   5.416  12.454   6.238 -0.0154 -0.1465 -0.4734
  879YOPE   GL213038   5.293  12.733   6.217 -0.2948 -0.1213 -0.2096
  879YOPE   C1A13039   5.623  12.336   6.627  0.0081  0.1534  0.1695
  879YOPE   D2A13040   5.654  12.079   7.114 -0.4379  0.0940 -0.0188
  879YOPE   C3A13041   5.543  12.239   7.571  0.1852 -0.2598  0.3587
  879YOPE   C4A13042   5.147  12.612   7.682 -0.2552 -0.1931 -0.1939
  879YOPE   C1B13043   5.466  13.077   6.503  0.1305 -0.1641 -0.2075
  879YOPE   C2B13044   5.586  13.337   6.826  0.5396  0.2912  0.3386
  879YOPE   D3B13045   5.638  13.633   7.193 -0.2143 -0.0768  0.0437
  879YOPE   C4B13046   5.748  13.917   7.644  0.0440 -0.0167 -0.0527
  880YOPE   NH313047   3.038   1.454   5.685  0.3626  0.3253 -0.0891
  880YOPE   PO413048   3.238   1.112   5.710  0.0769 -0.0693  0.2681
  880YOPE   GL113049   3.435   1.157   6.115 -0.2086 -0.3931 -0.1263
  880YOPE   GL213050   3.768   1.317   6.165 -0.0629 -0.1304 -0.2469
  880YOPE   C1A13051   3.476   1.028   6.530 -0.2201  0.1585  0.0496
  880YOPE   D2A13052   3.744   1.045   6.923  0.3457 -0.0074  0.0155
  880YOPE   C3A13053   3.706   1.344   7.310  0.1330  0.3912  0.1511
  880YOPE   C4A13054   3.438   1.310   7.614  0.0788 -0.0208 -0.2570
  880YOPE   C1B13055   4.006   1.151   6.520  0.0380  0.0757 -0.1787
  880YOPE   C2B13056   4.295   0.912   6.653  0.2053  0.2860  0.0866
  880YOPE   D3B13057   4.450   0.702   6.986 -0.1842 -0.1531  0.1250
  880YOPE   C4B13058   4.609   0.803   7.413 -0.0650 -0.2727  0.0705
  881YOPE   NH313059  16.185  12.001   5.843 -0.1335 -0.0995  0.0849
  881YOPE   PO413060  16.603  12.292   5.621  0.3013  0.1631  0.0510
  881YOPE   GL113061  16.536  12.384   6.019 -0.0493  0.2716 -0.1363
  881YOPE   GL213062  16.453  12.178   6.246 -0.2438  0.2475 -0.0400
  881YOPE   C1A13063  16.395  12.692   6.325  0.1078 -0.3262 -0.1100
  881YOPE   D2A13064  16.209  12.855   6.752 -0.1121 -0.0113  0.0508
  881YOPE   C3A13065  16.214  13.024   7.113 -0.0688  0.3405  0.0175
  881YOPE   C4A13066  16.535  13.300   7.403 -0.2613 -0.2190 -0.0321
  881YOPE   C1B13067  16.229  12.319   6.658  0.4103 -0.1187  0.0600
  881YOPE   C2B13068  16.291  12.456   7.078 -0.1180 -0.4584 -0.0165
  881YOPE   D3B13069  16.270  12.585   7.380 -0.1501  0.1914 -0.1915
  881YOPE   C4B13070  16.450  12.875   7.736 -0.0914  0.0281  0.0729
  882YOPE   NH313071  15.766   5.520   5.706  0.1467 -0.1796 -0.1450
  882YOPE   PO413072  15.436   5.281   5.663 -0.2582 -0.1845 -0.0287
  882YOPE   GL113073  15.551   5.191   6.072 -0.1840 -0.1485  0.0643
  882YOPE   GL213074  15.419   4.877   5.987  0.0160  0.1247 -0.0887
  882YOPE   C1A13075  15.597   5.383   6.452 -0.1033  0.1803  0.1151
  882YOPE   D2A13076  15.416   5.256   6.756  0.1130 -0.0817  0.3170
  882YOPE   C3A13077  15.512   5.167   7.150 -0.0565  0.1302  0.2072
  882YOPE   C4A13078  15.883   5.157   7.518  0.1339  0.4260 -0.1723
  882YOPE   C1B13079  15.165   4.639   6.286 -0.0814 -0.2761  0.1090
  882YOPE   C2B13080  15.017   4.355   6.533  0.3203 -0.1386  0.2029
  882YOPE   D3B13081  14.901   4.126   6.855 -0.0006 -0.0508 -0.1045
  882YOPE   C4B13082  14.752   4.190   7.269  0.0249  0.1626  0.0386
  883YOPE   NH313083  13.436   5.986   5.862 -0.2749 -0.2284  0.0229
  883YOPE   PO413084  13.247   5.564   5.811 -0.0885  0.0485  0.0527
  883YOPE   GL113085  13.193   5.720   6.253 -0.1631 -0.4293  0.0711
  883YOPE   GL213086  13.153   5.983   6.407 -0.1158  0.2537  0.1100
  883YOPE   C1A13087  12.911   5.652   6.658 -0.4371  0.1440 -0.3236
  883YOPE   D2A13088  12.565   5.780   6.815 -0.4755 -0.0239 -0.1497
  883YOPE   C3A13089  12.244   5.733   7.078  0.1729 -0.4833  0.0657
  883YOPE   C4A13090  11.963   5.935   7.367  0.1464 -0.2998  0.0760
  883YOPE   C1B13091  13.467   5.872   6.856 -0.0287  0.0484  0.0905
  883YOPE   C2B13092  13.586   5.940   7.304  0.1906  0.1235 -0.3306
  883YOPE   D3B13093  13.437   6.062   7.619  0.0800 -0.3337 -0.0088
  883YOPE   C4B13094  13.123   6.337   7.712 -0.0809 -0.1370 -0.1444
  884YOPE   NH313095   2.644  16.026   5.559  0.3091 -0.2548 -0.2046
  884YOPE   PO413096   2.235  15.940   5.737  0.0696  0.0421 -0.1345
  884YOPE   GL113097   2.131  15.866   6.127  0.1268 -0.2234 -0.1325
  884YOPE   GL213098   1.909  15.619   6.229  0.1397 -0.2056 -0.0789
  884YOPE   C1A13099   2.197  15.902   6.537 -0.2455  0.3605  0.0316
  884YOPE   D2A13100   1.873  15.832   6.893 -0.2884 -0.0815  0.2321
  884YOPE   C3A13101   2.030  15.767   7.312 -0.2133  0.1226  0.0459
  884YOPE   C4A13102   1.934  15.883   7.697  0.2215  0.1188 -0.3354
  884YOPE   C1B13103   2.035  15.354   6.531  0.1571  0.1143  0.0019
  884YOPE   C2B13104   1.932  14.992   6.746  0.0858  0.2318  0.1698
  884YOPE   D3B13105   2.260  14.769   7.008 -0.0757 -0.2454  0.1406
  884YOPE   C4B13106   2.474  14.420   7.103  0.1103  0.0904 -0.1746
  885YOPE   NH313107   2.246   7.985   5.963 -0.0617 -0.0080  0.1706
  885YOPE   PO413108   2.632   7.756   5.924 -0.3023  0.0875  0.0410
  885YOPE   GL113109   2.551   7.587   6.387  0.1047  0.0770  0.0010
  885YOPE   GL213110   2.293   7.305   6.527  0.2783 -0.1500 -0.2041
  885YOPE   C1A13111   2.652   7.455   6.863  0.1098  0.1893 -0.0465
  885YOPE   D2A13112   2.572   7.473   7.290  0.2136 -0.1859  0.3863
  885YOPE   C3A13113   2.429   7.147   7.517  0.1930  0.0589  0.4359
  885YOPE   C4A13114   2.637   6.971   7.910 -0.0007  0.0423  0.4969
  885YOPE   C1B13115   2.156   7.042   6.952  0.1561  0.1525  0.2929
  885YOPE   C2B13116   2.101   6.678   7.267 -0.5918 -0.2204  0.5511
  885YOPE   D3B13117   2.283   6.738   7.640  0.1691 -0.0079 -0.1299
  885YOPE   C4B13118   2.423   6.572   8.022 -0.0482  0.0182 -0.0537
  886YOPE   NH313119  12.415  16.596   5.596 -0.0726 -0.0139  0.2031
  886YOPE   PO413120  12.710  16.854   5.686 -0.1268  0.1580  0.1904
  886YOPE   GL113121  12.716  16.557   6.010 -0.0724 -0.2373  0.1308
  886YOPE   GL213122  12.717  16.752   6.279  0.0845  0.0004  0.3262
  886YOPE   C1A13123  12.368  16.462   6.445 -0.2027 -0.0192 -0.0823
  886YOPE   D2A13124  12.359  16.381   6.869  0.1913  0.0100 -0.0651
  886YOPE   C3A13125  12.377  16.563   7.255  0.2328  0.0165  0.2368
  886YOPE   C4A13126  12.369  16.944   7.672  0.1422 -0.1000  0.4230
  886YOPE   C1B13127  12.754  16.709   6.681 -0.0177 -0.1502  0.0986
  886YOPE   C2B13128  12.758  16.818   7.133  0.0981 -0.0596 -0.2564
  886YOPE   D3B13129  12.920  16.849   7.580  0.3508  0.0747  0.0380
  886YOPE   C4B13130  12.998  16.803   8.104 -0.1419  0.0567 -0.2667
  887YOPE   NH313131   5.569   8.399   6.217 -0.0836 -0.1999 -0.5130
  887YOPE   PO413132   5.126   8.154   6.107 -0.0438  0.0700 -0.0891
  887YOPE   GL113133   5.083   8.249   6.463  0.1768 -0.3425 -0.3163
  887YOPE   GL213134   5.142   8.600   6.549  0.1176 -0.1216 -0.0027
  887YOPE   C1A13135   5.172   8.119   6.867 -0.0621 -0.0394 -0.0917
  887YOPE   D2A13136   5.358   7.932   7.113  0.1432 -0.1798 -0.1849
  887YOPE   C3A13137   5.739   8.034   7.148  0.1040  0.3531  0.2838
  887YOPE   C4A13138   5.765   8.192   7.548 -0.1919  0.1010  0.0192
  887YOPE   C1B13139   4.961   8.693   6.869  0.3919 -0.2076  0.0034
  887YOPE   C2B13140   5.032   8.420   7.252 -0.0097 -0.0864  0.1806
  887YOPE   D3B13141   4.809   8.320   7.626  0.1892  0.1876 -0.2302
  887YOPE   C4B13142   4.720   8.195   8.032  0.2128  0.1664  0.1010
  888YOPE   NH313143  13.958   0.416   5.739  0.3569  0.1073 -0.0387
  888YOPE   PO413144  13.604   0.117   5.824  0.1108 -0.3369 -0.2485
  888YOPE   GL113145  13.586   0.252   6.199  0.3638  0.0023 -0.2801
  888YOPE   GL213146  13.826   0.380   6.279  0.3082 -0.1776  0.2294
  888YOPE   C1A13147  13.340   0.430   6.506 -0.0073 -0.1800 -0.1083
  888YOPE   D2A13148  13.003   0.375   6.859 -0.3103 -0.0843  0.0281
  888YOPE   C3A13149  13.111   0.178   7.251 -0.0535  0.3108  0.0510
  888YOPE   C4A13150  13.058   0.377   7.651 -0.0252 -0.0965 -0.1903
  888YOPE   C1B13151  13.803   0.516   6.644  0.1953  0.0558  0.0921
  888YOPE   C2B13152  13.981   0.363   7.038  0.1715 -0.3102  0.1919
  888YOPE   D3B13153  13.980   0.083   7.354 -0.0744  0.1758  0.3698
  888YOPE   C4B13154  14.199  -0.085   7.691 -0.3415  0.3602 -0.4313
  889YOPE   NH313155   0.718  12.192   5.790 -0.2534 -0.0986 -0.2663
  889YOPE   PO413156   0.523  12.638   5.647  0.1776  0.1503  0.3094
  889YOPE   GL113157   0.606  12.611   6.083 -0.0097 -0.2125 -0.0053
  889YOPE   GL213158   0.881  12.676   6.084  0.3527 -0.2181  0.2141
  889YOPE   C1A13159   0.521  12.460   6.449 -0.2409  0.0208  0.2429
  889YOPE   D2A13160   0.477  12.150   6.782  0.5079  0.1307  0.1163
  889YOPE   C3A13161   0.349  12.225   7.165  0.2662  0.1118 -0.0859
  889YOPE   C4A13162   0.099  11.877   7.367  0.2529  0.2537 -0.0853
  889YOPE   C1B13163   1.106  12.863   6.332 -0.1546 -0.0804  0.0178
  889YOPE   C2B13164   1.028  12.841   6.830 -0.0825  0.1660  0.2035
  889YOPE   D3B13165   0.851  12.990   7.176 -0.1421 -0.2726  0.1711
  889YOPE   C4B13166   0.771  13.303   7.379 -0.0125  0.0048  0.2042
  890YOPE   NH313167   6.238  12.586   5.798  0.2581  0.1446  0.1684
  890YOPE   PO413168   6.205  13.023   5.621  0.0087  0.1403 -0.3699
  890YOPE   GL113169   6.125  13.061   6.127  0.0045 -0.1085  0.0378
  890YOPE   GL213170   5.886  13.213   6.121 -0.1748 -0.0634  0.0424
  890YOPE   C1A13171   6.237  13.149   6.552  0.1233  0.0697  0.0218
  890YOPE   D2A13172   6.365  13.036   6.952  0.1477 -0.0129 -0.1359
  890YOPE   C3A13173   6.222  13.218   7.224 -0.2069  0.0127  0.0005
  890YOPE   C4A13174   6.084  13.623   7.388  0.1680  0.2204 -0.0076
  890YOPE   C1B13175   5.744  13.561   6.438 -0.0466 -0.0795 -0.0426
  890YOPE   C2B13176   5.562  13.928   6.495  0.1044  0.0013 -0.0859
  890YOPE   D3B13177   5.422  14.219   6.744 -0.2048  0.1068 -0.0489
  890YOPE   C4B13178   5.135  14.548   6.739  0.0151  0.0483 -0.2354
  891YOPE   NH313179   6.407   1.833   5.705 -0.1033 -0.0152 -0.1761
  891YOPE   PO413180   5.970   1.563   5.679  0.0239  0.1701 -0.1376
  891YOPE   GL113181   6.132   1.772   6.115 -0.0636  0.1176 -0.0576
  891YOPE   GL213182   6.335   1.568   6.250  0.2483 -0.1968  0.0507
  891YOPE   C1A13183   5.696   1.880   6.372  0.1088 -0.1227  0.2030
  891YOPE   D2A13184   5.677   1.932   6.804  0.1971  0.2313  0.0285
  891YOPE   C3A13185   5.650   1.662   7.137 -0.2376  0.2528 -0.1129
  891YOPE   C4A13186   5.657   1.319   7.403  0.0289 -0.1796 -0.0813
  891YOPE   C1B13187   6.001   1.527   6.508 -0.0434 -0.0689  0.1649
  891YOPE   C2B13188   5.954   1.324   6.892  0.2756  0.0656 -0.1673
  891YOPE   D3B13189   6.180   1.198   7.269 -0.3651  0.1225  0.1554
  891YOPE   C4B13190   6.676   1.213   7.419 -0.0674  0.0677 -0.0030
  892YOPE   NH313191  15.927  17.149   5.622  0.1625  0.0145  0.2182
  892YOPE   PO413192  15.778  17.479   5.651  0.2440 -0.0052 -0.0826
  892YOPE   GL113193  15.826  17.483   6.005  0.1308 -0.2655  0.2254
  892YOPE   GL213194  15.923  17.826   5.949  0.1424 -0.3696  0.3092
  892YOPE   C1A13195  15.566  17.573   6.430  0.1078  0.1741  0.2012
  892YOPE   D2A13196  15.504  17.412   6.849  0.2078 -0.0919  0.0953
  892YOPE   C3A13197  15.747  17.348   7.173 -0.1958  0.2007 -0.3623
  892YOPE   C4A13198  15.967  17.115   7.550  0.1580 -0.3050  0.3495
  892YOPE   C1B13199  16.121  17.549   6.336  0.1761  0.1516 -0.1267
  892YOPE   C2B13200  16.012  17.382   6.695  0.1469 -0.0607 -0.0027
  892YOPE   D3B13201  16.157  17.024   6.996  0.1033 -0.2357 -0.0633
  892YOPE   C4B13202  16.287  16.802   7.268 -0.0961 -0.0863 -0.2410
  893YOPE   NH313203  15.393  16.382   5.513 -0.0272  0.1853  0.2279
  893YOPE   PO413204  15.199  16.164   5.765  0.2909  0.2853  0.1125
  893YOPE   GL113205  15.112  16.134   6.132  0.0511 -0.0520 -0.2805
  893YOPE   GL213206  14.871  16.005   6.175  0.3419  0.1577 -0.1689
  893YOPE   C1A13207  15.172  16.377   6.546  0.1183  0.0176 -0.0962
  893YOPE   D2A13208  15.320  16.361   6.954 -0.2407  0.0610 -0.2137
  893YOPE   C3A13209  15.101  16.103   7.286 -0.2164 -0.0483 -0.0747
  893YOPE   C4A13210  14.758  15.984   7.462 -0.2425 -0.3835 -0.2250
  893YOPE   C1B13211  14.832  15.747   6.636 -0.0201  0.2815 -0.0058
  893YOPE   C2B13212  14.873  15.755   7.053  0.0211  0.0336 -0.2670
  893YOPE   D3B13213  15.127  15.616   7.465 -0.1706 -0.0949  0.2903
  893YOPE   C4B13214  14.955  15.589   7.909  0.2261 -0.2050  0.4297
  894YOPE   NH313215   3.477  15.943   5.736  0.2620 -0.0193 -0.0732
  894YOPE   PO413216   3.811  15.671   5.730  0.3187 -0.2346 -0.2931
  894YOPE   GL113217   3.661  15.722   6.145 -0.0520  0.0485 -0.1786
  894YOPE   GL213218   3.942  15.604   6.405 -0.1514  0.0434  0.1831
  894YOPE   C1A13219   3.756  16.061   6.432 -0.0337  0.0057  0.2476
  894YOPE   D2A13220   3.977  16.346   6.779  0.2386 -0.0650 -0.0439
  894YOPE   C3A13221   3.803  16.426   7.253  0.1459 -0.0472  0.0669
  894YOPE   C4A13222   3.772  16.728   7.574  0.3331 -0.3209 -0.1911
  894YOPE   C1B13223   4.060  15.855   6.864  0.3610 -0.2103  0.1790
  894YOPE   C2B13224   4.143  15.946   7.213 -0.4813 -0.2586  0.0830
  894YOPE   D3B13225   3.970  15.793   7.581  0.1436 -0.3944  0.2032
  894YOPE   C4B13226   3.913  15.868   8.061 -0.0413  0.0842  0.2395
  895YOPE   NH313227  15.782   1.894   5.816  0.0715  0.0135  0.2096
  895YOPE   PO413228  16.211   1.771   5.895  0.3153  0.2541  0.0580
  895YOPE   GL113229  16.368   1.775   6.259 -0.1300 -0.2432  0.1985
  895YOPE   GL213230  16.172   1.915   6.391  0.0418 -0.2272 -0.2014
  895YOPE   C1A13231  16.409   1.733   6.774 -0.0130 -0.1126  0.1891
  895YOPE   D2A13232  16.376   1.691   7.147  0.1920  0.0919  0.0576
  895YOPE   C3A13233  16.670   1.360   7.329 -0.0022 -0.2659  0.0203
  895YOPE   C4A13234  16.581   0.916   7.480  0.0748  0.0684 -0.1975
  895YOPE   C1B13235  15.997   2.052   6.690  0.0739 -0.0843  0.0584
  895YOPE   C2B13236  16.177   2.212   6.919 -0.0526  0.0601 -0.0943
  895YOPE   D3B13237  16.360   2.336   7.245 -0.2070 -0.0598 -0.1840
  895YOPE   C4B13238  16.628   2.115   7.548 -0.2362  0.1892 -0.1613
  896YOPE   NH313239  13.162  17.149   5.638  0.5502 -0.2597 -0.1677
  896YOPE   PO413240  13.233  16.714   5.745  0.0108  0.0643  0.2062
  896YOPE   GL113241  13.294  16.914   6.162 -0.3553 -0.0797 -0.0771
  896YOPE   GL213242  13.220  16.691   6.418 -0.2565  0.5486  0.1387
  896YOPE   C1A13243  13.412  17.242   6.547  0.2270 -0.0213  0.0607
  896YOPE   D2A13244  13.687  17.418   6.974  0.0341  0.0084  0.2444
  896YOPE   C3A13245  13.397  17.610   7.290  0.0992 -0.2370  0.0095
  896YOPE   C4A13246  13.483  17.720   7.657  0.3669 -0.3719  0.0367
  896YOPE   C1B13247  13.224  16.807   6.850  0.1516  0.0634 -0.1001
  896YOPE   C2B13248  13.243  17.164   7.109 -0.0117 -0.1887 -0.2710
  896YOPE   D3B13249  13.126  17.325   7.571  0.0388 -0.1139  0.4295
  896YOPE   C4B13250  13.024  17.393   7.999  0.0565 -0.2124  0.2295
  897YOPE   NH313251  13.528  13.451   6.070 -0.1659 -0.0003  0.0100
  897YOPE   PO413252  13.395  13.891   5.978 -0.0712 -0.0362  0.1512
  897YOPE   GL113253  13.483  13.862   6.370  0.0367 -0.0491 -0.1239
  897YOPE   GL213254  13.790  13.807   6.429  0.2462  0.0742 -0.0766
  897YOPE   C1A13255  13.408  13.961   6.792  0.4625  0.0595 -0.1858
  897YOPE   D2A13256  13.425  13.721   7.152  0.1185  0.1555  0.2523
  897YOPE   C3A13257  13.716  13.650   7.403 -0.1465  0.1078  0.1731
  897YOPE   C4A13258  13.991  13.616   7.777 -0.1527 -0.1017  0.1486
  897YOPE   C1B13259  13.989  13.976   6.804 -0.1771 -0.2239 -0.0726
  897YOPE   C2B13260  13.964  14.002   7.152  0.0473 -0.1876 -0.0493
  897YOPE   D3B13261  14.181  14.006   7.530 -0.2587 -0.3809  0.1326
  897YOPE   C4B13262  14.386  13.901   7.932 -0.0313  0.2048  0.0564
  898YOPE   NH313263  14.830   1.667   5.958  0.5370 -0.2880 -0.3168
  898YOPE   PO413264  14.980   1.342   6.153  0.0688 -0.3968  0.1136
  898YOPE   GL113265  15.099   1.486   6.530 -0.2256  0.2574  0.1068
  898YOPE   GL213266  15.037   1.790   6.400 -0.1470  0.0223  0.2339
  898YOPE   C1A13267  15.040   1.426   7.041 -0.1689 -0.0129  0.2324
  898YOPE   D2A13268  14.722   1.523   7.322 -0.1526 -0.1172 -0.0003
  898YOPE   C3A13269  14.563   1.486   7.693 -0.0135  0.1371 -0.0540
  898YOPE   C4A13270  14.121   1.510   7.758 -0.2763  0.0333 -0.2160
  898YOPE   C1B13271  14.776   1.802   6.747  0.1703  0.2590 -0.0011
  898YOPE   C2B13272  14.826   1.961   7.168  0.1101  0.0309  0.1756
  898YOPE   D3B13273  14.967   2.325   7.262  0.1653  0.0168 -0.2928
  898YOPE   C4B13274  15.364   2.460   7.422 -0.1802 -0.0146  0.1163
  899YOPE   NH313275   4.771  17.299   5.437  0.0523 -0.2350  0.0678
  899YOPE   PO413276   5.179  17.472   5.469 -0.1141  0.0921  0.1674
  899YOPE   GL113277   5.117  17.378   5.839 -0.3040 -0.0346  0.4054
  899YOPE   GL213278   4.799  17.310   5.973 -0.1136 -0.0639 -0.1301
  899YOPE   C1A13279   5.100  17.568   6.287  0.2973 -0.1819  0.3267
  899YOPE   D2A13280   5.074  17.681   6.683  0.0482  0.0709  0.0782
  899YOPE   C3A13281   4.712  17.541   7.003 -0.1088 -0.0300 -0.1675
  899YOPE   C4A13282   4.534  17.685   7.392 -0.1218 -0.1222 -0.0965
  899YOPE   C1B13283   4.649  17.526   6.455  0.1369 -0.1910 -0.1206
  899YOPE   C2B13284   4.416  17.849   6.501  0.2275  0.0619 -0.0619
  899YOPE   D3B13285   4.394  17.979   6.875 -0.2711  0.3627  0.0041
  899YOPE   C4B13286   4.502  18.142   7.219 -0.0946  0.3077 -0.1626
  900YOPE   NH313287   7.498  12.523   6.269 -0.0470 -0.3237  0.2931
  900YOPE   PO413288   7.419  13.004   6.222 -0.0093 -0.0787  0.2010
  900YOPE   GL113289   7.575  13.198   6.590  0.1367  0.3602  0.2554
  900YOPE   GL213290   7.430  12.848   6.718  0.1776  0.2349  0.0805
  900YOPE   C1A13291   7.557  13.317   7.040 -0.1968 -0.2183 -0.1464
  900YOPE   D2A13292   7.665  13.394   7.363  0.1772  0.1978 -0.2309
  900YOPE   C3A13293   7.543  13.585   7.792 -0.0273 -0.1023 -0.2034
  900YOPE   C4A13294   7.563  13.576   8.138  0.0929  0.0564  0.0802
  900YOPE   C1B13295   7.561  12.755   7.107 -0.0663  0.2516  0.1657
  900YOPE   C2B13296   7.504  12.809   7.568  0.0446 -0.0665  0.1398
  900YOPE   D3B13297   7.362  12.639   8.029  0.2440 -0.3336 -0.0299
  900YOPE   C4B13298   7.262  12.279   8.315  0.2125  0.3018  0.0971
  901YOPE   NH313299  10.728   2.324   5.270  0.1449 -0.1809  0.3164
  901YOPE   PO413300  10.432   2.130   5.444  0.0920 -0.1434 -0.2125
  901YOPE   GL113301  10.112   1.978   5.774 -0.1173 -0.0000 -0.2413
  901YOPE   GL213302  10.169   1.827   5.980 -0.0974 -0.4329 -0.2579
  901YOPE   C1A13303   9.944   2.179   6.197  0.0468  0.1211  0.2084
  901YOPE   D2A13304  10.010   2.468   6.429 -0.1132 -0.2290  0.1946
  901YOPE   C3A13305   9.819   2.649   6.877  0.1144  0.2018 -0.1673
  901YOPE   C4A13306   9.845   2.782   7.271 -0.2669 -0.2247 -0.0275
  901YOPE   C1B13307  10.240   1.765   6.321 -0.1475 -0.1037  0.4298
  901YOPE   C2B13308  10.439   1.579   6.692  0.1586 -0.1396 -0.0890
  901YOPE   D3B13309  10.363   1.289   7.022 -0.0522 -0.2824 -0.1161
  901YOPE   C4B13310  10.626   1.228   7.416  0.1559 -0.1781  0.5286
  902YOPE   NH313311  11.189   9.243   6.169  0.0341  0.4432 -0.3687
  902YOPE   PO413312  10.952   9.468   5.889 -0.1648  0.0153  0.2401
  902YOPE   GL113313  10.813   9.561   6.367  0.0999 -0.0240 -0.1011
  902YOPE   GL213314  11.122   9.576   6.561 -0.0997 -0.4584  0.2263
  902YOPE   C1A13315  10.783   9.973   6.683 -0.0187 -0.4833 -0.1973
  902YOPE   D2A13316  10.883  10.082   7.107  0.2842  0.2834  0.1609
  902YOPE   C3A13317  10.648   9.971   7.515  0.0686 -0.1381 -0.2111
  902YOPE   C4A13318  10.549   9.564   7.620 -0.0142  0.0190 -0.0842
  902YOPE   C1B13319  11.194   9.680   7.002 -0.2173  0.0263  0.1358
  902YOPE   C2B13320  10.991   9.635   7.355  0.1113 -0.0538  0.0680
  902YOPE   D3B13321  11.003   9.376   7.729  0.1024 -0.3118 -0.2711
  902YOPE   C4B13322  11.232   9.194   7.937 -0.2076  0.0055 -0.1487
  903YOPE   NH313323   9.089  10.011   5.923 -0.0495  0.2129  0.1909
  903YOPE   PO413324   9.127  10.359   5.986 -0.0149  0.2626 -0.0033
  903YOPE   GL113325   9.089  10.463   6.358 -0.2870  0.0514 -0.1589
  903YOPE   GL213326   8.913  10.591   6.625  0.3341 -0.2744  0.0455
  903YOPE   C1A13327   8.986  10.117   6.594 -0.0526 -0.0133  0.1207
  903YOPE   D2A13328   9.124   9.985   6.980 -0.1199  0.0968 -0.1609
  903YOPE   C3A13329   9.530   9.843   7.019  0.1361 -0.1098 -0.1227
  903YOPE   C4A13330   9.893   9.672   6.972  0.1822  0.1663 -0.1210
  903YOPE   C1B13331   8.979  10.498   6.996  0.2504 -0.0205 -0.0422
  903YOPE   C2B13332   8.935  10.280   7.364 -0.0618  0.0608  0.1650
  903YOPE   D3B13333   8.757   9.904   7.417  0.1610  0.0210 -0.1905
  903YOPE   C4B13334   8.718   9.501   7.574  0.2087  0.1357  0.3559
  904YOPE   NH313335  12.048   1.795   5.564 -0.2843  0.3966  0.0720
  904YOPE   PO413336  12.097   1.978   5.956 -0.0437 -0.0677 -0.1551
  904YOPE   GL113337  11.758   1.710   6.072 -0.2376 -0.2894 -0.0124
  904YOPE   GL213338  11.483   1.625   5.939 -0.0608 -0.0003 -0.1177
  904YOPE   C1A13339  11.732   1.714   6.462  0.0060  0.2477  0.0496
  904YOPE   D2A13340  11.718   1.719   6.914 -0.1644 -0.1521 -0.0958
  904YOPE   C3A13341  11.362   1.876   7.230 -0.1703  0.2147  0.0711
  904YOPE   C4A13342  10.969   2.124   7.322  0.1143  0.0147  0.3240
  904YOPE   C1B13343  11.400   1.384   6.311  0.0672 -0.0701  0.1000
  904YOPE   C2B13344  11.406   1.380   6.807 -0.2129 -0.0486 -0.1988
  904YOPE   D3B13345  11.745   1.326   7.177  0.3748 -0.0033  0.2176
  904YOPE   C4B13346  12.042   1.408   7.476  0.2890  0.0617  0.1523
  905YOPE   NH313347   6.025  10.605   6.177  0.0426 -0.1323  0.0030
  905YOPE   PO413348   5.944  10.338   6.480  0.4741  0.0785  0.3952
  905YOPE   GL113349   6.136  10.719   6.681  0.0311 -0.2658  0.1301
  905YOPE   GL213350   5.974  11.066   6.534  0.0463  0.1636  0.1794
  905YOPE   C1A13351   6.215  10.964   6.974  0.3033 -0.0019  0.0036
  905YOPE   D2A13352   6.001  11.232   7.291  0.0238  0.3109 -0.2025
  905YOPE   C3A13353   5.888  11.154   7.844 -0.1008 -0.0679  0.1047
  905YOPE   C4A13354   6.127  11.417   8.122  0.0630  0.1363 -0.2574
  905YOPE   C1B13355   5.699  10.909   6.876  0.1756 -0.1748 -0.2515
  905YOPE   C2B13356   5.526  11.041   7.225  0.0279 -0.0736  0.0721
  905YOPE   D3B13357   5.547  10.856   7.580 -0.0060  0.2189 -0.1113
  905YOPE   C4B13358   5.304  10.641   7.874  0.3627  0.1416 -0.2244
  906YOPE   NH313359   6.142   4.862   5.584 -0.1271  0.1948  0.3807
  906YOPE   PO413360   6.173   5.030   6.051  0.0453  0.1509  0.3040
  906YOPE   GL113361   6.094   4.752   6.360 -0.1172 -0.1385  0.3116
  906YOPE   GL213362   5.747   4.526   6.369 -0.2338 -0.0390 -0.0759
  906YOPE   C1A13363   6.126   4.846   6.782 -0.1337  0.2386 -0.2936
  906YOPE   D2A13364   6.318   5.110   6.997 -0.1275 -0.2114  0.0018
  906YOPE   C3A13365   6.512   5.075   7.262 -0.1727  0.1753 -0.2204
  906YOPE   C4A13366   6.859   4.871   7.503  0.0442  0.0589 -0.0931
  906YOPE   C1B13367   5.582   4.561   6.802 -0.1037  0.2276 -0.0261
  906YOPE   C2B13368   5.672   4.528   7.173  0.4031  0.1049  0.0193
  906YOPE   D3B13369   5.682   4.584   7.604  0.2188 -0.0421  0.1769
  906YOPE   C4B13370   5.771   4.777   8.021  0.2038 -0.3641  0.1428
  907YOPE   NH313371  11.455  12.458   6.070 -0.0098 -0.1507  0.3910
  907YOPE   PO413372  11.801  12.409   6.241  0.1400 -0.1438 -0.1325
  907YOPE   GL113373  11.941  12.353   6.611 -0.3062  0.2294  0.6774
  907YOPE   GL213374  12.132  12.018   6.672 -0.1972 -0.1960 -0.0750
  907YOPE   C1A13375  11.777  12.334   6.973 -0.0557 -0.0029 -0.4533
  907YOPE   D2A13376  11.580  12.291   7.387 -0.1296 -0.2795 -0.0550
  907YOPE   C3A13377  11.729  12.462   7.832  0.1563 -0.0272  0.2515
  907YOPE   C4A13378  11.858  12.690   8.022 -0.1396  0.1330  0.0774
  907YOPE   C1B13379  12.227  12.161   7.037  0.0023 -0.1659 -0.0351
  907YOPE   C2B13380  12.070  12.423   7.386 -0.0411 -0.0269  0.2019
  907YOPE   D3B13381  12.273  12.702   7.716  0.0833  0.0808 -0.3792
  907YOPE   C4B13382  12.367  12.752   8.076 -0.2866 -0.0202  0.1524
  908YOPE   NH313383   5.760   9.275   6.350  0.0711 -0.2102 -0.0020
  908YOPE   PO413384   5.527   8.864   6.448 -0.1250 -0.0870  0.3027
  908YOPE   GL113385   5.587   9.064   6.831 -0.0720  0.1026 -0.1012
  908YOPE   GL213386   5.273   9.044   6.881  0.0024 -0.3682  0.0769
  908YOPE   C1A13387   5.795   9.139   7.375 -0.1338  0.4508 -0.1171
  908YOPE   D2A13388   5.975   9.264   7.784 -0.1900  0.3656  0.0758
  908YOPE   C3A13389   6.123   9.011   8.065  0.2010  0.0043  0.1233
  908YOPE   C4A13390   6.426   8.716   8.057  0.0528 -0.0133 -0.0125
  908YOPE   C1B13391   4.910   9.111   7.142  0.2066  0.0552 -0.4616
  908YOPE   C2B13392   4.803   8.892   7.412 -0.0321  0.2009  0.0632
  908YOPE   D3B13393   4.923   8.748   7.786 -0.1441 -0.0826  0.1173
  908YOPE   C4B13394   5.121   8.714   8.110 -0.1858  0.1253  0.0660
  909YOPE   NH313395   6.845   0.501   5.626  0.0943 -0.1014  0.1284
  909YOPE   PO413396   6.534   0.154   5.765 -0.1099 -0.1159 -0.0871
  909YOPE   GL113397   6.834   0.020   6.088  0.1561  0.2112 -0.1490
  909YOPE   GL213398   6.968  -0.322   6.049  0.0633 -0.2254  0.0647
  909YOPE   C1A13399   6.918  -0.104   6.561  0.2453 -0.0291 -0.3718
  909YOPE   D2A13400   6.700  -0.428   6.743  0.4709  0.1013 -0.1655
  909YOPE   C3A13401   6.754  -0.449   7.169 -0.0585  0.2940 -0.1073
  909YOPE   C4A13402   7.043  -0.476   7.540 -0.0694  0.1597 -0.0197
  909YOPE   C1B13403   7.007  -0.769   6.195  0.3205 -0.2920 -0.0861
  909YOPE   C2B13404   6.922  -1.123   6.497  0.0234  0.0514  0.0233
  909YOPE   D3B13405   6.865  -1.332   6.942 -0.1579 -0.0444 -0.2476
  909YOPE   C4B13406   7.184  -1.453   7.186  0.2673 -0.1801 -0.0513
  910YOPE   NH313407   7.583   4.698   5.558 -0.0197  0.0845  0.0044
  910YOPE   PO413408   7.766   4.406   5.874  0.0902  0.0018 -0.0478
  910YOPE   GL113409   7.767   4.422   6.265  0.1587  0.1561  0.0209
  910YOPE   GL213410   7.418   4.426   6.304 -0.1112 -0.0787  0.1493
  910YOPE   C1A13411   7.817   4.607   6.760 -0.1390 -0.0935 -0.3044
  910YOPE   D2A13412   7.824   4.504   7.175  0.1625 -0.0538 -0.2839
  910YOPE   C3A13413   8.058   4.708   7.409 -0.4562  0.0272 -0.2238
  910YOPE   C4A13414   8.118   4.770   7.854  0.1748  0.4215 -0.0792
  910YOPE   C1B13415   7.025   4.451   6.627  0.1924  0.0392 -0.2209
  910YOPE   C2B13416   6.679   4.355   6.869 -0.0501  0.2387 -0.1839
  910YOPE   D3B13417   6.459   4.491   7.168 -0.1530 -0.0803  0.0981
  910YOPE   C4B13418   6.111   4.679   7.263 -0.3524 -0.0070  0.1625
  911YOPE   NH313419   8.632   0.872   5.264  0.0116 -0.2381  0.0768
  911YOPE   PO413420   8.344   0.792   5.575 -0.1273 -0.0426 -0.0832
  911YOPE   GL113421   8.334   0.566   6.021 -0.0849 -0.2731  0.1147
  911YOPE   GL213422   8.178   0.634   6.184 -0.2976 -0.1078 -0.1925
  911YOPE   C1A13423   8.556   0.282   6.327 -0.0863 -0.0747 -0.2455
  911YOPE   D2A13424   8.593   0.295   6.758 -0.1575  0.1014 -0.0606
  911YOPE   C3A13425   8.260   0.505   6.946 -0.2542 -0.0042  0.1172
  911YOPE   C4A13426   8.194   0.771   7.307 -0.2019  0.1647  0.0474
  911YOPE   C1B13427   8.364   0.761   6.507 -0.1732  0.0142 -0.3247
  911YOPE   C2B13428   8.624   0.882   6.798 -0.5311 -0.3080  0.0904
  911YOPE   D3B13429   8.686   0.718   7.186  0.0407  0.2490  0.0336
  911YOPE   C4B13430   8.557   0.466   7.537 -0.1281  0.0773 -0.1119
  912YOPE   NH313431   1.385   4.841   5.612  0.2310 -0.1772  0.0041
  912YOPE   PO413432   1.759   4.573   5.694 -0.0459 -0.0628 -0.0721
  912YOPE   GL113433   1.449   4.581   6.037  0.2745 -0.0488 -0.0327
  912YOPE   GL213434   1.233   4.725   6.105  0.1507  0.3033  0.1864
  912YOPE   C1A13435   1.583   4.454   6.438 -0.1169 -0.2462  0.0354
  912YOPE   D2A13436   1.637   4.160   6.779  0.0740  0.0706 -0.3894
  912YOPE   C3A13437   1.975   3.996   7.042 -0.0260  0.0987 -0.3690
  912YOPE   C4A13438   2.068   4.036   7.444 -0.3675 -0.1764 -0.0329
  912YOPE   C1B13439   1.246   4.874   6.482  0.0546 -0.1413 -0.1674
  912YOPE   C2B13440   1.391   4.620   6.891 -0.0943 -0.0991 -0.0421
  912YOPE   D3B13441   1.270   4.599   7.343 -0.0362  0.0573  0.0295
  912YOPE   C4B13442   1.408   4.647   7.727 -0.3017  0.0459  0.0269
  913YOPE   NH313443   5.759  16.193   5.704  0.0216 -0.2262 -0.3295
  913YOPE   PO413444   5.490  16.544   5.594  0.0172 -0.2189  0.0275
  913YOPE   GL113445   5.448  16.660   5.956 -0.0596  0.0814 -0.0890
  913YOPE   GL213446   5.214  16.699   6.017 -0.0322  0.1930 -0.4388
  913YOPE   C1A13447   5.422  16.531   6.471  0.0711  0.2213  0.1347
  913YOPE   D2A13448   5.307  16.721   6.857  0.2193 -0.1665  0.0712
  913YOPE   C3A13449   5.168  16.763   7.296  0.0386  0.4210 -0.0735
  913YOPE   C4A13450   5.122  17.029   7.659  0.2330 -0.2100 -0.0865
  913YOPE   C1B13451   5.395  17.075   6.145  0.0013 -0.0795  0.0466
  913YOPE   C2B13452   5.430  17.208   6.572 -0.2945 -0.3100  0.3616
  913YOPE   D3B13453   5.687  17.060   6.946  0.2650  0.1043 -0.0014
  913YOPE   C4B13454   5.664  16.807   7.261  0.3534 -0.0033 -0.2373
  914YOPE   NH313455  12.270  12.241   6.197  0.2713 -0.0141  0.1274
  914YOPE   PO413456  12.645  12.164   6.322  0.1572 -0.0693 -0.1941
  914YOPE   GL113457  12.499  12.372   6.662 -0.1356  0.1038  0.2550
  914YOPE   GL213458  12.724  12.365   6.958  0.0079  0.2743  0.2522
  914YOPE   C1A13459  12.286  12.646   6.985 -0.2697 -0.1917 -0.0090
  914YOPE   D2A13460  12.207  12.946   7.279 -0.0496 -0.0120  0.1035
  914YOPE   C3A13461  12.072  13.234   6.940 -0.0303 -0.3358 -0.0318
  914YOPE   C4A13462  12.016  13.449   6.656 -0.0913 -0.1931 -0.1290
  914YOPE   C1B13463  12.626  12.607   7.388  0.3125 -0.2064  0.1694
  914YOPE   C2B13464  12.566  13.072   7.639 -0.1481 -0.1278  0.2409
  914YOPE   D3B13465  12.570  13.459   7.950  0.0250  0.0587 -0.1857
  914YOPE   C4B13466  12.450  13.865   8.040 -0.2584 -0.0822 -0.1037
  915YOPE   NH313467  13.819  12.020   5.812  0.1731  0.1826  0.0751
  915YOPE   PO413468  14.217  12.038   5.789 -0.3269  0.1083  0.1410
  915YOPE   GL113469  14.258  11.749   6.211 -0.1240 -0.0748  0.2617
  915YOPE   GL213470  14.390  11.663   6.481 -0.1119  0.0266  0.1358
  915YOPE   C1A13471  13.949  11.604   6.505  0.1148  0.0756 -0.0531
  915YOPE   D2A13472  13.744  11.629   6.894 -0.3009  0.3736  0.3704
  915YOPE   C3A13473  13.639  11.764   7.304 -0.2944  0.1588 -0.1007
  915YOPE   C4A13474  13.672  12.117   7.539 -0.3026  0.0514 -0.0398
  915YOPE   C1B13475  14.449  11.601   6.973 -0.1364  0.1820  0.0735
  915YOPE   C2B13476  14.366  11.548   7.418 -0.2297 -0.1464  0.3822
  915YOPE   D3B13477  14.508  11.652   7.849  0.1017  0.0095  0.1756
  915YOPE   C4B13478  14.358  11.830   8.313 -0.0322 -0.0327  0.0015
  916YOPE   NH313479  13.099  16.240   6.016  0.0338  0.0673  0.0373
  916YOPE   PO413480  13.077  15.758   6.121  0.1543 -0.2324  0.0724
  916YOPE   GL113481  13.412  15.694   6.483 -0.2370 -0.0293 -0.1455
  916YOPE   GL213482  13.275  16.044   6.470  0.3279  0.1515 -0.2903
  916YOPE   C1A13483  13.508  15.480   6.865 -0.2450  0.1024  0.1811
  916YOPE   D2A13484  13.523  15.452   7.285 -0.2750 -0.1079 -0.0157
  916YOPE   C3A13485  13.819  15.687   7.577 -0.0834  0.0078  0.0755
  916YOPE   C4A13486  13.975  15.783   8.011 -0.4028 -0.2799 -0.1333
  916YOPE   C1B13487  13.436  15.959   6.891  0.1140 -0.5730  0.2574
  916YOPE   C2B13488  13.809  15.947   7.177  0.3020 -0.0942 -0.3806
  916YOPE   D3B13489  13.838  16.239   7.532  0.0855  0.0084 -0.0262
  916YOPE   C4B13490  13.758  16.630   7.680  0.0279  0.1609 -0.3330
  917YOPE   NH313491  10.072   4.011   4.991  0.0459  0.1949 -0.0332
  917YOPE   PO413492  10.251   4.167   5.291 -0.0377  0.1756 -0.4131
  917YOPE   GL113493  10.194   4.104   5.747 -0.0257  0.2885  0.0256
  917YOPE   GL213494   9.969   3.908   5.802  0.1048  0.1765 -0.1993
  917YOPE   C1A13495  10.198   3.975   6.272  0.1444  0.0819 -0.1420
  917YOPE   D2A13496  10.333   3.874   6.616 -0.1806  0.2501 -0.0268
  917YOPE   C3A13497  10.741   3.634   6.800  0.0704  0.1683  0.2332
  917YOPE   C4A13498  11.152   3.533   7.042  0.0612  0.2138 -0.1819
  917YOPE   C1B13499   9.781   3.652   6.133 -0.0209 -0.2214  0.1244
  917YOPE   C2B13500   9.915   3.581   6.536  0.2978 -0.2667  0.3908
  917YOPE   D3B13501  10.136   3.573   6.927 -0.5066  0.0066 -0.2226
  917YOPE   C4B13502  10.350   3.465   7.338  0.3993 -0.2652 -0.3072
  918YOPE   NH313503  12.075  15.894   5.885  0.2687  0.5455  0.0741
  918YOPE   PO413504  11.729  15.614   5.907 -0.0538 -0.0560  0.2690
  918YOPE   GL113505  11.594  15.775   6.296 -0.0194  0.2365 -0.1124
  918YOPE   GL213506  11.342  15.823   6.190 -0.3549  0.1231 -0.2732
  918YOPE   C1A13507  11.438  15.953   6.710 -0.2253 -0.0016 -0.0653
  918YOPE   D2A13508  11.359  15.899   7.065  0.1922 -0.2177 -0.2819
  918YOPE   C3A13509  11.515  15.568   7.218 -0.2264  0.0523  0.1110
  918YOPE   C4A13510  11.412  15.166   7.389  0.0011 -0.0685  0.0515
  918YOPE   C1B13511  11.008  15.986   6.448 -0.1078  0.0893  0.3922
  918YOPE   C2B13512  10.900  16.156   6.873  0.1453  0.1347 -0.1305
  918YOPE   D3B13513  10.875  16.410   7.244  0.1125  0.1567 -0.2002
  918YOPE   C4B13514  10.663  16.532   7.500 -0.0071 -0.1779 -0.0348
  919YOPE   NH313515   0.311  18.118   5.728 -0.0564 -0.2758  0.2178
  919YOPE   PO413516   0.252  18.582   5.822  0.1798 -0.1939  0.0710
  919YOPE   GL113517   0.241  18.697   6.276  0.2787  0.0261 -0.1061
  919YOPE   GL213518   0.248  19.120   6.215 -0.1395 -0.0215 -0.2159
  919YOPE   C1A13519  -0.012  18.527   6.540  0.0729  0.2912 -0.1042
  919YOPE   D2A13520  -0.097  18.554   6.967  0.0135 -0.0467 -0.0798
  919YOPE   C3A13521  -0.525  18.570   7.143  0.3586 -0.2232  0.0296
  919YOPE   C4A13522  -0.815  18.832   7.023 -0.2583 -0.1158 -0.3109
  919YOPE   C1B13523   0.235  19.031   6.717  0.0934  0.0214 -0.0167
  919YOPE   C2B13524   0.327  18.758   7.150 -0.0828 -0.1585 -0.1873
  919YOPE   D3B13525   0.408  18.732   7.622 -0.0936  0.2286 -0.0945
  919YOPE   C4B13526   0.407  18.654   8.016 -0.1563 -0.0666  0.3063
  920YOPE   NH313527   9.666   9.572   5.457 -0.2181 -0.1648  0.0194
  920YOPE   PO413528   9.307   9.719   5.626 -0.3927  0.3155  0.0384
  920YOPE   GL113529   9.544   9.850   6.115  0.2195  0.0270 -0.1708
  920YOPE   GL213530   9.801  10.106   6.172  0.0831  0.1312  0.1576
  920YOPE   C1A13531   9.471   9.965   6.511 -0.1421 -0.0794  0.1995
  920YOPE   D2A13532   9.434  10.350   6.783  0.0342  0.1265 -0.0256
  920YOPE   C3A13533   9.507  10.359   7.215  0.0453  0.0054  0.4507
  920YOPE   C4A13534   9.600  10.646   7.611 -0.3643 -0.0005 -0.1597
  920YOPE   C1B13535   9.945  10.038   6.604  0.0882  0.1530 -0.0979
  920YOPE   C2B13536   9.926  10.278   6.947  0.0520 -0.0693 -0.3317
  920YOPE   D3B13537   9.997  10.349   7.242 -0.2450 -0.0900 -0.1075
  920YOPE   C4B13538  10.106  10.434   7.737  0.0913  0.0226  0.1515
  921YOPE   NH313539   1.332   2.091   5.529 -0.1414 -0.2305  0.0875
  921YOPE   PO413540   1.283   1.643   5.688 -0.1383 -0.0159  0.2324
  921YOPE   GL113541   1.142   1.676   6.099 -0.0340  0.0512  0.0682
  921YOPE   GL213542   1.096   1.266   6.127 -0.0967 -0.2742  0.0234
  921YOPE   C1A13543   0.794   1.650   6.375 -0.2772  0.2930 -0.3589
  921YOPE   D2A13544   0.755   1.476   6.731  0.0084  0.0698 -0.1767
  921YOPE   C3A13545   0.573   1.834   7.037 -0.0008 -0.3371 -0.0280
  921YOPE   C4A13546   0.781   2.048   7.418 -0.2129 -0.0404  0.0602
  921YOPE   C1B13547   1.192   1.262   6.593 -0.1578  0.1012 -0.4361
  921YOPE   C2B13548   1.220   1.272   7.044 -0.2418  0.0785  0.1134
  921YOPE   D3B13549   0.908   1.418   7.259  0.1124 -0.0161 -0.1763
  921YOPE   C4B13550   0.692   1.584   7.466  0.0707 -0.1332  0.2316
  922YOPE   NH313551   7.766   7.678   6.173 -0.2228  0.0080 -0.0196
  922YOPE   PO413552   8.089   7.675   6.435  0.1864 -0.2350 -0.2618
  922YOPE   GL113553   8.198   7.420   6.779  0.2274 -0.3800  0.0384
  922YOPE   GL213554   8.158   7.133   6.719 -0.2267  0.1022 -0.1449
  922YOPE   C1A13555   8.377   7.580   7.071 -0.1518 -0.2981 -0.1866
  922YOPE   D2A13556   8.647   7.582   7.363 -0.3969  0.1072  0.0612
  922YOPE   C3A13557   8.866   7.298   7.593 -0.3680  0.2208 -0.2252
  922YOPE   C4A13558   9.109   6.874   7.774 -0.1787 -0.4072  0.3155
  922YOPE   C1B13559   7.926   7.244   7.105 -0.1563 -0.0690  0.2643
  922YOPE   C2B13560   7.619   7.425   7.345  0.0784 -0.1663 -0.0592
  922YOPE   D3B13561   7.582   7.764   7.642  0.2770  0.0639 -0.3070
  922YOPE   C4B13562   7.284   8.004   8.062 -0.1904  0.1502  0.1419
  923YOPE   NH313563  17.253  11.673   6.127 -0.1171  0.0547  0.0586
  923YOPE   PO413564  17.386  11.233   6.115  0.1762 -0.0856 -0.1063
  923YOPE   GL113565  17.330  11.202   6.515 -0.0621 -0.0564 -0.0601
  923YOPE   GL213566  17.561  11.397   6.744  0.1833  0.0137 -0.2659
  923YOPE   C1A13567  17.087  10.970   6.846  0.1709  0.1133 -0.0505
  923YOPE   D2A13568  16.732  11.032   6.949  0.0933  0.1627  0.0809
  923YOPE   C3A13569  16.480  11.087   7.136  0.1561 -0.0425 -0.0319
  923YOPE   C4A13570  16.252  11.120   7.411 -0.0142  0.2192  0.0699
  923YOPE   C1B13571  17.701  11.504   7.173  0.0143  0.0595  0.2612
  923YOPE   C2B13572  17.573  11.416   7.488 -0.1128 -0.0380  0.0982
  923YOPE   D3B13573  17.342  11.180   7.743 -0.1519 -0.0868 -0.4318
  923YOPE   C4B13574  17.081  11.034   7.805  0.0764  0.4054  0.0420
  924YOPE   NH313575  12.813   6.573   5.985  0.1337 -0.0619 -0.1074
  924YOPE   PO413576  13.125   6.429   6.140 -0.0202  0.2363 -0.1431
  924YOPE   GL113577  12.896   6.493   6.480 -0.0403 -0.1569  0.0557
  924YOPE   GL213578  12.757   6.210   6.365 -0.2740  0.1490  0.1471
  924YOPE   C1A13579  12.844   6.646   6.885  0.0975  0.2954  0.0419
  924YOPE   D2A13580  12.959   6.641   7.310  0.2879  0.1130 -0.1290
  924YOPE   C3A13581  12.720   6.567   7.500  0.2391  0.0113  0.3475
  924YOPE   C4A13582  12.601   6.596   7.858 -0.1630 -0.0249  0.1774
  924YOPE   C1B13583  12.465   6.273   6.736  0.1678  0.0609 -0.0766
  924YOPE   C2B13584  12.443   6.215   7.217  0.3596  0.0065  0.0110
  924YOPE   D3B13585  12.255   6.290   7.595  0.1897  0.1399  0.4453
  924YOPE   C4B13586  12.092   6.642   7.785  0.0608  0.1368  0.1816
  925YOPE   NH313587  13.732   1.238   5.942  0.1637  0.0863 -0.0342
  925YOPE   PO413588  13.449   1.654   5.926  0.0314  0.0255  0.1120
  925YOPE   GL113589  13.376   1.426   6.270 -0.0883  0.1444  0.0825
  925YOPE   GL213590  13.530   1.313   6.370 -0.0003 -0.1776 -0.0892
  925YOPE   C1A13591  13.085   1.152   6.519 -0.1871 -0.0019 -0.1701
  925YOPE   D2A13592  12.848   0.779   6.512  0.2077 -0.0139 -0.0355
  925YOPE   C3A13593  12.782   0.868   6.800  0.2732  0.0128 -0.4410
  925YOPE   C4A13594  12.906   0.709   7.276 -0.4006  0.1270  0.1911
  925YOPE   C1B13595  13.642   1.054   6.681  0.1066 -0.0488 -0.1924
  925YOPE   C2B13596  13.571   1.192   7.121 -0.0354  0.0468  0.1305
  925YOPE   D3B13597  13.314   1.129   7.549  0.0285 -0.2177  0.1266
  925YOPE   C4B13598  13.171   0.815   7.806 -0.2013  0.1339 -0.1047
  926YOPE   NH313599  10.927  10.354   5.733  0.4280  0.0354  0.0229
  926YOPE   PO413600  10.627  10.401   6.071  0.2151 -0.0533  0.2721
  926YOPE   GL113601  10.722  10.421   6.395  0.1039 -0.2731 -0.0956
  926YOPE   GL213602  11.110  10.323   6.429  0.1731  0.2752 -0.1180
  926YOPE   C1A13603  10.826  10.505   6.834  0.3538  0.1379 -0.2072
  926YOPE   D2A13604  10.700  10.442   7.302 -0.0836 -0.0205 -0.2486
  926YOPE   C3A13605  11.052  10.366   7.556  0.1657  0.1120  0.0308
  926YOPE   C4A13606  11.429  10.499   7.819  0.1005  0.1122  0.3204
  926YOPE   C1B13607  11.242  10.197   6.805 -0.0823  0.1806 -0.0466
  926YOPE   C2B13608  11.371  10.082   7.174 -0.0979 -0.1647 -0.3751
  926YOPE   D3B13609  11.728  10.338   7.365  0.1450  0.1835  0.3002
  926YOPE   C4B13610  11.943  10.763   7.425 -0.3592 -0.2029  0.3844
  927YOPE   NH313611  10.074   7.988   6.147 -0.1016  0.0439  0.0734
  927YOPE   PO413612   9.828   8.356   5.902  0.0728  0.1406  0.3967
  927YOPE   GL113613   9.677   8.253   6.311 -0.1707 -0.0129  0.1592
  927YOPE   GL213614   9.463   8.071   6.261  0.0196  0.1717 -0.2651
  927YOPE   C1A13615   9.582   8.432   6.758 -0.0951 -0.1279  0.4306
  927YOPE   D2A13616   9.534   8.288   7.196  0.0788 -0.5237 -0.0050
  927YOPE   C3A13617   9.305   7.989   7.190  0.1143 -0.1600 -0.0076
  927YOPE   C4A13618   9.022   7.686   7.021 -0.0513 -0.1293 -0.1716
  927YOPE   C1B13619   9.563   7.951   6.702  0.2047  0.2173  0.0673
  927YOPE   C2B13620   9.639   7.595   6.951  0.0251  0.1073  0.1967
  927YOPE   D3B13621   9.527   7.513   7.341  0.0780 -0.2150 -0.1273
  927YOPE   C4B13622   9.147   7.710   7.585  0.1522 -0.0083  0.0077
  928YOPE   NH313623  13.165   0.235   5.503 -0.0114 -0.3515  0.0489
  928YOPE   PO413624  13.089  -0.100   5.736  0.0333  0.0282  0.2055
  928YOPE   GL113625  13.308  -0.186   6.155  0.2555 -0.2928 -0.2017
  928YOPE   GL213626  13.086  -0.052   6.308  0.1460  0.0808  0.0263
  928YOPE   C1A13627  13.407  -0.360   6.518  0.1882  0.1459  0.2567
  928YOPE   D2A13628  13.560  -0.396   6.944  0.0254  0.0914 -0.3144
  928YOPE   C3A13629  13.858  -0.442   7.309 -0.3765  0.0453 -0.1941
  928YOPE   C4A13630  14.301  -0.607   7.427 -0.1997  0.0625  0.0594
  928YOPE   C1B13631  12.818   0.270   6.416  0.1671 -0.0273  0.0428
  928YOPE   C2B13632  12.548   0.214   6.723 -0.1578 -0.3407  0.1726
  928YOPE   D3B13633  12.603   0.020   7.135  0.1389  0.1713 -0.3601
  928YOPE   C4B13634  12.730  -0.052   7.530 -0.1773  0.0017 -0.1148
  929YOPE   NH313635   0.868   4.710   5.768 -0.0003 -0.1520 -0.0309
  929YOPE   PO413636   1.093   4.398   5.748 -0.3893 -0.2793  0.0402
  929YOPE   GL113637   1.142   4.152   6.088 -0.0099  0.2634 -0.1413
  929YOPE   GL213638   0.833   4.074   6.038  0.1397  0.2034  0.0598
  929YOPE   C1A13639   1.164   4.270   6.532  0.1121 -0.0648  0.1352
  929YOPE   D2A13640   1.164   4.141   6.977  0.0486 -0.1334 -0.1861
  929YOPE   C3A13641   0.774   4.225   7.224 -0.0652  0.0497  0.1339
  929YOPE   C4A13642   0.326   4.003   7.282 -0.1538  0.0924  0.1240
  929YOPE   C1B13643   0.708   4.029   6.432 -0.5512 -0.0664  0.0181
  929YOPE   C2B13644   0.712   3.780   6.830  0.1805  0.1241  0.0174
  929YOPE   D3B13645   0.416   3.530   7.075 -0.3891  0.2724 -0.2505
  929YOPE   C4B13646  -0.015   3.565   7.333  0.3739 -0.0289  0.1615
  930YOPE   NH313647   3.784   1.754   5.462  0.0427 -0.0728 -0.0895
  930YOPE   PO413648   3.497   1.620   5.839 -0.0575 -0.1289 -0.0053
  930YOPE   GL113649   3.339   1.663   6.284  0.0531 -0.0063 -0.2792
  930YOPE   GL213650   3.189   1.879   6.402  0.0017  0.0153 -0.4353
  930YOPE   C1A13651   3.168   1.407   6.535 -0.0574 -0.0388 -0.1017
  930YOPE   D2A13652   2.727   1.373   6.769 -0.0354 -0.0635  0.1354
  930YOPE   C3A13653   2.627   1.225   7.223 -0.0005 -0.4805 -0.1472
  930YOPE   C4A13654   2.704   0.720   7.485 -0.0856  0.1331 -0.1781
  930YOPE   C1B13655   3.027   1.806   6.796 -0.0309  0.0123  0.1106
  930YOPE   C2B13656   2.712   1.779   7.080  0.0372  0.1053  0.3087
  930YOPE   D3B13657   2.693   1.951   7.460  0.5345  0.0311 -0.1866
  930YOPE   C4B13658   2.739   2.126   7.892 -0.2555  0.1641 -0.0343
  931YOPE   NH313659   9.131   6.406   6.165 -0.1306  0.1381  0.2441
  931YOPE   PO413660   9.388   6.096   5.917  0.0225 -0.2041  0.1433
  931YOPE   GL113661   9.492   6.088   6.317  0.3096  0.1992  0.2243
  931YOPE   GL213662   9.738   6.252   6.363  0.1741 -0.0471 -0.0293
  931YOPE   C1A13663   9.503   5.836   6.594 -0.0168 -0.1901  0.0582
  931YOPE   D2A13664   9.479   5.786   7.046  0.1075 -0.3536  0.0904
  931YOPE   C3A13665   9.151   5.607   7.222 -0.2298 -0.0893 -0.2493
  931YOPE   C4A13666   8.834   5.358   7.336 -0.0837 -0.2515  0.0155
  931YOPE   C1B13667   9.765   6.184   6.837  0.1619  0.0640 -0.0582
  931YOPE   C2B13668   9.445   6.328   6.896 -0.3438 -0.0633 -0.0748
  931YOPE   D3B13669   9.398   6.390   7.316  0.2615 -0.0854 -0.1301
  931YOPE   C4B13670   9.336   6.231   7.839  0.0956 -0.2310 -0.0740
  932YOPE   NH313671  18.235   8.124   5.846 -0.1185 -0.1741 -0.1550
  932YOPE   PO413672  18.299   8.568   5.847  0.0517  0.0103 -0.6267
  932YOPE   GL113673  18.026   8.478   6.256 -0.0868 -0.2684 -0.0635
  932YOPE   GL213674  17.925   8.264   6.316 -0.0449  0.2744  0.0426
  932YOPE   C1A13675  18.095   8.551   6.706 -0.0163 -0.1624 -0.0671
  932YOPE   D2A13676  18.244   8.742   7.031  0.1831 -0.0127 -0.1527
  932YOPE   C3A13677  17.997   9.033   7.347 -0.0611 -0.1723  0.3397
  932YOPE   C4A13678  18.064   9.345   7.279  0.1447  0.0692 -0.1358
  932YOPE   C1B13679  17.792   8.136   6.748 -0.0835  0.0734  0.0072
  932YOPE   C2B13680  17.779   8.438   7.041  0.0573 -0.1455  0.0061
  932YOPE   D3B13681  17.581   8.703   7.270 -0.1404 -0.1601  0.2222
  932YOPE   C4B13682  17.524   9.181   7.217  0.1182 -0.1594  0.0671
  933YOPE   NH313683  13.102   7.692   6.079  0.2239  0.0478 -0.0904
  933YOPE   PO413684  13.112   7.955   6.380  0.1604 -0.1375  0.0450
  933YOPE   GL113685  13.010   8.116   6.700 -0.0184 -0.0537  0.0191
  933YOPE   GL213686  12.673   8.265   6.653 -0.2561 -0.0942  0.1246
  933YOPE   C1A13687  12.956   8.249   7.065 -0.1299  0.0081 -0.1206
  933YOPE   D2A13688  12.972   8.164   7.531  0.0063  0.4174  0.0374
  933YOPE   C3A13689  12.676   8.274   7.760  0.1293  0.0990 -0.0241
  933YOPE   C4A13690  12.598   8.474   8.147 -0.3241 -0.2579 -0.1241
  933YOPE   C1B13691  12.456   8.586   6.759  0.0691  0.0688  0.2333
  933YOPE   C2B13692  12.228   8.830   7.194  0.2049 -0.1117  0.0504
  933YOPE   D3B13693  12.161   8.985   7.515 -0.1292 -0.4845 -0.1728
  933YOPE   C4B13694  12.172   9.265   7.864  0.1539 -0.0895  0.4895
  934YOPE   NH313695  12.439   4.319   5.769 -0.2424  0.0626  0.0371
  934YOPE   PO413696  12.758   4.389   5.502 -0.1392  0.1600  0.2575
  934YOPE   GL113697  12.879   4.491   5.959  0.0101 -0.0501 -0.1465
  934YOPE   GL213698  12.765   4.792   5.870 -0.0699 -0.0429  0.0435
  934YOPE   C1A13699  12.829   4.641   6.388 -0.0396 -0.0428 -0.1157
  934YOPE   D2A13700  12.923   4.749   6.780 -0.0064  0.3896 -0.0258
  934YOPE   C3A13701  12.838   5.188   6.894  0.0796 -0.2154  0.3909
  934YOPE   C4A13702  12.723   5.465   7.207  0.5645  0.2121 -0.1126
  934YOPE   C1B13703  12.791   5.090   6.207 -0.0230  0.1273 -0.5739
  934YOPE   C2B13704  13.071   5.278   6.402  0.1040 -0.0799  0.0381
  934YOPE   D3B13705  13.286   5.400   6.820 -0.0454  0.0061  0.0154
  934YOPE   C4B13706  13.227   5.608   7.227 -0.0603  0.1769  0.1150
  935YOPE   NH313707  17.436   1.001   5.990 -0.1428  0.0883 -0.4133
  935YOPE   PO413708  17.125   0.702   5.854 -0.0668 -0.1926  0.2047
  935YOPE   GL113709  17.018   0.582   6.260  0.0632 -0.2116  0.2092
  935YOPE   GL213710  16.855   0.335   6.343  0.3722 -0.1536  0.0718
  935YOPE   C1A13711  17.260   0.611   6.580 -0.2242  0.0350 -0.0244
  935YOPE   D2A13712  17.042   0.390   6.858 -0.1644  0.0975 -0.0461
  935YOPE   C3A13713  17.135   0.256   7.235 -0.2234 -0.3076 -0.2154
  935YOPE   C4A13714  17.388  -0.005   7.483 -0.3233 -0.0874 -0.1461
  935YOPE   C1B13715  16.577   0.287   6.633  0.1594  0.3618 -0.0065
  935YOPE   C2B13716  16.646   0.127   6.954 -0.0547  0.0765 -0.2396
  935YOPE   D3B13717  16.590  -0.037   7.336  0.1191 -0.0442 -0.3658
  935YOPE   C4B13718  16.490  -0.266   7.750  0.1526 -0.0859  0.0400
  936YOPE   NH313719   0.394  17.375   5.642 -0.1434  0.0335 -0.1247
  936YOPE   PO413720   0.414  16.942   5.691  0.1045 -0.0159  0.1150
  936YOPE   GL113721   0.402  16.905   6.117  0.2341 -0.0037 -0.0598
  936YOPE   GL213722   0.664  17.038   6.198  0.1626  0.1631  0.1073
  936YOPE   C1A13723   0.447  16.699   6.552  0.1885  0.1371  0.2191
  936YOPE   D2A13724   0.249  16.703   6.986  0.1803  0.0146 -0.4964
  936YOPE   C3A13725   0.345  16.425   7.463 -0.1131  0.1403 -0.4549
  936YOPE   C4A13726   0.166  16.012   7.478 -0.0519  0.0766  0.2565
  936YOPE   C1B13727   0.913  17.418   6.489  0.2497  0.0509  0.3635
  936YOPE   C2B13728   1.217  17.578   6.632 -0.0792 -0.2527 -0.0776
  936YOPE   D3B13729   1.364  17.825   6.883  0.0895  0.1468 -0.0723
  936YOPE   C4B13730   1.346  18.133   7.223  0.2134 -0.3268 -0.3374
  937YOPE   NH313731   3.912   0.055   5.386  0.2619  0.0211  0.0364
  937YOPE   PO413732   4.203   0.018   5.668 -0.0718 -0.1634  0.3032
  937YOPE   GL113733   4.120  -0.167   6.040  0.2305  0.1810 -0.1889
  937YOPE   GL213734   4.111  -0.445   6.021  0.0468 -0.4346  0.1296
  937YOPE   C1A13735   4.038  -0.215   6.462 -0.1128  0.3195 -0.1005
  937YOPE   D2A13736   3.843  -0.224   6.799 -0.1717 -0.2871 -0.0778
  937YOPE   C3A13737   3.546  -0.469   7.025 -0.1491  0.0518  0.1519
  937YOPE   C4A13738   3.170  -0.484   7.201 -0.1985  0.0430  0.0926
  937YOPE   C1B13739   4.530  -0.547   6.006  0.0058  0.1700 -0.1623
  937YOPE   C2B13740   4.980  -0.325   6.107 -0.0181  0.2480 -0.0254
  937YOPE   D3B13741   5.195  -0.046   6.415 -0.2237 -0.1487  0.1600
  937YOPE   C4B13742   5.454   0.140   6.695 -0.2563 -0.1605  0.3041
  938YOPE   NH313743   8.026   2.173   5.453  0.4501 -0.0904 -0.0789
  938YOPE   PO413744   8.214   2.542   5.764  0.0398  0.3020  0.1800
  938YOPE   GL113745   8.125   2.433   6.158  0.1900  0.1642 -0.1019
  938YOPE   GL213746   7.980   2.644   6.277 -0.3514  0.1610 -0.1259
  938YOPE   C1A13747   8.213   2.335   6.585  0.0381 -0.3439 -0.3109
  938YOPE   D2A13748   8.019   2.327   7.006  0.2271 -0.0437 -0.2564
  938YOPE   C3A13749   8.238   2.249   7.375  0.1563 -0.3885  0.1692
  938YOPE   C4A13750   8.474   2.111   7.693  0.0225  0.1651  0.1256
  938YOPE   C1B13751   7.798   2.606   6.679  0.4616  0.6872 -0.1449
  938YOPE   C2B13752   7.635   2.757   7.044 -0.1931  0.0445  0.2848
  938YOPE   D3B13753   7.315   2.554   7.325 -0.0133 -0.1596  0.1345
  938YOPE   C4B13754   6.957   2.716   7.562  0.0845  0.0020  0.3405
  939YOPE   NH313755  17.473   6.849   5.810 -0.5659  0.0524  0.2691
  939YOPE   PO413756  17.888   6.951   5.986 -0.0967 -0.1396 -0.0140
  939YOPE   GL113757  17.540   6.605   6.212 -0.1772 -0.0566  0.0444
  939YOPE   GL213758  17.297   6.583   6.481  0.0317 -0.1246  0.2936
  939YOPE   C1A13759  17.616   6.217   6.284  0.1817 -0.2147 -0.1583
  939YOPE   D2A13760  17.822   5.903   6.486 -0.1827  0.1348 -0.2513
  939YOPE   C3A13761  18.083   5.806   6.833  0.3949 -0.4094  0.0821
  939YOPE   C4A13762  18.316   5.528   6.943  0.0741 -0.2281 -0.1472
  939YOPE   C1B13763  17.597   6.509   6.785  0.0278 -0.2358 -0.2971
  939YOPE   C2B13764  17.976   6.664   7.034  0.1033 -0.1109  0.0735
  939YOPE   D3B13765  18.153   6.697   7.459 -0.1884  0.1625 -0.0594
  939YOPE   C4B13766  18.243   6.904   7.841  0.2145  0.0473 -0.1048
  940YOPE   NH313767   5.440   5.558   5.864 -0.1276  0.1448  0.2707
  940YOPE   PO413768   5.303   5.275   6.152 -0.0834 -0.0422  0.1629
  940YOPE   GL113769   5.255   5.415   6.556  0.1640 -0.1993 -0.0598
  940YOPE   GL213770   5.103   5.679   6.501  0.0811  0.0598 -0.1333
  940YOPE   C1A13771   5.353   5.490   7.084  0.0155  0.1028  0.1206
  940YOPE   D2A13772   5.310   5.257   7.408  0.1391  0.1550  0.3474
  940YOPE   C3A13773   5.301   4.878   7.343 -0.2726  0.1820 -0.2007
  940YOPE   C4A13774   5.195   4.463   7.437  0.0229  0.2019  0.0382
  940YOPE   C1B13775   4.960   5.749   6.959  0.1250  0.2441 -0.0085
  940YOPE   C2B13776   5.045   5.753   7.339  0.1732 -0.0592 -0.0885
  940YOPE   D3B13777   5.216   5.651   7.726 -0.0375 -0.1130 -0.5054
  940YOPE   C4B13778   5.189   5.332   8.173  0.1718  0.0396 -0.2315
  941POPC   NC313779  16.821  12.960   5.184  0.0856  0.1071  0.0024
  941POPC   PO413780  16.824  13.231   5.610  0.0352  0.1755  0.1983
  941POPC   GL113781  16.943  13.405   6.021  0.1293 -0.4779 -0.1849
  941POPC   GL213782  17.046  13.401   6.330 -0.1949  0.1489 -0.2391
  941POPC   C1A13783  16.612  13.396   6.465  0.0022  0.0662 -0.1249
  941POPC   D2A13784  16.507  13.549   6.895  0.3324  0.1250 -0.0303
  941POPC   C3A13785  16.429  13.966   7.012 -0.0864  0.3049  0.1594
  941POPC   C4A13786  16.329  14.277   7.198  0.2044 -0.0973  0.0709
  941POPC   C1B13787  17.125  13.318   6.798  0.0724  0.1288 -0.1112
  941POPC   C2B13788  16.970  13.281   7.155 -0.1485  0.2276  0.1375
  941POPC   C3B13789  17.099  13.486   7.569  0.0199  0.2306 -0.0245
  941POPC   C4B13790  16.786  13.788   7.786 -0.0588  0.4344 -0.0967
  942POPC   NC313791  11.294  15.815   5.655  0.1370  0.1224 -0.1139
  942POPC   PO413792  10.937  15.636   5.848  0.1979 -0.0360  0.2526
  942POPC   GL113793  10.912  15.446   6.260  0.1725  0.0166  0.2760
  942POPC   GL213794  10.640  15.502   6.334 -0.1604  0.1988  0.0210
  942POPC   C1A13795  11.047  15.529   6.636  0.0659  0.2015 -0.1346
  942POPC   D2A13796  10.993  15.597   6.990  0.0324 -0.1400 -0.1156
  942POPC   C3A13797  10.675  15.624   7.281 -0.0678 -0.1543 -0.0951
  942POPC   C4A13798  10.379  15.504   7.606 -0.0670 -0.1128  0.2115
  942POPC   C1B13799  10.570  15.817   6.683  0.0400  0.1995  0.0168
  942POPC   C2B13800  10.460  16.096   7.023  0.2223  0.1298 -0.0358
  942POPC   C3B13801  10.508  16.048   7.466 -0.2112 -0.1609 -0.1830
  942POPC   C4B13802  10.450  16.282   7.867 -0.1751 -0.2688  0.0752
  943POPC   NC313803   6.749  16.155   5.700 -0.0470 -0.0339 -0.0754
  943POPC   PO413804   7.169  16.282   5.697  0.0096  0.2184 -0.2669
  943POPC   GL113805   7.442  16.488   5.982  0.1254 -0.2364 -0.1906
  943POPC   GL213806   7.631  16.233   6.206  0.0965  0.3660 -0.1726
  943POPC   C1A13807   7.315  16.801   6.320  0.1329  0.1677  0.2885
  943POPC   D2A13808   7.339  16.890   6.726 -0.2814 -0.0975  0.0195
  943POPC   C3A13809   7.394  17.327   6.904  0.1240 -0.1110 -0.0352
  943POPC   C4A13810   7.410  17.749   7.051 -0.3243 -0.2338 -0.1333
  943POPC   C1B13811   7.770  15.982   6.570 -0.1010 -0.1919  0.1146
  943POPC   C2B13812   8.135  16.002   6.896 -0.1663  0.1949 -0.0840
  943POPC   C3B13813   8.548  16.246   7.091 -0.0212 -0.0110 -0.0645
  943POPC   C4B13814   8.916  16.314   7.371  0.0564  0.0357 -0.3673
  944POPC   NC313815   5.838  12.657   5.416 -0.2202 -0.0360  0.2421
  944POPC   PO413816   5.816  12.320   5.770 -0.0358  0.1572  0.3497
  944POPC   GL113817   5.940  12.173   6.162 -0.1934 -0.0659  0.0010
  944POPC   GL213818   5.980  12.446   6.211 -0.0700  0.1525  0.2121
  944POPC   C1A13819   6.062  12.085   6.540  0.0900  0.3166  0.1029
  944POPC   D2A13820   6.111  11.975   6.952  0.1286  0.2291 -0.1447
  944POPC   C3A13821   6.104  12.100   7.387 -0.0930 -0.3125  0.0512
  944POPC   C4A13822   6.289  12.394   7.736 -0.1025  0.2918 -0.0704
  944POPC   C1B13823   5.837  12.786   6.427 -0.0407  0.2129  0.0390
  944POPC   C2B13824   5.889  12.897   6.868 -0.0181 -0.2855 -0.0038
  944POPC   C3B13825   5.761  13.159   7.226 -0.1803 -0.0155  0.0661
  944POPC   C4B13826   5.700  13.214   7.587  0.2017  0.2782  0.1890
  945POPC   NC313827  14.121  17.882   5.787 -0.3811 -0.2292 -0.1157
  945POPC   PO413828  14.465  17.986   5.785  0.0963 -0.1629  0.0917
  945POPC   GL113829  14.833  18.010   6.097  0.0321 -0.3210 -0.1946
  945POPC   GL213830  14.668  18.261   6.252 -0.3152  0.0390  0.2146
  945POPC   C1A13831  15.154  17.962   6.426 -0.1779  0.1555 -0.0386
  945POPC   D2A13832  15.430  17.915   6.740  0.1236  0.0641 -0.1394
  945POPC   C3A13833  15.307  17.884   7.124  0.1528 -0.0948  0.0963
  945POPC   C4A13834  15.305  17.888   7.625  0.1296 -0.1354 -0.0012
  945POPC   C1B13835  14.745  18.411   6.604  0.1971  0.1395 -0.0272
  945POPC   C2B13836  15.028  18.323   7.053 -0.1206 -0.0437  0.1901
  945POPC   C3B13837  15.036  18.354   7.452 -0.1672  0.0702 -0.3609
  945POPC   C4B13838  15.112  18.137   7.988  0.1600  0.2483  0.0800
  946POPC   NC313839   4.549   9.763   6.351 -0.0656 -0.2212  0.3591
  946POPC   PO413840   4.317  10.015   6.065  0.0338 -0.2102 -0.3031
  946POPC   GL113841   4.394  10.199   6.439  0.3443  0.0164 -0.0755
  946POPC   GL213842   4.720  10.115   6.634 -0.1173  0.1591  0.0370
  946POPC   C1A13843   4.325  10.284   6.920 -0.1261 -0.0734 -0.0192
  946POPC   D2A13844   4.589  10.403   7.274  0.0558 -0.0020 -0.2997
  946POPC   C3A13845   4.650  10.121   7.614  0.0942  0.1845 -0.1396
  946POPC   C4A13846   4.679   9.688   7.816  0.1060 -0.1015 -0.1023
  946POPC   C1B13847   4.678   9.969   7.063  0.2706  0.0329  0.0762
  946POPC   C2B13848   4.941   9.686   7.363  0.0032  0.2505 -0.3172
  946POPC   C3B13849   4.936   9.286   7.646  0.0324 -0.0408 -0.0666
  946POPC   C4B13850   4.780   9.197   7.965 -0.0794 -0.1003 -0.0853
  947POPC   NC313851  11.313   9.732   6.095 -0.0569 -0.0122 -0.0664
  947POPC   PO413852  11.344  10.176   6.005 -0.0074  0.0485  0.0168
  947POPC   GL113853  11.679  10.133   6.377  0.1977  0.1684 -0.1655
  947POPC   GL213854  11.976  10.253   6.324 -0.2419  0.1098  0.1335
  947POPC   C1A13855  11.710  10.349   6.871 -0.2079  0.0262  0.1694
  947POPC   D2A13856  11.710  10.728   6.998  0.0425  0.0093 -0.0057
  947POPC   C3A13857  11.947  11.099   6.927  0.2642 -0.1042  0.2056
  947POPC   C4A13858  12.197  11.156   7.252 -0.1716 -0.0467 -0.3226
  947POPC   C1B13859  12.147  10.197   6.704 -0.0810 -0.0211  0.2581
  947POPC   C2B13860  12.155  10.351   7.141 -0.2207 -0.3294 -0.2477
  947POPC   C3B13861  12.138  10.081   7.492 -0.1490 -0.0447  0.0045
  947POPC   C4B13862  11.994   9.750   7.870 -0.2849  0.0874 -0.1245
  948POPC   NC313863   0.828   1.915   5.793 -0.3079 -0.0217  0.0643
  948POPC   PO413864   0.722   2.350   5.735  0.1902 -0.0062 -0.0641
  948POPC   GL113865   0.669   2.170   6.216  0.1707  0.0775  0.1027
  948POPC   GL213866   0.399   1.956   6.154  0.1422  0.1195  0.1226
  948POPC   C1A13867   0.465   2.308   6.541 -0.1774 -0.3877  0.1960
  948POPC   D2A13868   0.449   2.708   6.721  0.0103 -0.0140  0.2795
  948POPC   C3A13869   0.676   2.770   7.131  0.1098  0.0815  0.2478
  948POPC   C4A13870   0.908   2.578   7.504 -0.2577  0.0431  0.1230
  948POPC   C1B13871   0.341   1.828   6.629 -0.0698 -0.2181  0.0389
  948POPC   C2B13872   0.174   2.095   6.906 -0.0195 -0.2254  0.0741
  948POPC   C3B13873   0.319   2.395   7.177  0.0689  0.1047  0.3631
  948POPC   C4B13874   0.432   2.494   7.522 -0.0059  0.2896 -0.1145
  949POPC   NC313875   3.103  13.875   5.643  0.0751 -0.1084  0.1965
  949POPC   PO413876   3.354  14.122   5.913 -0.0481  0.1659 -0.2409
  949POPC   GL113877   3.477  13.974   6.285  0.2714  0.0071 -0.2097
  949POPC   GL213878   3.554  13.702   6.321 -0.0637  0.1012 -0.2275
  949POPC   C1A13879   3.270  13.856   6.658 -0.1424  0.5440 -0.0244
  949POPC   D2A13880   3.034  13.700   7.042  0.1203  0.0573 -0.0448
  949POPC   C3A13881   2.604  13.827   7.194 -0.1396  0.1889 -0.0383
  949POPC   C4A13882   2.297  13.935   7.380 -0.3198 -0.0976  0.0697
  949POPC   C1B13883   3.209  13.429   6.435 -0.1213 -0.0263  0.0703
  949POPC   C2B13884   3.123  13.284   6.868 -0.0015 -0.0697  0.0927
  949POPC   C3B13885   3.303  13.004   7.118  0.2386  0.1226  0.0771
  949POPC   C4B13886   3.119  12.819   7.512 -0.2006  0.1510  0.3631
  950POPC   NC313887   3.505   0.732   5.812 -0.0340 -0.2115 -0.0326
  950POPC   PO413888   3.841   0.447   5.667  0.3650  0.1868  0.2850
  950POPC   GL113889   3.785   0.251   6.034 -0.1925  0.0648 -0.2653
  950POPC   GL213890   3.653   0.045   5.890  0.0490  0.3041 -0.1434
  950POPC   C1A13891   3.645   0.169   6.442  0.1826 -0.1322 -0.3615
  950POPC   D2A13892   3.602   0.270   6.731 -0.1706  0.0946  0.1431
  950POPC   C3A13893   3.414   0.648   6.815 -0.1781  0.0477  0.1508
  950POPC   C4A13894   3.165   0.625   7.209 -0.2318 -0.2645 -0.1186
  950POPC   C1B13895   3.663  -0.400   6.155  0.1871  0.1973  0.1049
  950POPC   C2B13896   3.649  -0.620   6.548 -0.1928 -0.1101 -0.1677
  950POPC   C3B13897   3.651  -1.094   6.708  0.1576  0.3592  0.0619
  950POPC   C4B13898   3.981  -1.335   6.884 -0.0866  0.1629 -0.1972
  951POPC   NC313899  16.578   3.847   5.451  0.0920 -0.2472  0.0608
  951POPC   PO413900  16.633   3.303   5.357  0.1485  0.2145 -0.0746
  951POPC   GL113901  16.792   3.536   5.759 -0.0305  0.0223 -0.0352
  951POPC   GL213902  17.079   3.579   5.895 -0.2668  0.2635  0.0287
  951POPC   C1A13903  16.664   3.918   6.074  0.1134 -0.1278  0.0676
  951POPC   D2A13904  16.646   3.909   6.554 -0.1646  0.1030  0.0433
  951POPC   C3A13905  16.243   4.021   6.576 -0.0694 -0.1533 -0.1831
  951POPC   C4A13906  15.733   3.908   6.496 -0.0993 -0.0654 -0.0143
  951POPC   C1B13907  17.343   3.462   6.098 -0.1709  0.2127 -0.2451
  951POPC   C2B13908  17.384   3.414   6.549 -0.0858 -0.4298 -0.5152
  951POPC   C3B13909  17.410   3.756   6.885 -0.0341  0.0770 -0.0321
  951POPC   C4B13910  17.625   4.183   6.890 -0.2193 -0.3047 -0.1636
  952POPC   NC313911   5.862   2.294   5.273 -0.0752 -0.1725  0.0709
  952POPC   PO413912   5.702   2.735   5.375  0.0237 -0.0438 -0.0282
  952POPC   GL113913   5.776   2.668   5.792  0.0652 -0.1554  0.1137
  952POPC   GL213914   5.916   2.895   5.940 -0.0082  0.1486 -0.2580
  952POPC   C1A13915   5.713   2.393   6.077 -0.0284 -0.2106  0.2059
  952POPC   D2A13916   5.380   2.383   6.427  0.0725 -0.2713  0.0399
  952POPC   C3A13917   4.938   2.261   6.648 -0.5506 -0.0266  0.4380
  952POPC   C4A13918   4.836   2.361   7.126  0.0917  0.0578  0.1397
  952POPC   C1B13919   6.039   2.746   6.381  0.3383 -0.0420  0.3226
  952POPC   C2B13920   5.841   2.485   6.734  0.1258  0.1291 -0.2991
  952POPC   C3B13921   5.407   2.316   6.921 -0.3257  0.1181  0.0736
  952POPC   C4B13922   5.253   1.986   7.156 -0.0074 -0.3918  0.3480
  953POPC   NC313923   5.535  10.071   6.281 -0.0412 -0.0454 -0.2970
  953POPC   PO413924   5.088   9.836   6.355 -0.0254  0.0659 -0.1120
  953POPC   GL113925   5.093   9.807   6.776 -0.2591 -0.5216  0.0603
  953POPC   GL213926   5.115   9.590   6.901  0.1207 -0.2181 -0.0865
  953POPC   C1A13927   5.342   9.965   7.106 -0.1770 -0.2332  0.2625
  953POPC   D2A13928   5.747   9.970   7.268 -0.2252 -0.2457  0.0065
  953POPC   C3A13929   6.139  10.099   7.430 -0.1489 -0.0256 -0.2948
  953POPC   C4A13930   6.375  10.303   7.747  0.0656 -0.0892 -0.0785
  953POPC   C1B13931   5.346   9.373   7.280  0.1276  0.0920  0.1755
  953POPC   C2B13932   5.586   9.559   7.643  0.0470  0.1673  0.2875
  953POPC   C3B13933   5.687   9.477   8.125 -0.0441  0.0709 -0.2127
  953POPC   C4B13934   5.598   9.137   8.402 -0.1487  0.0695  0.1554
  954POPC   NC313935  14.934   8.052   5.994 -0.3036 -0.0869 -0.1014
  954POPC   PO413936  14.971   7.526   5.963  0.3237  0.1732  0.1837
  954POPC   GL113937  15.006   7.730   6.341  0.0404 -0.0786  0.1636
  954POPC   GL213938  14.644   7.828   6.331 -0.0050  0.0465 -0.3813
  954POPC   C1A13939  15.239   7.765   6.724  0.4377  0.0161  0.0559
  954POPC   D2A13940  15.486   7.941   6.974 -0.0722 -0.0489 -0.0120
  954POPC   C3A13941  15.490   7.970   7.466 -0.0708  0.1880 -0.0180
  954POPC   C4A13942  15.306   7.769   7.733  0.3334  0.3359 -0.0221
  954POPC   C1B13943  14.717   7.684   6.833 -0.0408 -0.1985  0.1563
  954POPC   C2B13944  14.585   7.866   7.269  0.2974  0.1594 -0.0430
  954POPC   C3B13945  14.351   8.003   7.660 -0.0087  0.1379  0.1962
  954POPC   C4B13946  14.108   8.081   7.934 -0.0157  0.2208 -0.0357
  955POPC   NC313947   8.403   6.412   5.640 -0.2269 -0.0419  0.2638
  955POPC   PO413948   8.238   6.666   5.921 -0.2591  0.1638  0.0697
  955POPC   GL113949   8.203   6.712   6.354 -0.2076 -0.0755  0.0900
  955POPC   GL213950   8.518   6.948   6.456  0.1023  0.0923  0.0299
  955POPC   C1A13951   7.970   6.666   6.664  0.0777  0.0903  0.0443
  955POPC   D2A13952   7.498   6.531   6.765 -0.0338 -0.0194  0.1528
  955POPC   C3A13953   7.341   6.421   7.215  0.0735 -0.3314  0.0284
  955POPC   C4A13954   7.255   6.337   7.703 -0.0681  0.1298  0.0172
  955POPC   C1B13955   8.617   6.784   6.820  0.0069 -0.0199 -0.1957
  955POPC   C2B13956   8.718   6.656   7.185  0.1738  0.2357  0.0964
  955POPC   C3B13957   8.839   6.378   7.488 -0.0467 -0.1249  0.1574
  955POPC   C4B13958   8.952   6.023   7.394 -0.2051  0.0171  0.2694
  956POPC   NC313959  16.905   8.876   5.692 -0.3787  0.0594  0.0935
  956POPC   PO413960  17.233   9.148   5.713  0.0518 -0.0302 -0.2277
  956POPC   GL113961  17.110   9.097   6.127  0.0499 -0.1802  0.0673
  956POPC   GL213962  17.098   9.329   6.315 -0.1124 -0.1398 -0.0442
  956POPC   C1A13963  17.205   8.871   6.495 -0.0815 -0.5655  0.0013
  956POPC   D2A13964  17.255   8.890   6.938  0.2586  0.1858 -0.2861
  956POPC   C3A13965  16.992   9.042   7.314 -0.0113  0.3112  0.1829
  956POPC   C4A13966  16.768   9.356   7.595  0.1837 -0.2330  0.0370
  956POPC   C1B13967  16.720   9.067   6.543 -0.1776 -0.3397  0.2395
  956POPC   C2B13968  16.564   9.039   6.923 -0.0105 -0.1017 -0.1962
  956POPC   C3B13969  16.478   8.956   7.319 -0.4338 -0.0460 -0.3568
  956POPC   C4B13970  16.597   8.733   7.654 -0.2259 -0.3488 -0.1829
  957POPC   NC313971  12.503   2.102   5.666 -0.1289 -0.4689 -0.1340
  957POPC   PO413972  12.592   2.541   5.755  0.2012 -0.1146  0.1352
  957POPC   GL113973  12.725   2.850   6.081  0.0464  0.2142 -0.1545
  957POPC   GL213974  12.457   2.943   6.271  0.1102  0.0153 -0.1355
  957POPC   C1A13975  12.909   2.852   6.444 -0.1895 -0.0979 -0.3001
  957POPC   D2A13976  13.014   2.988   6.880  0.0458 -0.0131  0.0376
  957POPC   C3A13977  12.627   3.143   7.114 -0.0917 -0.1549 -0.0433
  957POPC   C4A13978  12.415   3.131   7.533  0.0592  0.0357  0.3285
  957POPC   C1B13979  12.547   2.480   6.439  0.1470 -0.0850  0.2918
  957POPC   C2B13980  12.483   2.202   6.776  0.0137  0.2737 -0.0976
  957POPC   C3B13981  12.490   2.229   7.257  0.1285 -0.0557 -0.1865
  957POPC   C4B13982  12.789   2.067   7.607  0.0003 -0.2027 -0.2247
  958POPC   NC313983   6.821   5.756   5.929  0.3433  0.4158  0.1044
  958POPC   PO413984   7.106   6.097   5.998  0.0644 -0.0762  0.0536
  958POPC   GL113985   7.244   6.280   6.374  0.0280  0.1878 -0.3373
  958POPC   GL213986   7.609   6.186   6.448 -0.0671  0.4710 -0.1549
  958POPC   C1A13987   7.230   6.011   6.660 -0.3667  0.0282  0.0795
  958POPC   D2A13988   6.975   6.266   6.874 -0.1551 -0.2596  0.2675
  958POPC   C3A13989   6.905   6.180   7.273  0.1988 -0.1931  0.3247
  958POPC   C4A13990   6.669   6.256   7.560  0.0231  0.1668 -0.0329
  958POPC   C1B13991   7.842   6.223   6.877  0.0518 -0.1011 -0.0747
  958POPC   C2B13992   7.709   6.082   7.277  0.3596 -0.3601  0.0740
  958POPC   C3B13993   7.646   5.985   7.700  0.0697  0.1294  0.1736
  958POPC   C4B13994   8.031   6.165   7.950 -0.1472 -0.0463 -0.1427
  959POPC   NC313995   1.135  10.611   5.091 -0.0884 -0.1960 -0.0872
  959POPC   PO413996   1.467  10.390   5.407  0.1732 -0.1378  0.1700
  959POPC   GL113997   1.711  10.517   5.785 -0.1164  0.2293  0.1893
  959POPC   GL213998   1.902  10.314   5.935 -0.1022  0.3065  0.1639
  959POPC   C1A13999   1.519  10.674   6.140 -0.0163  0.0047  0.2296
  959POPC   D2A14000   1.224  10.932   6.283 -0.4144  0.2229 -0.2036
  959POPC   C3A14001   1.404  10.951   6.779  0.0871 -0.0080  0.3579
  959POPC   C4A14002   1.693  11.311   7.043  0.0625  0.0586 -0.4177
  959POPC   C1B14003   1.711  10.209   6.270  0.0922  0.0717 -0.2705
  959POPC   C2B14004   1.676   9.832   6.522  0.1643  0.0711 -0.0192
  959POPC   C3B14005   1.837   9.678   6.881  0.0613 -0.2519  0.2885
  959POPC   C4B14006   2.105   9.533   7.187  0.0600  0.0984  0.3057
  960POPC   NC314007   2.948   9.818   5.655 -0.1479  0.1304  0.2462
  960POPC   PO414008   3.126   9.564   5.890 -0.0834 -0.0574  0.1523
  960POPC   GL114009   2.999   9.310   6.310  0.3695 -0.0584 -0.1899
  960POPC   GL214010   2.716   9.023   6.250  0.1604  0.1817 -0.3313
  960POPC   C1A14011   2.793   9.417   6.759 -0.2635  0.0028  0.0088
  960POPC   D2A14012   2.587   9.562   7.196 -0.0553  0.1890  0.0283
  960POPC   C3A14013   2.446   9.267   7.513  0.1326 -0.2106  0.2387
  960POPC   C4A14014   2.642   9.190   7.920 -0.2518 -0.0624 -0.0149
  960POPC   C1B14015   2.807   8.901   6.592 -0.2896  0.1907  0.2282
  960POPC   C2B14016   3.154   8.982   6.794 -0.0217 -0.0080  0.1128
  960POPC   C3B14017   3.281   9.089   7.180  0.1262  0.1218  0.2313
  960POPC   C4B14018   3.427   9.199   7.677 -0.0735 -0.0981  0.2933
  961POPC   NC314019  16.012  16.241   5.500  0.0195  0.2202  0.1988
  961POPC   PO414020  16.453  15.977   5.607 -0.0421  0.1074 -0.1649
  961POPC   GL114021  16.135  15.884   5.833  0.1890  0.2174 -0.0612
  961POPC   GL214022  15.887  16.014   5.964 -0.2402 -0.2546 -0.5209
  961POPC   C1A14023  16.113  15.570   6.168  0.1388 -0.1701  0.2569
  961POPC   D2A14024  15.928  15.165   6.429 -0.0106  0.1133  0.0863
  961POPC   C3A14025  16.232  14.825   6.427  0.0232 -0.3147  0.4028
  961POPC   C4A14026  16.467  14.488   6.730  0.2458  0.0809  0.0735
  961POPC   C1B14027  16.261  16.108   6.269 -0.2334  0.2232  0.1169
  961POPC   C2B14028  16.440  16.201   6.500  0.3582 -0.0988  0.0488
  961POPC   C3B14029  16.897  16.286   6.515 -0.1479  0.0577 -0.2469
  961POPC   C4B14030  16.992  16.633   6.779  0.0461 -0.1232  0.3293
  962POPC   NC314031  14.098  17.052   5.795  0.0274  0.0927  0.1749
  962POPC   PO414032  13.724  17.445   5.686  0.0647 -0.1763  0.1128
  962POPC   GL114033  13.796  17.590   6.119 -0.0071 -0.1518 -0.0942
  962POPC   GL214034  14.038  17.490   6.095 -0.1997  0.0499  0.2601
  962POPC   C1A14035  13.844  17.685   6.502 -0.0421  0.3168  0.0572
  962POPC   D2A14036  14.098  17.643   6.899  0.0887  0.0161  0.1330
  962POPC   C3A14037  14.146  18.128   6.998 -0.1479  0.1837 -0.0309
  962POPC   C4A14038  14.432  18.189   7.177  0.0601 -0.2210 -0.2384
  962POPC   C1B14039  14.164  17.267   6.475 -0.3715 -0.0317  0.3243
  962POPC   C2B14040  14.103  17.115   6.918  0.0334 -0.0356 -0.0456
  962POPC   C3B14041  14.020  17.392   7.324  0.1010  0.0021  0.2671
  962POPC   C4B14042  13.951  17.472   7.752 -0.1624 -0.2872 -0.0639
  963POPC   NC314043   5.727   6.490   5.712 -0.5484  0.1427  0.2091
  963POPC   PO414044   5.811   6.490   6.141  0.1640 -0.1033 -0.0687
  963POPC   GL114045   5.840   6.334   6.506  0.3403 -0.2480 -0.1417
  963POPC   GL214046   5.722   6.636   6.671  0.0614 -0.1085 -0.1147
  963POPC   C1A14047   5.799   6.140   6.853 -0.1016 -0.2067 -0.1330
  963POPC   D2A14048   5.486   5.941   7.257  0.0043 -0.0984 -0.0262
  963POPC   C3A14049   5.721   5.664   7.524  0.2763  0.0897 -0.2924
  963POPC   C4A14050   6.052   5.577   7.813  0.0648 -0.2536 -0.3310
  963POPC   C1B14051   5.512   6.899   7.104 -0.0117  0.1738 -0.0082
  963POPC   C2B14052   5.555   7.098   7.509  0.1956  0.1421 -0.2442
  963POPC   C3B14053   5.810   7.276   7.848 -0.1034  0.2146 -0.2221
  963POPC   C4B14054   5.904   7.323   8.247  0.0202  0.3281  0.0870
  964POPC   NC314055   3.879   5.095   5.787 -0.5117 -0.1037 -0.1758
  964POPC   PO414056   3.838   4.678   5.852 -0.1007 -0.1348 -0.2600
  964POPC   GL114057   3.585   4.828   6.061  0.0696 -0.1263 -0.0979
  964POPC   GL214058   3.397   5.117   6.012  0.2869  0.1262  0.1378
  964POPC   C1A14059   3.258   4.645   6.322  0.1996  0.0324  0.2187
  964POPC   D2A14060   3.029   4.611   6.867  0.1403 -0.3742  0.0838
  964POPC   C3A14061   3.220   4.644   7.211  0.0670  0.0369  0.0054
  964POPC   C4A14062   3.557   4.440   7.512  0.2184 -0.2286 -0.2027
  964POPC   C1B14063   3.038   5.110   6.232 -0.1033  0.3301  0.2510
  964POPC   C2B14064   2.986   5.152   6.633 -0.0216  0.0978 -0.0152
  964POPC   C3B14065   2.900   5.075   6.996 -0.0205  0.3645 -0.1173
  964POPC   C4B14066   2.741   4.820   7.310  0.1656  0.1958 -0.1459
  965POPC   NC314067  17.621   0.596   5.639  0.1482 -0.1258  0.0583
  965POPC   PO414068  17.895   0.820   5.654 -0.1429  0.2313 -0.1055
  965POPC   GL114069  17.952   1.004   6.130  0.1373 -0.1543 -0.0934
  965POPC   GL214070  17.804   0.850   6.342  0.2810 -0.1407  0.0028
  965POPC   C1A14071  18.155   1.106   6.517 -0.1211 -0.1087 -0.2848
  965POPC   D2A14072  18.246   1.054   6.918  0.1179 -0.1361  0.1908
  965POPC   C3A14073  18.533   0.905   7.201 -0.1130 -0.2407 -0.1042
  965POPC   C4A14074  18.599   0.868   7.603  0.0402 -0.3220  0.2382
  965POPC   C1B14075  17.684   0.886   6.854  0.1946 -0.1819  0.2622
  965POPC   C2B14076  17.981   0.689   7.148 -0.1109 -0.1407  0.0149
  965POPC   C3B14077  18.221   0.522   7.372  0.0116 -0.1846  0.0549
  965POPC   C4B14078  18.405   0.078   7.439  0.4195  0.0135  0.3086
  966POPC   NC314079   0.991   9.198   5.942 -0.0895 -0.2978 -0.0761
  966POPC   PO414080   0.603   9.021   5.799 -0.1766 -0.1662 -0.1767
  966POPC   GL114081   0.347   8.858   6.199  0.3191  0.3137  0.0272
  966POPC   GL214082   0.188   8.569   6.340 -0.1626 -0.1524 -0.0130
  966POPC   C1A14083   0.352   9.059   6.696  0.2823 -0.0082  0.1821
  966POPC   D2A14084   0.306   9.041   7.045  0.4667  0.0120  0.1473
  966POPC   C3A14085   0.281   9.430   7.190  0.0901 -0.1703 -0.0971
  966POPC   C4A14086   0.035   9.754   7.334 -0.0907  0.0913 -0.1358
  966POPC   C1B14087   0.295   8.584   6.804  0.1368  0.1390  0.0728
  966POPC   C2B14088   0.676   8.786   6.950  0.1751  0.1203  0.2261
  966POPC   C3B14089   0.711   8.911   7.359  0.0827 -0.4813  0.0283
  966POPC   C4B14090   0.952   8.699   7.557 -0.1535  0.0987  0.1169
  967POPC   NC314091  11.240   1.170   5.679 -0.2671 -0.0593  0.1988
  967POPC   PO414092  10.780   1.365   5.673 -0.2733  0.0355  0.2561
  967POPC   GL114093  10.841   1.364   6.045  0.0385 -0.0951  0.1324
  967POPC   GL214094  10.674   1.638   6.122 -0.1826  0.2404 -0.0738
  967POPC   C1A14095  10.659   1.064   6.345  0.2229  0.1827 -0.1463
  967POPC   D2A14096  10.696   0.752   6.642  0.0950  0.3984 -0.1141
  967POPC   C3A14097  10.293   0.775   6.964  0.1598 -0.0912  0.1633
  967POPC   C4A14098  10.170   0.926   7.388 -0.0771  0.0870  0.1355
  967POPC   C1B14099  11.017   1.582   6.518 -0.1467  0.1186 -0.0894
  967POPC   C2B14100  11.021   1.628   6.953 -0.1888 -0.3156  0.3805
  967POPC   C3B14101  11.108   1.320   7.255  0.2822 -0.2112 -0.1409
  967POPC   C4B14102  11.000   1.104   7.662 -0.0071  0.1737  0.1572
  968POPC   NC314103  13.892   9.918   5.907  0.3705 -0.3860  0.2275
  968POPC   PO414104  13.880   9.484   5.972  0.2447 -0.0982  0.2903
  968POPC   GL114105  14.031   9.432   6.338  0.2641 -0.2441 -0.1363
  968POPC   GL214106  14.190   9.181   6.588  0.0650  0.3369  0.2669
  968POPC   C1A14107  14.004   9.675   6.669 -0.0998  0.2425  0.0631
  968POPC   D2A14108  13.898   9.841   7.015  0.0228 -0.1382  0.0059
  968POPC   C3A14109  13.737  10.195   7.305 -0.1521  0.4896  0.3506
  968POPC   C4A14110  13.617  10.247   7.777  0.1894 -0.1483  0.0817
  968POPC   C1B14111  14.032   9.092   6.875 -0.2760 -0.0246 -0.1686
  968POPC   C2B14112  13.940   9.400   7.230  0.0425  0.1146 -0.0792
  968POPC   C3B14113  13.702   9.689   7.479  0.0175  0.0886  0.3130
  968POPC   C4B14114  13.319   9.667   7.746  0.2805 -0.2562  0.1822
  969POPC   NC314115  14.394   7.239   6.159  0.3581  0.0434  0.2117
  969POPC   PO414116  14.047   7.445   6.210 -0.0805 -0.0220  0.2402
  969POPC   GL114117  14.294   7.462   6.584  0.1345 -0.2141  0.0139
  969POPC   GL214118  14.230   7.810   6.845 -0.3885  0.2722 -0.3244
  969POPC   C1A14119  14.447   6.982   6.800  0.3599 -0.2185  0.2680
  969POPC   D2A14120  14.587   6.874   7.225 -0.1945 -0.3218 -0.0276
  969POPC   C3A14121  14.987   6.974   7.272  0.3011  0.0662 -0.0048
  969POPC   C4A14122  15.420   6.878   7.494  0.2960 -0.1697  0.4853
  969POPC   C1B14123  14.255   7.403   7.035 -0.0403 -0.1062 -0.0248
  969POPC   C2B14124  14.302   7.208   7.475 -0.3014  0.1616 -0.2182
  969POPC   C3B14125  14.568   6.977   7.699  0.0985  0.0899  0.0391
  969POPC   C4B14126  14.689   6.734   8.016 -0.1383  0.1764  0.1868
  970POPC   NC314127   2.100  16.965   5.185 -0.0456 -0.2486 -0.0510
  970POPC   PO414128   1.766  17.303   5.445  0.4474  0.0626 -0.2010
  970POPC   GL114129   1.583  17.523   5.746 -0.0145 -0.0044 -0.1653
  970POPC   GL214130   1.333  17.312   5.851  0.2916  0.0419  0.0440
  970POPC   C1A14131   1.812  17.941   5.959 -0.2150  0.0339 -0.2000
  970POPC   D2A14132   2.195  18.295   6.152 -0.1630 -0.1369  0.2835
  970POPC   C3A14133   2.342  18.317   6.661 -0.0846  0.1266  0.0119
  970POPC   C4A14134   2.312  17.967   7.004  0.1089 -0.1209 -0.0514
  970POPC   C1B14135   1.557  17.474   6.200 -0.1325 -0.0792  0.0172
  970POPC   C2B14136   1.748  17.496   6.531  0.1536  0.3032 -0.2447
  970POPC   C3B14137   1.878  17.718   6.901 -0.0792  0.0440 -0.1557
  970POPC   C4B14138   1.747  18.142   6.923 -0.1190  0.0151  0.0054
  971POPC   NC314139   6.799   8.701   6.177 -0.0589 -0.1559 -0.0358
  971POPC   PO414140   6.638   8.428   6.319  0.0319 -0.0160  0.1161
  971POPC   GL114141   6.434   8.595   6.623 -0.1230 -0.2167  0.2943
  971POPC   GL214142   6.167   8.367   6.841  0.0075  0.0577  0.0839
  971POPC   C1A14143   6.496   8.850   7.068 -0.1432  0.0776 -0.2965
  971POPC   D2A14144   6.494   8.809   7.555  0.1501  0.3440 -0.1419
  971POPC   C3A14145   6.881   8.858   7.835  0.1565  0.0127 -0.2034
  971POPC   C4A14146   6.893   8.720   8.264  0.1075  0.2475 -0.3486
  971POPC   C1B14147   6.184   8.139   7.149  0.0240  0.1612 -0.0692
  971POPC   C2B14148   6.257   8.214   7.645  0.1739  0.0085 -0.1077
  971POPC   C3B14149   6.187   8.296   8.017 -0.4415  0.1006 -0.1231
  971POPC   C4B14150   6.501   8.367   8.401 -0.0053  0.0879 -0.1196
  972POPC   NC314151   9.402   1.178   5.521  0.2478  0.4015  0.0860
  972POPC   PO414152   9.567   0.827   5.659 -0.0532  0.2286 -0.2579
  972POPC   GL114153   9.310   0.676   6.011  0.0352  0.1053  0.1362
  972POPC   GL214154   9.306   0.309   6.139 -0.0189  0.1070 -0.1526
  972POPC   C1A14155   9.282   0.843   6.392  0.1785  0.0219  0.0106
  972POPC   D2A14156   9.182   0.836   6.881 -0.3231 -0.0369  0.0980
  972POPC   C3A14157   8.937   1.115   7.056 -0.1949 -0.1199  0.0530
  972POPC   C4A14158   8.615   1.392   6.970 -0.3173  0.0135  0.1555
  972POPC   C1B14159   9.463   0.261   6.552  0.0311 -0.1001  0.0636
  972POPC   C2B14160   9.530   0.431   6.872  0.3494 -0.2905 -0.0212
  972POPC   C3B14161   9.271   0.518   7.272 -0.1053 -0.1853 -0.0813
  972POPC   C4B14162   8.996   0.881   7.499  0.0740 -0.1510 -0.2641
  973POPC   NC314163  13.069   1.559   5.613 -0.2603  0.0569  0.3076
  973POPC   PO414164  12.988   1.880   5.805  0.0694 -0.1483  0.2032
  973POPC   GL114165  12.992   1.858   6.335 -0.0228  0.2001 -0.4913
  973POPC   GL214166  12.923   2.009   6.554 -0.1883  0.0377  0.1842
  973POPC   C1A14167  13.177   1.616   6.687  0.2109 -0.3055  0.0452
  973POPC   D2A14168  13.056   1.309   7.074 -0.1775 -0.2031  0.2477
  973POPC   C3A14169  12.801   1.258   7.538 -0.1898 -0.2592 -0.1670
  973POPC   C4A14170  12.817   1.157   7.998 -0.0133  0.1107  0.1900
  973POPC   C1B14171  12.949   2.451   6.768 -0.0114  0.0094  0.2343
  973POPC   C2B14172  12.903   2.595   7.239  0.1039  0.0529  0.0547
  973POPC   C3B14173  12.805   2.790   7.661  0.1663  0.1557  0.1735
  973POPC   C4B14174  12.924   3.115   7.985  0.0738  0.0905  0.0801
  974POPC   NC314175  10.260   5.246   5.498 -0.2845  0.2695 -0.1598
  974POPC   PO414176  10.080   5.686   5.406  0.0489  0.2995  0.2300
  974POPC   GL114177  10.015   5.615   5.796 -0.0966 -0.1584 -0.4890
  974POPC   GL214178   9.764   5.767   6.033 -0.0240  0.1338 -0.0370
  974POPC   C1A14179  10.163   5.341   6.160 -0.1846 -0.1254  0.2460
  974POPC   D2A14180  10.241   5.329   6.632  0.0197 -0.1515 -0.2952
  974POPC   C3A14181  10.659   5.310   6.752 -0.1964  0.0681 -0.0666
  974POPC   C4A14182  10.963   5.158   7.093 -0.1571  0.1087 -0.1239
  974POPC   C1B14183   9.686   5.444   6.316  0.1968  0.0188 -0.0261
  974POPC   C2B14184   9.703   5.137   6.515 -0.0729 -0.0757 -0.0835
  974POPC   C3B14185   9.876   5.038   6.878  0.5511 -0.2343 -0.0675
  974POPC   C4B14186  10.070   4.882   7.266  0.2876  0.0689 -0.2408
  975POPC   NC314187   7.579   8.414   6.053 -0.0815 -0.1085  0.0622
  975POPC   PO414188   7.345   8.807   6.148 -0.0347  0.0788 -0.2216
  975POPC   GL114189   7.550   8.701   6.557  0.0216 -0.0674  0.2165
  975POPC   GL214190   7.844   8.467   6.618  0.1408  0.0852  0.2161
  975POPC   C1A14191   7.538   8.696   6.996 -0.2208  0.0267 -0.0327
  975POPC   D2A14192   7.419   8.386   7.314  0.2180  0.1208  0.0628
  975POPC   C3A14193   7.716   8.239   7.592  0.0280 -0.0340 -0.2245
  975POPC   C4A14194   7.841   8.415   7.987 -0.0042 -0.1562  0.1421
  975POPC   C1B14195   8.051   8.601   6.887  0.1376  0.2599 -0.0080
  975POPC   C2B14196   7.971   8.520   7.273  0.0478  0.1582 -0.0997
  975POPC   C3B14197   7.675   8.803   7.554 -0.0315 -0.1601 -0.0162
  975POPC   C4B14198   7.812   9.280   7.613  0.0980 -0.0848 -0.2662
  976POPC   NC314199  15.298   3.290   5.658  0.0064 -0.1501  0.0488
  976POPC   PO414200  15.021   2.927   5.543 -0.1157  0.3496 -0.1322
  976POPC   GL114201  14.975   3.085   5.966 -0.0788  0.2905 -0.1350
  976POPC   GL214202  14.850   2.787   6.130  0.1229 -0.2231 -0.0847
  976POPC   C1A14203  14.985   3.270   6.404  0.1241 -0.0633 -0.0522
  976POPC   D2A14204  15.026   3.198   6.813  0.1714 -0.0826 -0.0898
  976POPC   C3A14205  14.802   3.281   7.148 -0.1980  0.1012 -0.0433
  976POPC   C4A14206  14.837   3.406   7.579 -0.2238 -0.0006 -0.0503
  976POPC   C1B14207  14.700   2.565   6.592  0.1427 -0.2105 -0.1099
  976POPC   C2B14208  14.922   2.712   6.892  0.1584 -0.0419  0.2424
  976POPC   C3B14209  15.052   2.846   7.225  0.0603 -0.0510  0.2012
  976POPC   C4B14210  15.098   2.922   7.656 -0.1700  0.2519  0.0170
  977POPC   NC314211   0.625   3.903   5.359  0.3577 -0.1415  0.0637
  977POPC   PO414212   0.516   4.276   5.614 -0.1389 -0.0481 -0.3145
  977POPC   GL114213   0.446   4.369   6.016  0.1157 -0.0131  0.0384
  977POPC   GL214214   0.371   4.734   6.034 -0.1010 -0.0715 -0.3771
  977POPC   C1A14215   0.144   4.381   6.352  0.0636 -0.3498  0.2885
  977POPC   D2A14216  -0.130   4.650   6.442 -0.0904  0.2100  0.1192
  977POPC   C3A14217  -0.504   4.489   6.578 -0.5356  0.0544 -0.2940
  977POPC   C4A14218  -0.888   4.595   6.775  0.2540 -0.4800 -0.1505
  977POPC   C1B14219   0.325   4.861   6.469  0.0274 -0.0444 -0.3044
  977POPC   C2B14220   0.162   4.623   6.851  0.0329 -0.2269 -0.0741
  977POPC   C3B14221  -0.106   4.300   6.953  0.2536  0.0898  0.0878
  977POPC   C4B14222  -0.327   3.846   6.923 -0.2535 -0.1656  0.1584
  978POPC   NC314223   5.784   7.601   6.330 -0.1130 -0.1373 -0.1170
  978POPC   PO414224   6.208   7.410   6.421  0.0652 -0.2489  0.3800
  978POPC   GL114225   6.532   7.555   6.558  0.0311 -0.0217  0.1043
  978POPC   GL214226   6.755   7.516   6.768  0.1459  0.2375 -0.0455
  978POPC   C1A14227   6.541   7.998   6.765 -0.3405  0.1928  0.2664
  978POPC   D2A14228   6.644   8.248   7.223 -0.0407 -0.2086 -0.2135
  978POPC   C3A14229   6.758   8.310   7.676  0.0889  0.0858 -0.0674
  978POPC   C4A14230   6.873   8.255   8.054 -0.0772  0.2154  0.1802
  978POPC   C1B14231   6.803   7.738   7.137 -0.3218  0.0302  0.1945
  978POPC   C2B14232   6.550   7.848   7.524 -0.0804 -0.0497 -0.2616
  978POPC   C3B14233   6.497   7.832   7.914  0.0522 -0.0249 -0.1995
  978POPC   C4B14234   6.762   7.781   8.269 -0.1818 -0.1235  0.0138
  979POPC   NC314235   3.126  12.840   5.785 -0.0917 -0.3667 -0.1168
  979POPC   PO414236   3.131  12.332   5.792  0.0712 -0.0935  0.3052
  979POPC   GL114237   3.398  12.175   6.234 -0.0272 -0.3644  0.0272
  979POPC   GL214238   3.786  12.131   6.107  0.0475  0.2679  0.0871
  979POPC   C1A14239   3.434  12.259   6.612 -0.1093  0.3676  0.1617
  979POPC   D2A14240   3.296  12.475   7.130  0.3823 -0.2896 -0.1584
  979POPC   C3A14241   3.612  12.654   7.424  0.2170  0.1133 -0.0392
  979POPC   C4A14242   3.951  12.418   7.639 -0.1712 -0.3369 -0.2379
  979POPC   C1B14243   3.993  12.258   6.495  0.3461 -0.0473 -0.1423
  979POPC   C2B14244   4.370  12.456   6.629  0.1758 -0.1639 -0.1091
  979POPC   C3B14245   4.747  12.366   6.954 -0.0213 -0.2177  0.1622
  979POPC   C4B14246   4.965  12.314   7.328 -0.1074 -0.1374 -0.3829
  980POPC   NC314247  12.899   8.428   5.597  0.1771 -0.6047 -0.0555
  980POPC   PO414248  12.452   8.437   5.831  0.1448 -0.1966  0.3312
  980POPC   GL114249  12.368   8.270   6.272 -0.1355  0.0593  0.1269
  980POPC   GL214250  12.031   8.351   6.428 -0.1970 -0.0188  0.1881
  980POPC   C1A14251  12.241   7.772   6.507 -0.0116 -0.0339  0.0327
  980POPC   D2A14252  11.837   7.484   6.414 -0.0341  0.2103  0.1198
  980POPC   C3A14253  11.855   7.237   6.755  0.2004 -0.0399 -0.0221
  980POPC   C4A14254  11.942   7.118   7.218  0.0273 -0.3704  0.0235
  980POPC   C1B14255  11.941   8.064   6.791  0.0260  0.0453 -0.0433
  980POPC   C2B14256  11.784   7.979   7.170 -0.5315 -0.1556  0.0341
  980POPC   C3B14257  11.758   7.982   7.549 -0.1684 -0.0179  0.1020
  980POPC   C4B14258  11.894   8.203   7.875  0.1241 -0.0461 -0.0714
  981YOPC   NC314259   7.770  15.240   5.614  0.0715  0.0651  0.0473
  981YOPC   PO414260   7.758  15.342   6.045 -0.2749  0.0411 -0.1386
  981YOPC   GL114261   7.729  15.426   6.462  0.0408  0.1200  0.0228
  981YOPC   GL214262   7.411  15.395   6.453 -0.1430  0.3039  0.1932
  981YOPC   C1A14263   8.029  15.432   6.825 -0.0221  0.0400 -0.2391
  981YOPC   D2A14264   7.890  15.340   7.211 -0.2616  0.3306  0.1719
  981YOPC   C3A14265   7.825  15.406   7.639  0.0600 -0.0316  0.0616
  981YOPC   C4A14266   7.561  15.314   7.945 -0.1512  0.3762 -0.2935
  981YOPC   C1B14267   7.315  15.768   6.494  0.1775  0.1190  0.3371
  981YOPC   C2B14268   7.242  16.039   6.839 -0.1738 -0.2404  0.0342
  981YOPC   D3B14269   7.040  16.496   6.899 -0.2884  0.2282 -0.1538
  981YOPC   C4B14270   6.877  16.723   6.541 -0.2136 -0.0574 -0.0851
  982YOPC   NC314271   6.208   2.738   5.568  0.3180 -0.1112  0.2650
  982YOPC   PO414272   6.379   2.362   5.526  0.0508  0.2847 -0.2886
  982YOPC   GL114273   6.637   2.509   5.789  0.1789  0.1183  0.0032
  982YOPC   GL214274   6.716   2.339   5.981 -0.2394  0.4353  0.0642
  982YOPC   C1A14275   6.978   2.728   6.096  0.3392  0.3452 -0.0597
  982YOPC   D2A14276   7.246   2.951   6.207 -0.3142 -0.0333 -0.2235
  982YOPC   C3A14277   7.566   2.948   6.473 -0.2932 -0.1206  0.2659
  982YOPC   C4A14278   8.028   3.115   6.562  0.2130  0.0005  0.1007
  982YOPC   C1B14279   6.791   2.454   6.429  0.0816 -0.0687  0.2298
  982YOPC   C2B14280   6.721   2.411   6.849  0.1560 -0.2327 -0.0386
  982YOPC   D3B14281   6.611   2.065   7.137  0.4987  0.0693  0.1503
  982YOPC   C4B14282   6.647   1.606   7.144  0.1768 -0.3887  0.0300
  983YOPC   NC314283  13.378  15.331   6.138  0.1432  0.0479 -0.2589
  983YOPC   PO414284  13.018  15.277   5.940 -0.1108  0.2259 -0.0737
  983YOPC   GL114285  12.821  15.288   6.356 -0.0847 -0.1896 -0.2033
  983YOPC   GL214286  12.809  15.628   6.489  0.3061 -0.1829 -0.0668
  983YOPC   C1A14287  12.452  14.991   6.660 -0.0710 -0.1771 -0.0792
  983YOPC   D2A14288  12.238  15.019   7.120 -0.1955  0.2753  0.1376
  983YOPC   C3A14289  12.337  14.779   7.459  0.2559  0.3073 -0.0348
  983YOPC   C4A14290  12.271  14.416   7.653 -0.2910 -0.2152  0.0955
  983YOPC   C1B14291  12.993  15.705   6.825 -0.1355 -0.0696 -0.1635
  983YOPC   C2B14292  12.924  15.706   7.240  0.1899 -0.0257  0.1523
  983YOPC   D3B14293  13.283  15.894   7.372 -0.0732  0.1414  0.0360
  983YOPC   C4B14294  13.284  16.305   7.628 -0.3483 -0.0392  0.2695
  984YOPC   NC314295   8.272  10.589   5.983 -0.2810 -0.1999 -0.0978
  984YOPC   PO414296   8.294  10.595   6.424  0.2265  0.0574  0.2098
  984YOPC   GL114297   8.435  10.353   6.665  0.1081 -0.2426 -0.0998
  984YOPC   GL214298   8.202  10.143   6.775  0.1167  0.1623  0.0814
  984YOPC   C1A14299   8.575  10.187   7.087  0.1288 -0.1065  0.2722
  984YOPC   D2A14300   8.327   9.779   7.158  0.1622 -0.1876  0.0268
  984YOPC   C3A14301   8.186   9.561   7.460 -0.1056 -0.1737 -0.0776
  984YOPC   C4A14302   8.249   9.380   7.845 -0.0506 -0.1666  0.0370
  984YOPC   C1B14303   8.013  10.237   7.196 -0.0875  0.1133  0.0252
  984YOPC   C2B14304   8.273  10.134   7.494 -0.0861  0.0551  0.4945
  984YOPC   D3B14305   8.437  10.032   7.897  0.4172 -0.1744  0.1493
  984YOPC   C4B14306   8.568   9.616   8.097  0.4554  0.2058 -0.2899
  985YOPC   NC314307  10.450  14.473   6.215  0.3943 -0.0250  0.3272
  985YOPC   PO414308  10.368  14.044   6.316  0.1195 -0.0188  0.1946
  985YOPC   GL114309  10.309  14.135   6.741 -0.0443 -0.1413 -0.1444
  985YOPC   GL214310   9.924  14.180   6.861 -0.0708  0.0102  0.0950
  985YOPC   C1A14311  10.501  14.413   7.045  0.0962 -0.0537 -0.1074
  985YOPC   D2A14312  10.408  14.268   7.511  0.0917 -0.0121  0.0919
  985YOPC   C3A14313  10.638  14.555   7.831  0.4101 -0.0758 -0.1979
  985YOPC   C4A14314  10.688  14.553   8.179  0.0055 -0.2025  0.2577
  985YOPC   C1B14315  10.003  14.558   7.169  0.0614 -0.1666  0.2036
  985YOPC   C2B14316  10.434  14.793   7.317 -0.0876  0.3270 -0.2027
  985YOPC   D3B14317  10.291  15.019   7.732  0.0945  0.0926 -0.1449
  985YOPC   C4B14318  10.285  15.057   8.196 -0.0096 -0.0792 -0.0540
  986YOPC   NC314319  15.975   8.957   5.554  0.0597 -0.2465 -0.1888
  986YOPC   PO414320  15.563   9.059   5.691  0.2163 -0.1469  0.0205
  986YOPC   GL114321  15.545   9.232   6.072  0.2179 -0.1505  0.1632
  986YOPC   GL214322  15.276   9.250   6.344 -0.0159 -0.0683  0.2413
  986YOPC   C1A14323  15.797   9.309   6.453  0.2580 -0.2863 -0.0806
  986YOPC   D2A14324  16.204   9.222   6.547  0.3939  0.0446  0.0464
  986YOPC   C3A14325  16.370   9.235   6.200  0.1770  0.0989 -0.2990
  986YOPC   C4A14326  16.685   9.388   6.008  0.4568  0.0423 -0.0895
  986YOPC   C1B14327  15.396   9.305   6.796 -0.2205 -0.0166  0.0033
  986YOPC   C2B14328  15.684   9.390   7.021 -0.1977  0.2490  0.1513
  986YOPC   D3B14329  16.046   9.578   6.861  0.0651 -0.1370  0.0887
  986YOPC   C4B14330  16.167   9.984   6.857 -0.1142  0.1502  0.1021
  987YOPC   NC314331  11.153   0.222   5.876 -0.1256  0.0368 -0.1225
  987YOPC   PO414332  11.165   0.669   5.763 -0.0624  0.1748 -0.0526
  987YOPC   GL114333  11.171   0.734   6.175  0.2241  0.0211 -0.0698
  987YOPC   GL214334  11.125   0.501   6.348 -0.0397  0.1543 -0.0616
  987YOPC   C1A14335  11.125   1.035   6.480  0.1505  0.0759 -0.4327
  987YOPC   D2A14336  10.854   1.173   6.827  0.0173  0.3787 -0.2964
  987YOPC   C3A14337  10.761   0.826   7.155  0.0353  0.1089 -0.3879
  987YOPC   C4A14338  11.015   0.641   7.512  0.0394 -0.2088  0.0247
  987YOPC   C1B14339  11.176   0.638   6.770  0.0865 -0.0277  0.1614
  987YOPC   C2B14340  11.283   0.856   7.074 -0.1748 -0.1697 -0.3197
  987YOPC   D3B14341  11.547   0.905   7.328  0.0275  0.1420  0.0371
  987YOPC   C4B14342  11.856   0.974   7.687  0.1145 -0.3676  0.2472
  988YOPC   NC314343  10.897  17.756   5.561 -0.2246  0.0471 -0.0032
  988YOPC   PO414344  10.829  18.261   5.721  0.3521  0.2611  0.0433
  988YOPC   GL114345  10.836  18.253   6.188 -0.0834  0.0137 -0.1714
  988YOPC   GL214346  11.188  18.349   6.308  0.1550  0.0223  0.1213
  988YOPC   C1A14347  10.704  18.451   6.552  0.0197 -0.0182 -0.1127
  988YOPC   D2A14348  10.550  18.666   6.889  0.1033  0.1591 -0.0533
  988YOPC   C3A14349  10.859  18.615   7.173 -0.0414  0.0074  0.0934
  988YOPC   C4A14350  10.982  18.451   7.673 -0.0585  0.2103  0.0492
  988YOPC   C1B14351  11.127  18.402   6.786 -0.1984  0.0267 -0.2472
  988YOPC   C2B14352  11.082  18.228   7.242 -0.1034  0.2335  0.0817
  988YOPC   D3B14353  11.255  18.061   7.547 -0.1466  0.0673 -0.0645
  988YOPC   C4B14354  11.689  17.746   7.496 -0.3710  0.1049 -0.0456
  989YOPC   NC314355  15.675  13.775   5.523 -0.0694 -0.2457 -0.0210
  989YOPC   PO414356  16.008  13.686   5.909 -0.1309 -0.0116  0.0728
  989YOPC   GL114357  16.092  13.379   6.316 -0.0150  0.0943 -0.0119
  989YOPC   GL214358  16.069  13.090   6.139  0.0347 -0.4184  0.1788
  989YOPC   C1A14359  16.063  13.357   6.757  0.0543 -0.3203 -0.0010
  989YOPC   D2A14360  15.861  13.366   7.156 -0.0506 -0.1586  0.0127
  989YOPC   C3A14361  16.112  13.535   7.489  0.0414  0.3212  0.3370
  989YOPC   C4A14362  16.344  13.915   7.541 -0.0091 -0.0487 -0.0296
  989YOPC   C1B14363  15.782  12.924   6.452 -0.1828  0.3039  0.4553
  989YOPC   C2B14364  15.676  13.028   6.832 -0.0764 -0.1400  0.2682
  989YOPC   D3B14365  15.733  12.757   7.166  0.0128 -0.3744  0.0748
  989YOPC   C4B14366  15.402  12.502   7.358  0.2139  0.0761  0.0808
  990YOPC   NC314367  15.580  13.450   6.070  0.0869 -0.0017  0.0746
  990YOPC   PO414368  15.331  13.810   6.210  0.0463  0.0059  0.0321
  990YOPC   GL114369  15.436  14.110   6.531 -0.2961 -0.0818 -0.1473
  990YOPC   GL214370  15.617  14.317   6.431  0.0469 -0.3237  0.3091
  990YOPC   C1A14371  15.459  14.321   7.006  0.1099  0.1597 -0.2908
  990YOPC   D2A14372  15.640  14.674   7.132  0.2436  0.1351 -0.2644
  990YOPC   C3A14373  15.981  14.544   7.383 -0.0360 -0.1147 -0.1003
  990YOPC   C4A14374  16.102  14.335   7.697  0.0736  0.1359  0.0190
  990YOPC   C1B14375  15.807  14.652   6.634 -0.1068  0.0587  0.0245
  990YOPC   C2B14376  16.087  14.916   6.961  0.2987 -0.2986 -0.2382
  990YOPC   D3B14377  15.924  15.086   7.407  0.1123 -0.1623  0.1678
  990YOPC   C4B14378  15.910  15.353   7.748 -0.1739  0.3599 -0.1076
  991YOPC   NC314379  15.437  12.490   5.694  0.3216 -0.1547  0.0757
  991YOPC   PO414380  15.045  12.548   5.889 -0.2834 -0.2602  0.0211
  991YOPC   GL114381  14.939  12.372   6.189  0.0140  0.2019 -0.3313
  991YOPC   GL214382  14.569  12.360   6.193  0.0639  0.0814 -0.1050
  991YOPC   C1A14383  14.878  12.417   6.660 -0.1501 -0.3287  0.1606
  991YOPC   D2A14384  14.862  12.424   7.073  0.0939  0.2528 -0.1686
  991YOPC   C3A14385  14.975  12.816   7.392 -0.0376  0.2351  0.2004
  991YOPC   C4A14386  15.001  12.924   7.792  0.2218 -0.1023  0.0270
  991YOPC   C1B14387  14.349  12.200   6.489  0.3633  0.4079  0.2966
  991YOPC   C2B14388  14.067  12.002   6.741 -0.2829 -0.1207  0.4244
  991YOPC   D3B14389  14.075  11.849   7.180 -0.1873 -0.0409  0.2238
  991YOPC   C4B14390  14.026  11.758   7.667  0.2136  0.1040  0.1490
  992YOPC   NC314391   8.722  10.807   6.135 -0.1406  0.1239 -0.2251
  992YOPC   PO414392   9.099  10.889   5.993 -0.1632  0.1586 -0.3441
  992YOPC   GL114393   9.258  10.975   6.415  0.1068  0.2112 -0.0513
  992YOPC   GL214394   9.611  10.955   6.528  0.1822  0.4125 -0.1374
  992YOPC   C1A14395   9.230  10.911   6.833 -0.0807  0.2264 -0.2779
  992YOPC   D2A14396   9.323  10.873   7.197  0.0354  0.3178 -0.1881
  992YOPC   C3A14397   9.324  11.251   7.409  0.1442 -0.1964  0.0474
  992YOPC   C4A14398   9.272  11.208   7.778 -0.0629  0.2872 -0.1881
  992YOPC   C1B14399   9.756  10.780   6.919 -0.1635  0.0962  0.0393
  992YOPC   C2B14400   9.887  10.963   7.287 -0.0403 -0.0655  0.2489
  992YOPC   D3B14401   9.735  11.100   7.689  0.0183 -0.0501  0.3203
  992YOPC   C4B14402   9.908  11.057   8.059  0.1900  0.1318 -0.1026
  993YOPC   NC314403   8.141  16.114   5.972 -0.1764 -0.1614  0.0381
  993YOPC   PO414404   8.021  16.470   6.129  0.1202 -0.0189  0.2127
  993YOPC   GL114405   7.886  16.629   6.488 -0.0274  0.0360 -0.0318
  993YOPC   GL214406   7.808  16.949   6.594  0.3334  0.1780  0.2405
  993YOPC   C1A14407   7.976  16.546   6.852  0.3275  0.4314 -0.2073
  993YOPC   D2A14408   8.052  16.467   7.318 -0.0631  0.0019  0.1638
  993YOPC   C3A14409   8.373  16.545   7.588  0.1612  0.3180 -0.1460
  993YOPC   C4A14410   8.739  16.596   7.728 -0.1924 -0.2810  0.0353
  993YOPC   C1B14411   7.726  16.879   7.042  0.0671  0.1109  0.0904
  993YOPC   C2B14412   7.667  16.706   7.569 -0.0425 -0.0583 -0.1919
  993YOPC   D3B14413   8.000  16.495   7.936  0.0857 -0.2491 -0.0345
  993YOPC   C4B14414   8.425  16.295   8.031  0.1707 -0.2097  0.0818
  994YOPC   NC314415   7.841  17.713   5.558  0.1367 -0.0441 -0.1487
  994YOPC   PO414416   8.122  18.124   5.636  0.0608  0.1541  0.2476
  994YOPC   GL114417   7.978  18.019   5.964 -0.1424  0.0923  0.0718
  994YOPC   GL214418   8.294  18.021   6.129  0.3433 -0.1384 -0.0223
  994YOPC   C1A14419   7.890  18.037   6.387 -0.0317 -0.1852 -0.0568
  994YOPC   D2A14420   7.836  17.860   6.765 -0.3432 -0.2056  0.1581
  994YOPC   C3A14421   7.723  17.492   6.612  0.2385 -0.3668  0.0436
  994YOPC   C4A14422   7.376  17.278   6.359 -0.5635 -0.0074  0.0701
  994YOPC   C1B14423   8.585  17.698   6.178  0.3687 -0.1887 -0.0865
  994YOPC   C2B14424   8.649  17.288   6.472  0.0984 -0.0670 -0.0766
  994YOPC   D3B14425   8.617  17.340   6.912  0.0758 -0.0375  0.0849
  994YOPC   C4B14426   8.637  17.441   7.294 -0.0448 -0.1042  0.1215
  995YOPC   NC314427  15.639   6.583   5.684 -0.1655  0.2067  0.0439
  995YOPC   PO414428  15.283   6.744   5.567  0.0547 -0.0732  0.0688
  995YOPC   GL114429  15.173   6.459   6.012 -0.1570  0.2217  0.0618
  995YOPC   GL214430  15.442   6.249   6.052  0.1080 -0.3946  0.1622
  995YOPC   C1A14431  15.082   6.354   6.403 -0.0510  0.1099  0.0476
  995YOPC   D2A14432  15.009   6.070   6.733  0.1318 -0.0201 -0.1562
  995YOPC   C3A14433  15.130   5.953   7.124 -0.2400  0.0096  0.1360
  995YOPC   C4A14434  15.217   6.071   7.507 -0.0989 -0.0291  0.1431
  995YOPC   C1B14435  15.442   5.984   6.493  0.1315 -0.0168  0.0462
  995YOPC   C2B14436  15.582   5.724   6.937  0.0955  0.1574  0.1728
  995YOPC   D3B14437  15.399   5.637   7.379  0.2065 -0.1554 -0.2831
  995YOPC   C4B14438  15.395   5.242   7.688 -0.0506  0.1239 -0.0986
  996YOPC   NC314439  17.545   5.230   5.211 -0.3202 -0.0093 -0.0153
  996YOPC   PO414440  17.510   4.958   5.535  0.3954 -0.0529 -0.1036
  996YOPC   GL114441  17.517   4.947   5.873  0.3003 -0.3422  0.1114
  996YOPC   GL214442  17.818   5.097   6.012  0.1141  0.2733  0.1038
  996YOPC   C1A14443  17.398   4.832   6.283 -0.1662  0.2702  0.1830
  996YOPC   D2A14444  17.385   5.079   6.664 -0.0401  0.1786 -0.0191
  996YOPC   C3A14445  17.405   5.018   7.033 -0.1212  0.2199 -0.0657
  996YOPC   C4A14446  17.233   4.617   7.256  0.2431 -0.0312  0.0869
  996YOPC   C1B14447  17.859   5.152   6.398  0.1579 -0.0507  0.1715
  996YOPC   C2B14448  17.747   5.460   6.704 -0.1013 -0.0234 -0.2549
  996YOPC   D3B14449  17.882   5.344   7.147 -0.1426 -0.0273 -0.2089
  996YOPC   C4B14450  18.152   5.292   7.393  0.1820  0.2958  0.0087
  997YOPC   NC314451   1.974  16.389   6.046 -0.0156  0.0194  0.2840
  997YOPC   PO414452   2.478  16.464   5.857  0.0738  0.0820 -0.2526
  997YOPC   GL114453   2.408  16.404   6.315 -0.2075  0.2256 -0.0764
  997YOPC   GL214454   2.613  16.653   6.410 -0.0761  0.0837  0.0061
  997YOPC   C1A14455   2.184  16.577   6.665 -0.0391  0.1432 -0.0881
  997YOPC   D2A14456   1.906  16.839   6.959  0.2002  0.0198 -0.1756
  997YOPC   C3A14457   1.957  17.250   7.209 -0.1323  0.1264  0.1140
  997YOPC   C4A14458   1.788  17.350   7.671 -0.1548 -0.1235 -0.0290
  997YOPC   C1B14459   2.826  16.874   6.772 -0.0619 -0.1081  0.0489
  997YOPC   C2B14460   3.198  16.992   7.009 -0.0851 -0.0825 -0.1179
  997YOPC   D3B14461   3.370  17.065   7.470  0.1469  0.0172  0.1464
  997YOPC   C4B14462   3.277  17.311   7.794  0.1283 -0.1084  0.0567
  998YOPC   NC314463   1.243   9.959   5.585  0.2486 -0.2121 -0.0520
  998YOPC   PO414464   1.365   9.494   5.713  0.1270 -0.2383  0.1406
  998YOPC   GL114465   1.318   9.640   6.125 -0.5314 -0.3667  0.0307
  998YOPC   GL214466   1.240   9.920   6.174 -0.4509  0.4159 -0.0689
  998YOPC   C1A14467   1.381   9.461   6.596 -0.3894 -0.1010  0.2478
  998YOPC   D2A14468   1.319   9.518   7.026 -0.2447 -0.1415 -0.2050
  998YOPC   C3A14469   1.626   9.590   7.339 -0.1544  0.1635  0.0070
  998YOPC   C4A14470   1.985   9.835   7.592 -0.1068 -0.0360 -0.1277
  998YOPC   C1B14471   1.231  10.009   6.676  0.1770 -0.0303  0.3170
  998YOPC   C2B14472   1.500  10.004   7.038 -0.1678  0.1604 -0.2254
  998YOPC   D3B14473   1.478  10.070   7.557 -0.2457  0.1503 -0.0469
  998YOPC   C4B14474   1.604  10.124   7.965 -0.2887  0.1116  0.0908
  999YOPC   NC314475   7.734   2.564   5.782 -0.1025 -0.0824 -0.1064
  999YOPC   PO414476   7.476   2.167   5.534 -0.0233  0.0318 -0.2643
  999YOPC   GL114477   7.484   1.777   5.788  0.1474 -0.1268  0.2844
  999YOPC   GL214478   7.819   1.570   5.931  0.0197 -0.0164  0.0146
  999YOPC   C1A14479   7.349   1.626   6.122  0.1158  0.0581 -0.0857
  999YOPC   D2A14480   7.653   1.461   6.397 -0.0537  0.0762  0.0092
  999YOPC   C3A14481   7.737   1.532   6.841  0.1236 -0.3262 -0.2881
  999YOPC   C4A14482   7.586   1.568   7.443 -0.3442 -0.0714 -0.0028
  999YOPC   C1B14483   8.145   1.588   6.221  0.1838 -0.0895 -0.3058
  999YOPC   C2B14484   8.309   1.696   6.688  0.2621 -0.0146  0.3542
  999YOPC   D3B14485   8.159   1.682   7.080 -0.0387  0.1249 -0.3641
  999YOPC   C4B14486   8.058   1.737   7.464  0.1101 -0.1674  0.2865
 1000YOPC   NC314487   3.907   2.945   5.760  0.0958  0.0486 -0.0567
 1000YOPC   PO414488   3.750   3.340   5.634  0.0353 -0.1201 -0.0070
 1000YOPC   GL114489   3.884   3.398   6.062  0.0163 -0.1400 -0.0585
 1000YOPC   GL214490   4.043   3.190   6.172 -0.2286  0.0705 -0.2160
 1000YOPC   C1A14491   3.639   3.429   6.355  0.0744 -0.2946  0.0372
 1000YOPC   D2A14492   3.478   3.852   6.370  0.0454  0.1616 -0.2450
 1000YOPC   C3A14493   3.235   3.885   6.732  0.0842 -0.0218 -0.1800
 1000YOPC   C4A14494   3.194   4.149   7.154 -0.0570 -0.1491  0.0968
 1000YOPC   C1B14495   4.006   3.174   6.602  0.0268 -0.1154  0.0193
 1000YOPC   C2B14496   3.820   3.119   6.992  0.1271 -0.2785  0.1057
 1000YOPC   D3B14497   4.019   3.066   7.375  0.2159 -0.2636 -0.3502
 1000YOPC   C4B14498   4.080   3.089   7.881 -0.1868 -0.2398 -0.2051
 1001YOPC   NC314499   0.996   1.222   5.645  0.4081  0.2163  0.1698
 1001YOPC   PO414500   1.316   1.019   5.760  0.0182 -0.1121  0.1319
 1001YOPC   GL114501   1.121   0.804   6.027 -0.0787 -0.1769  0.1963
 1001YOPC   GL214502   1.140   0.454   6.030 -0.1001  0.1075 -0.2104
 1001YOPC   C1A14503   1.278   0.758   6.431  0.0830  0.2938 -0.0911
 1001YOPC   D2A14504   1.389   0.868   6.944  0.1233 -0.0867  0.2647
 1001YOPC   C3A14505   1.331   0.665   7.284  0.2142  0.1067  0.0280
 1001YOPC   C4A14506   1.011   0.573   7.614 -0.2796  0.1641 -0.2605
 1001YOPC   C1B14507   1.287   0.222   6.419 -0.4113 -0.2121  0.4141
 1001YOPC   C2B14508   1.235   0.004   6.723 -0.3416  0.4066  0.0949
 1001YOPC   D3B14509   0.955  -0.112   6.897 -0.1165  0.0474  0.0910
 1001YOPC   C4B14510   0.570  -0.044   7.204  0.1658  0.0472  0.0288
 1002YOPC   NC314511   4.276  15.823   5.185  0.2088  0.2270  0.1894
 1002YOPC   PO414512   4.232  15.824   5.567  0.1380 -0.0146 -0.0393
 1002YOPC   GL114513   4.169  15.927   5.944  0.0736  0.2043  0.2023
 1002YOPC   GL214514   3.944  16.207   5.970  0.0624 -0.0709 -0.0840
 1002YOPC   C1A14515   4.242  16.062   6.430 -0.4893  0.0743  0.3768
 1002YOPC   D2A14516   4.502  16.188   6.831 -0.1082 -0.1007 -0.1845
 1002YOPC   C3A14517   4.510  16.317   7.264  0.1752  0.2370  0.2581
 1002YOPC   C4A14518   4.705  16.744   7.436 -0.1327 -0.1249 -0.1616
 1002YOPC   C1B14519   4.004  16.514   6.204  0.3174  0.0286 -0.1110
 1002YOPC   C2B14520   4.039  16.898   6.379  0.2461  0.2939 -0.1040
 1002YOPC   D3B14521   3.702  17.213   6.196  0.0191 -0.0496  0.1094
 1002YOPC   C4B14522   3.271  17.234   6.342 -0.2694 -0.0311  0.2742
 1003YOPC   NC314523  18.242  11.524   5.741  0.2934  0.0929  0.0618
 1003YOPC   PO414524  18.291  11.098   5.666  0.1586 -0.2426  0.0080
 1003YOPC   GL114525  18.372  11.168   6.129 -0.1640 -0.0401  0.1860
 1003YOPC   GL214526  18.622  10.970   6.292  0.2302 -0.1424  0.0298
 1003YOPC   C1A14527  18.306  11.276   6.646  0.0725  0.1486 -0.2976
 1003YOPC   D2A14528  17.950  11.189   6.929  0.0603 -0.0779 -0.2083
 1003YOPC   C3A14529  17.917  11.033   7.301  0.0302  0.4973 -0.0686
 1003YOPC   C4A14530  18.126  10.794   7.574 -0.1350  0.4545  0.1245
 1003YOPC   C1B14531  18.618  10.926   6.678 -0.0125 -0.0564  0.0064
 1003YOPC   C2B14532  18.603  11.098   7.078 -0.2921  0.1658 -0.0128
 1003YOPC   D3B14533  18.956  10.930   7.330 -0.0073 -0.2076 -0.3093
 1003YOPC   C4B14534  19.329  10.950   7.676  0.3266 -0.0177  0.0159
 1004YOPC   NC314535   7.323   1.752   5.345  0.0873  0.1078 -0.1020
 1004YOPC   PO414536   6.863   1.650   5.303 -0.0900 -0.3303  0.1100
 1004YOPC   GL114537   6.984   1.601   5.735 -0.0410  0.1472 -0.0478
 1004YOPC   GL214538   6.667   1.409   5.892 -0.3591 -0.0756  0.2956
 1004YOPC   C1A14539   6.910   1.844   6.086  0.0655 -0.1273  0.0847
 1004YOPC   D2A14540   6.802   1.924   6.547 -0.0081 -0.0150  0.2174
 1004YOPC   C3A14541   7.080   2.045   6.880 -0.0528 -0.1016 -0.0752
 1004YOPC   C4A14542   7.298   2.437   6.847  0.0172  0.3318  0.3049
 1004YOPC   C1B14543   6.911   1.425   6.305 -0.0911  0.0569 -0.0046
 1004YOPC   C2B14544   7.221   1.706   6.587 -0.0828  0.2032  0.2138
 1004YOPC   D3B14545   7.262   2.092   6.303 -0.0953  0.2949 -0.3268
 1004YOPC   C4B14546   7.401   2.491   6.380  0.0802  0.1789 -0.1251
 1005YOPC   NC314547   1.449   6.377   5.764  0.3856  0.2070 -0.0757
 1005YOPC   PO414548   1.914   6.525   5.813  0.0285 -0.0791 -0.0594
 1005YOPC   GL114549   1.866   6.605   6.262  0.1388  0.0223  0.1880
 1005YOPC   GL214550   2.200   6.789   6.473 -0.0272  0.0298 -0.1814
 1005YOPC   C1A14551   1.605   6.940   6.484  0.2960  0.1113  0.2473
 1005YOPC   D2A14552   1.678   7.201   6.797 -0.0952 -0.1969  0.1571
 1005YOPC   C3A14553   1.647   7.145   7.153 -0.1083 -0.2055 -0.1913
 1005YOPC   C4A14554   1.450   7.319   7.526  0.1270  0.0526 -0.0897
 1005YOPC   C1B14555   1.926   6.661   6.790  0.2530  0.0736  0.0453
 1005YOPC   C2B14556   1.641   6.476   7.019  0.1811 -0.0606 -0.3938
 1005YOPC   D3B14557   1.716   6.356   7.427  0.2107 -0.0382  0.1063
 1005YOPC   C4B14558   1.881   6.569   7.790  0.3195  0.0095 -0.2343
 1006YOPC   NC314559  10.001  17.391   5.803  0.1703 -0.0558  0.0899
 1006YOPC   PO414560   9.574  17.418   5.859 -0.3205 -0.0708 -0.0548
 1006YOPC   GL114561   9.624  17.501   6.312 -0.2249 -0.3133 -0.0616
 1006YOPC   GL214562   9.896  17.556   6.371  0.0032  0.0161 -0.1071
 1006YOPC   C1A14563   9.573  17.635   6.744  0.0520 -0.0397  0.0193
 1006YOPC   D2A14564   9.544  17.797   7.215  0.0863 -0.0630  0.0308
 1006YOPC   C3A14565   9.455  17.989   7.632  0.2127 -0.1090  0.0907
 1006YOPC   C4A14566   9.255  17.895   7.936 -0.0615  0.0466  0.1880
 1006YOPC   C1B14567   9.989  17.372   6.681 -0.0879  0.1110 -0.1567
 1006YOPC   C2B14568   9.705  17.344   7.109 -0.2220 -0.0583  0.0948
 1006YOPC   D3B14569   9.258  17.326   7.122 -0.1018  0.3220  0.1330
 1006YOPC   C4B14570   8.978  17.207   7.525 -0.1830  0.0576  0.1314
 1007YOPC   NC314571  12.216   9.216   5.566  0.0123  0.0983 -0.0371
 1007YOPC   PO414572  12.122   9.311   6.010 -0.2520 -0.0494  0.1318
 1007YOPC   GL114573  12.001   9.059   6.463  0.1171  0.1043 -0.0969
 1007YOPC   GL214574  12.274   9.059   6.689  0.2127 -0.3420 -0.2846
 1007YOPC   C1A14575  11.807   8.669   6.738 -0.2886 -0.2140 -0.1215
 1007YOPC   D2A14576  11.901   8.491   7.137  0.2542 -0.3264  0.0404
 1007YOPC   C3A14577  11.831   8.581   7.509 -0.1326 -0.0139  0.0957
 1007YOPC   C4A14578  11.830   8.823   7.863 -0.0740  0.0724 -0.0876
 1007YOPC   C1B14579  12.094   9.319   6.907  0.2421  0.1384 -0.0587
 1007YOPC   C2B14580  12.125   9.513   7.355 -0.2483 -0.3240 -0.0000
 1007YOPC   D3B14581  12.448   9.640   7.520  0.1884 -0.2857 -0.0378
 1007YOPC   C4B14582  12.868   9.785   7.604 -0.1817 -0.0161 -0.0949
 1008YOPC   NC314583   2.382  14.333   5.477  0.0597  0.1270  0.0599
 1008YOPC   PO414584   2.827  14.274   5.753  0.0285  0.1160  0.4568
 1008YOPC   GL114585   2.647  14.282   6.146  0.3038 -0.0876 -0.0846
 1008YOPC   GL214586   2.397  14.053   6.035  0.3800  0.0373 -0.1106
 1008YOPC   C1A14587   2.632  14.229   6.627 -0.0317  0.1388  0.2462
 1008YOPC   D2A14588   2.970  14.166   6.911  0.0099 -0.1933 -0.0489
 1008YOPC   C3A14589   3.051  14.016   7.395  0.0138  0.0226 -0.2782
 1008YOPC   C4A14590   3.189  14.024   7.842  0.1899  0.2577  0.1058
 1008YOPC   C1B14591   2.278  13.855   6.436  0.1443  0.1600  0.1190
 1008YOPC   C2B14592   2.277  13.906   6.831 -0.3735 -0.0868 -0.0290
 1008YOPC   D3B14593   2.210  13.527   7.016  0.1951 -0.3075 -0.2609
 1008YOPC   C4B14594   1.964  13.287   7.265  0.1183 -0.3491 -0.0721
 1009YOPC   NC314595   9.653  16.409   5.618 -0.1770 -0.0708 -0.4001
 1009YOPC   PO414596   9.392  16.344   5.994  0.3085 -0.3153 -0.0466
 1009YOPC   GL114597   9.584  16.031   6.222  0.0525 -0.1186 -0.1469
 1009YOPC   GL214598   9.392  15.774   6.402 -0.2275 -0.0221  0.1733
 1009YOPC   C1A14599   9.910  16.189   6.599  0.0584 -0.0570 -0.1295
 1009YOPC   D2A14600  10.300  16.341   6.658  0.0841  0.1631  0.3064
 1009YOPC   C3A14601  10.332  16.561   7.033  0.2455 -0.3623  0.2567
 1009YOPC   C4A14602  10.056  16.431   7.443 -0.0810 -0.3805 -0.1143
 1009YOPC   C1B14603   9.593  15.678   6.637 -0.0489  0.0454  0.2362
 1009YOPC   C2B14604   9.771  15.405   6.987 -0.0648 -0.1375  0.0530
 1009YOPC   D3B14605   9.970  15.003   6.860 -0.2897  0.0394 -0.0115
 1009YOPC   C4B14606  10.385  14.846   6.761  0.0368  0.3472  0.0132
 1010YOPC   NC314607  17.557  16.437   5.765 -0.2777  0.0663 -0.0589
 1010YOPC   PO414608  17.010  16.434   5.712  0.3539  0.0157 -0.1275
 1010YOPC   GL114609  17.210  16.571   6.106  0.3708 -0.1292  0.0361
 1010YOPC   GL214610  17.515  16.763   6.137 -0.0140  0.1994 -0.0859
 1010YOPC   C1A14611  17.399  16.408   6.441  0.0822  0.1670  0.1330
 1010YOPC   D2A14612  17.529  16.311   6.913  0.0573  0.1044 -0.1530
 1010YOPC   C3A14613  17.449  15.932   7.135 -0.1823  0.1997 -0.0856
 1010YOPC   C4A14614  17.578  15.609   7.488 -0.0033  0.1611  0.1808
 1010YOPC   C1B14615  17.566  16.857   6.593  0.2822  0.0685  0.0416
 1010YOPC   C2B14616  17.403  16.973   6.878 -0.2234 -0.0468  0.3010
 1010YOPC   D3B14617  17.319  16.803   7.232  0.2234  0.0210  0.0282
 1010YOPC   C4B14618  17.535  16.439   7.496 -0.0590  0.2157 -0.1080
 1011YOPC   NC314619  10.756   4.808   5.282 -0.0236 -0.0257  0.1682
 1011YOPC   PO414620  10.826   5.163   5.465  0.1521  0.1396 -0.1822
 1011YOPC   GL114621  10.682   5.121   5.888 -0.3586  0.1864 -0.2399
 1011YOPC   GL214622  10.925   5.370   6.026 -0.2667 -0.0871  0.0519
 1011YOPC   C1A14623  10.737   4.936   6.365 -0.1953 -0.0753 -0.0892
 1011YOPC   D2A14624  10.835   4.693   6.721  0.2127  0.0099 -0.2084
 1011YOPC   C3A14625  10.708   4.498   7.059 -0.2707 -0.4094  0.1265
 1011YOPC   C4A14626  10.356   4.508   7.312 -0.2997 -0.2483  0.1465
 1011YOPC   C1B14627  10.570   5.453   6.279 -0.0996  0.0485 -0.0015
 1011YOPC   C2B14628  10.498   5.801   6.683 -0.3141  0.0101 -0.0879
 1011YOPC   D3B14629  10.570   5.674   7.110  0.2666  0.1766  0.0618
 1011YOPC   C4B14630  10.680   5.375   7.382 -0.1789 -0.1947 -0.1209
 1012YOPC   NC314631   4.544   2.305   5.503 -0.1594  0.1893  0.0416
 1012YOPC   PO414632   4.363   1.899   5.537  0.0781 -0.2251  0.2730
 1012YOPC   GL114633   4.028   1.712   5.930  0.1932  0.2626  0.1280
 1012YOPC   GL214634   3.845   1.930   6.214  0.1755  0.1132 -0.1540
 1012YOPC   C1A14635   4.123   1.599   6.379 -0.0072 -0.1726 -0.0127
 1012YOPC   D2A14636   4.312   1.497   6.572 -0.4603  0.1133  0.0514
 1012YOPC   C3A14637   4.287   1.422   6.978 -0.1068  0.1521  0.0049
 1012YOPC   C4A14638   4.149   1.025   7.205 -0.2915 -0.0070  0.2698
 1012YOPC   C1B14639   3.945   2.204   6.590  0.0183 -0.1816 -0.0532
 1012YOPC   C2B14640   3.830   2.287   7.044 -0.2831  0.0864  0.1446
 1012YOPC   D3B14641   4.032   2.444   7.415  0.0060 -0.0870  0.2113
 1012YOPC   C4B14642   4.169   2.566   7.835 -0.0536 -0.0560 -0.2209
 1013YOPC   NC314643   6.202   6.165   6.239  0.3353  0.3618  0.0307
 1013YOPC   PO414644   6.301   6.476   6.401 -0.0299 -0.2774 -0.1622
 1013YOPC   GL114645   6.328   6.579   6.815  0.2954 -0.2287 -0.4198
 1013YOPC   GL214646   6.515   6.654   7.014 -0.0631  0.1998  0.4723
 1013YOPC   C1A14647   5.919   6.523   7.169 -0.1894  0.0301 -0.0098
 1013YOPC   D2A14648   5.617   6.383   7.479 -0.3055 -0.0773 -0.0865
 1013YOPC   C3A14649   5.464   6.631   7.673  0.0916  0.0509 -0.2402
 1013YOPC   C4A14650   5.213   6.893   7.846  0.0836  0.1985 -0.0627
 1013YOPC   C1B14651   6.353   6.652   7.361 -0.0637 -0.1140 -0.1825
 1013YOPC   C2B14652   6.474   6.680   7.764  0.2716  0.2011 -0.0189
 1013YOPC   D3B14653   6.798   6.481   8.033 -0.0211  0.0877  0.2183
 1013YOPC   C4B14654   6.951   6.072   8.049  0.3042  0.2449  0.1711
 1014YOPC   NC314655  15.480   7.546   5.672 -0.3888  0.0316  0.2890
 1014YOPC   PO414656  15.653   7.091   5.583  0.0797  0.0869 -0.0541
 1014YOPC   GL114657  15.508   7.049   5.927  0.0944  0.2434  0.1736
 1014YOPC   GL214658  15.406   7.287   6.091 -0.4202 -0.2439  0.2812
 1014YOPC   C1A14659  15.419   6.741   6.382 -0.1418  0.2156  0.2646
 1014YOPC   D2A14660  15.413   6.519   6.769 -0.0447  0.2993  0.0299
 1014YOPC   C3A14661  15.387   6.420   7.226 -0.0679 -0.0677 -0.1248
 1014YOPC   C4A14662  15.573   6.355   7.652 -0.2127  0.0864 -0.0686
 1014YOPC   C1B14663  15.284   7.170   6.504 -0.1125 -0.1446  0.1857
 1014YOPC   C2B14664  15.365   7.068   6.999 -0.2848 -0.1003  0.1199
 1014YOPC   D3B14665  15.802   7.142   7.171 -0.1150 -0.0860  0.1976
 1014YOPC   C4B14666  16.112   7.225   6.932 -0.1479 -0.0955 -0.2255
 1015YOPC   NC314667  13.901   6.927   6.088  0.1897 -0.3932  0.1952
 1015YOPC   PO414668  13.653   7.305   5.898 -0.0159  0.1411  0.1802
 1015YOPC   GL114669  13.435   7.197   6.249 -0.2346 -0.0427 -0.0425
 1015YOPC   GL214670  13.123   7.028   6.520  0.0516  0.2734 -0.2221
 1015YOPC   C1A14671  13.418   7.339   6.690  0.0608 -0.4908 -0.1625
 1015YOPC   D2A14672  13.325   7.615   7.051 -0.1534 -0.0291  0.1841
 1015YOPC   C3A14673  12.925   7.780   7.232  0.2248  0.1139  0.0090
 1015YOPC   C4A14674  12.750   7.662   7.563  0.4069 -0.2378 -0.1890
 1015YOPC   C1B14675  13.346   6.843   6.900 -0.0003 -0.2458  0.1195
 1015YOPC   C2B14676  13.466   6.996   7.284 -0.2471  0.0192 -0.0315
 1015YOPC   D3B14677  13.763   7.360   7.245 -0.2804 -0.0965 -0.3943
 1015YOPC   C4B14678  14.026   7.666   7.478 -0.0613  0.2016 -0.3242
 1016YOPC   NC314679  15.834   3.354   5.062 -0.0381  0.1600 -0.0484
 1016YOPC   PO414680  15.700   3.630   5.399 -0.0315 -0.2746 -0.2550
 1016YOPC   GL114681  15.763   3.654   5.883  0.0208 -0.3555  0.3088
 1016YOPC   GL214682  15.386   3.485   6.118  0.0503  0.0728  0.4353
 1016YOPC   C1A14683  16.104   3.622   6.168 -0.0457 -0.2092  0.4680
 1016YOPC   D2A14684  16.377   3.519   6.459 -0.0631 -0.0634  0.3584
 1016YOPC   C3A14685  16.394   3.367   6.900  0.0515 -0.0466 -0.1638
 1016YOPC   C4A14686  16.453   3.568   7.183  0.2024  0.2832 -0.1426
 1016YOPC   C1B14687  15.608   3.211   6.350 -0.1736 -0.0659  0.1789
 1016YOPC   C2B14688  15.770   2.841   6.422  0.1443 -0.0583  0.4138
 1016YOPC   D3B14689  15.930   2.935   6.857 -0.2246  0.0447 -0.0238
 1016YOPC   C4B14690  16.105   2.939   7.219  0.1884  0.2893 -0.1488
 1017YOPC   NC314691  11.034   6.680   5.287 -0.1951 -0.1255  0.0253
 1017YOPC   PO414692  10.720   6.566   5.658  0.1873  0.0032  0.1521
 1017YOPC   GL114693  10.544   6.320   5.978  0.0817  0.1031  0.0760
 1017YOPC   GL214694  10.766   6.145   6.040  0.0148 -0.1051 -0.2077
 1017YOPC   C1A14695  10.314   5.955   6.209 -0.0623 -0.1534  0.2392
 1017YOPC   D2A14696  10.000   5.821   6.542  0.0170  0.1691  0.0906
 1017YOPC   C3A14697   9.847   5.522   6.881  0.0674  0.1801  0.1118
 1017YOPC   C4A14698  10.152   5.374   7.147 -0.1359  0.1441 -0.1493
 1017YOPC   C1B14699  10.664   6.323   6.509  0.0509  0.3034 -0.2083
 1017YOPC   C2B14700  10.700   6.285   6.978  0.0639  0.5700  0.4848
 1017YOPC   D3B14701  10.487   6.197   7.391 -0.0774  0.1853 -0.2998
 1017YOPC   C4B14702  10.283   6.111   7.742 -0.2106 -0.3248  0.0376
 1018YOPC   NC314703   8.719   9.186   5.801  0.1305  0.1052 -0.2450
 1018YOPC   PO414704   8.640   8.788   5.981  0.2190 -0.1352 -0.0337
 1018YOPC   GL114705   8.412   8.943   6.353 -0.1330 -0.4123  0.0095
 1018YOPC   GL214706   8.463   9.339   6.351 -0.3033  0.1128  0.1695
 1018YOPC   C1A14707   7.942   9.003   6.579 -0.1846 -0.1482 -0.0394
 1018YOPC   D2A14708   7.725   9.183   6.905  0.2317 -0.0224 -0.1104
 1018YOPC   C3A14709   7.999   9.068   7.143  0.1208  0.1308 -0.0534
 1018YOPC   C4A14710   8.167   8.962   7.557  0.1591 -0.0466 -0.3138
 1018YOPC   C1B14711   8.463   9.211   6.788  0.1552  0.0127  0.0842
 1018YOPC   C2B14712   8.479   9.251   7.234 -0.0717  0.4085 -0.2915
 1018YOPC   D3B14713   8.700   9.008   7.540 -0.1495 -0.0167  0.3457
 1018YOPC   C4B14714   8.576   8.973   7.925 -0.0216 -0.0466 -0.3824
 1019YOPC   NC314715   8.534   3.110   5.437 -0.0430 -0.1792  0.1545
 1019YOPC   PO414716   8.398   3.079   5.851  0.0688 -0.4645  0.0587
 1019YOPC   GL114717   8.513   2.780   6.212  0.0229 -0.1284  0.0025
 1019YOPC   GL214718   8.634   2.463   6.182  0.1877  0.0618 -0.0167
 1019YOPC   C1A14719   8.539   2.873   6.715  0.1490  0.2237  0.2414
 1019YOPC   D2A14720   8.423   2.576   7.086  0.4567  0.1325 -0.1231
 1019YOPC   C3A14721   8.359   2.717   7.486 -0.2730 -0.1641  0.1675
 1019YOPC   C4A14722   8.228   2.563   7.832  0.2602 -0.2338 -0.2702
 1019YOPC   C1B14723   8.997   2.654   6.473  0.1859  0.3601  0.1319
 1019YOPC   C2B14724   9.419   2.811   6.606 -0.1385  0.1389  0.1941
 1019YOPC   D3B14725   9.398   2.970   7.045 -0.1635 -0.0253 -0.0729
 1019YOPC   C4B14726   9.462   3.053   7.451 -0.0343  0.1329  0.1610
 1020YOPC   NC314727   0.240  15.352   6.040 -0.3282 -0.1509 -0.1226
 1020YOPC   PO414728   0.385  15.089   5.882 -0.3821  0.1182  0.2809
 1020YOPC   GL114729   0.268  14.764   6.319  0.0946 -0.1380  0.0488
 1020YOPC   GL214730   0.287  14.954   6.404 -0.2315  0.1020 -0.1390
 1020YOPC   C1A14731  -0.030  14.483   6.468  0.0280 -0.2342 -0.1798
 1020YOPC   D2A14732  -0.023  14.106   6.572  0.2167 -0.2679  0.0042
 1020YOPC   C3A14733  -0.067  14.054   6.994  0.0404 -0.0123  0.0989
 1020YOPC   C4A14734  -0.199  14.245   7.412 -0.0428 -0.2580  0.5257
 1020YOPC   C1B14735   0.533  14.891   6.754 -0.0711  0.2955 -0.1037
 1020YOPC   C2B14736   0.514  14.774   7.151  0.0882 -0.0081 -0.3196
 1020YOPC   D3B14737   0.249  14.980   7.473  0.1217  0.0245  0.0792
 1020YOPC   C4B14738   0.031  15.157   7.719  0.2251 -0.0381  0.1747
 1021YOPC   NC314739   9.668  12.148   5.626  0.0602  0.1779 -0.0417
 1021YOPC   PO414740   9.525  11.732   5.607 -0.1353 -0.1758 -0.2141
 1021YOPC   GL114741   9.366  11.766   6.001 -0.0990 -0.1189  0.0674
 1021YOPC   GL214742   9.320  11.437   6.150 -0.0056 -0.1072 -0.1526
 1021YOPC   C1A14743   9.238  11.917   6.423  0.3103 -0.1554 -0.0434
 1021YOPC   D2A14744   8.926  11.938   6.724 -0.3466  0.4729 -0.0579
 1021YOPC   C3A14745   8.950  11.934   7.175  0.1766 -0.1008 -0.1216
 1021YOPC   C4A14746   8.935  11.998   7.669  0.1132 -0.0859 -0.2527
 1021YOPC   C1B14747   9.457  11.493   6.642  0.0757  0.0885 -0.1287
 1021YOPC   C2B14748   9.613  11.278   6.954  0.1140  0.1755  0.2107
 1021YOPC   D3B14749   9.776  11.451   7.257 -0.1239  0.1312 -0.0790
 1021YOPC   C4B14750  10.129  11.369   7.562 -0.1089 -0.3526 -0.1656
 1022YOPC   NC314751   5.109   7.694   5.849 -0.0021 -0.0575  0.0701
 1022YOPC   PO414752   5.317   7.715   6.285  0.1215  0.2592 -0.1105
 1022YOPC   GL114753   5.045   7.430   6.504  0.0293 -0.0330  0.2752
 1022YOPC   GL214754   5.302   7.234   6.625 -0.1575 -0.0573 -0.1003
 1022YOPC   C1A14755   4.854   7.277   6.797 -0.0077  0.2074  0.0219
 1022YOPC   D2A14756   4.521   6.934   6.901  0.2518 -0.0368  0.1070
 1022YOPC   C3A14757   4.417   6.784   7.273 -0.2799  0.0951 -0.0105
 1022YOPC   C4A14758   4.241   6.747   7.593  0.1764 -0.2665 -0.0928
 1022YOPC   C1B14759   5.273   7.326   7.040 -0.0594  0.0353 -0.2231
 1022YOPC   C2B14760   5.041   7.563   7.223 -0.0728  0.2583 -0.0985
 1022YOPC   D3B14761   5.336   7.612   7.506 -0.3184 -0.1253 -0.2725
 1022YOPC   C4B14762   5.304   7.383   7.898 -0.0929 -0.2020  0.1526
 1023YOPC   NC314763  11.421  11.657   6.392  0.2133 -0.3097  0.2728
 1023YOPC   PO414764  11.363  11.917   5.948  0.1664 -0.3368 -0.2739
 1023YOPC   GL114765  11.037  11.997   6.278 -0.1571  0.0097  0.0470
 1023YOPC   GL214766  10.965  12.337   6.369 -0.0822 -0.0339 -0.2523
 1023YOPC   C1A14767  10.938  11.943   6.775  0.1917 -0.0327  0.1983
 1023YOPC   D2A14768  10.963  11.716   7.122 -0.0681 -0.2578 -0.1307
 1023YOPC   C3A14769  10.685  11.845   7.439 -0.0073 -0.0607 -0.1426
 1023YOPC   C4A14770  10.492  11.808   7.759  0.0095 -0.0558  0.1198
 1023YOPC   C1B14771  10.827  12.471   6.772  0.1377  0.0653 -0.1236
 1023YOPC   C2B14772  10.750  12.293   7.104  0.3568  0.1631 -0.2653
 1023YOPC   D3B14773  11.116  12.178   7.428 -0.0198  0.0386  0.0640
 1023YOPC   C4B14774  11.418  11.913   7.606  0.1217 -0.3904 -0.0312
 1024YOPC   NC314775   0.853   7.551   5.753 -0.0405 -0.1468 -0.0855
 1024YOPC   PO414776   1.300   7.682   5.954  0.0276  0.1029 -0.0717
 1024YOPC   GL114777   1.351   7.728   6.383  0.0959 -0.2108  0.1154
 1024YOPC   GL214778   1.540   7.595   6.530  0.2776  0.0452 -0.3108
 1024YOPC   C1A14779   1.173   7.901   6.741  0.1856  0.0094 -0.0651
 1024YOPC   D2A14780   0.882   7.821   7.010  0.3056 -0.0487  0.0902
 1024YOPC   C3A14781   0.931   7.781   7.374  0.1117 -0.2833  0.1252
 1024YOPC   C4A14782   0.800   7.695   7.833  0.3228 -0.0456 -0.0672
 1024YOPC   C1B14783   1.696   7.891   6.762  0.0636 -0.3395 -0.1297
 1024YOPC   C2B14784   1.852   7.974   7.166  0.1369 -0.2846 -0.0196
 1024YOPC   D3B14785   1.701   7.832   7.565 -0.0426 -0.0459  0.1015
 1024YOPC   C4B14786   1.351   7.879   7.714 -0.1535  0.2746  0.5563
 1025YOPC   NC314787  16.905  15.904   5.671  0.0764  0.0965 -0.1317
 1025YOPC   PO414788  16.975  15.593   5.948 -0.4214 -0.0232 -0.1053
 1025YOPC   GL114789  17.245  15.542   6.317 -0.2518 -0.1961  0.0086
 1025YOPC   GL214790  17.179  15.242   6.391  0.2748  0.0612 -0.2602
 1025YOPC   C1A14791  17.236  15.870   6.659 -0.2699  0.0058 -0.0716
 1025YOPC   D2A14792  17.071  16.190   6.955  0.2457  0.1695 -0.1637
 1025YOPC   C3A14793  17.030  16.220   7.365 -0.3181 -0.0138 -0.2557
 1025YOPC   C4A14794  17.127  16.509   7.727  0.0408  0.1289 -0.0498
 1025YOPC   C1B14795  17.148  15.120   6.703 -0.0082 -0.3555  0.2308
 1025YOPC   C2B14796  16.994  14.714   6.881 -0.0236  0.1234  0.5965
 1025YOPC   D3B14797  17.000  14.697   7.328 -0.0892 -0.0239 -0.3887
 1025YOPC   C4B14798  17.106  14.392   7.731 -0.1042  0.1478  0.2997
 1026YOPC   NC314799  16.996  11.004   5.603  0.1592  0.1395 -0.0329
 1026YOPC   PO414800  17.079  11.481   5.721 -0.0051 -0.0187  0.0790
 1026YOPC   GL114801  16.820  11.394   6.015 -0.1528 -0.0869  0.1605
 1026YOPC   GL214802  16.572  11.634   5.926  0.0538 -0.0831 -0.0876
 1026YOPC   C1A14803  16.839  11.135   6.463 -0.2376  0.0913  0.2484
 1026YOPC   D2A14804  16.699  10.750   6.563 -0.1983 -0.2693 -0.1905
 1026YOPC   C3A14805  16.647  10.485   6.933 -0.1557 -0.1616 -0.1833
 1026YOPC   C4A14806  16.994  10.327   7.249  0.1409 -0.0477 -0.0418
 1026YOPC   C1B14807  16.697  11.655   6.411 -0.2182  0.1343  0.3965
 1026YOPC   C2B14808  16.669  11.991   6.682 -0.1405 -0.0776 -0.1903
 1026YOPC   D3B14809  16.740  11.941   7.156  0.2303  0.0535 -0.1356
 1026YOPC   C4B14810  16.890  11.834   7.529 -0.0601 -0.2104  0.0865
 1027YOPC   NC314811   9.061  11.617   5.692  0.1012  0.2301 -0.0988
 1027YOPC   PO414812   9.186  12.092   5.674 -0.1312  0.0058 -0.2161
 1027YOPC   GL114813   9.365  12.283   6.088  0.0963  0.1590  0.1300
 1027YOPC   GL214814   9.683  12.175   6.163 -0.2124  0.3878 -0.2332
 1027YOPC   C1A14815   9.437  12.338   6.544 -0.0764  0.0511 -0.0083
 1027YOPC   D2A14816   9.494  12.014   6.823  0.0505  0.1283  0.0786
 1027YOPC   C3A14817   9.825  12.185   7.178  0.2985  0.2523  0.3136
 1027YOPC   C4A14818   9.822  12.245   7.582  0.1963 -0.0684  0.0967
 1027YOPC   C1B14819   9.810  11.797   6.351 -0.2959 -0.2701  0.0863
 1027YOPC   C2B14820  10.250  11.682   6.223  0.2896  0.3647 -0.0276
 1027YOPC   D3B14821  10.454  11.662   6.566  0.0681  0.2033 -0.1940
 1027YOPC   C4B14822  10.470  11.760   7.001  0.0878  0.1525 -0.0440
 1028YOPC   NC314823   9.976   8.733   5.533 -0.2384  0.1633 -0.4190
 1028YOPC   PO414824   9.742   8.840   5.901  0.0598 -0.0883 -0.2501
 1028YOPC   GL114825   9.631   8.926   6.295 -0.4193 -0.1503 -0.0836
 1028YOPC   GL214826   9.435   9.158   6.411 -0.0977  0.1681 -0.0277
 1028YOPC   C1A14827   9.933   8.821   6.589  0.1708  0.1749  0.1788
 1028YOPC   D2A14828  10.309   8.749   6.952 -0.1864 -0.1996  0.3468
 1028YOPC   C3A14829  10.583   8.989   7.040 -0.2121 -0.1239 -0.5742
 1028YOPC   C4A14830  10.747   9.193   7.351 -0.0355  0.0145  0.1008
 1028YOPC   C1B14831   9.728   9.437   6.503  0.2019 -0.0273 -0.1443
 1028YOPC   C2B14832  10.080   9.591   6.353 -0.1312 -0.1421 -0.1038
 1028YOPC   D3B14833  10.349   9.675   6.651 -0.2209 -0.0419  0.0249
 1028YOPC   C4B14834  10.624   9.489   6.936 -0.0963 -0.2568  0.1142
 1029YOPC   NC314835  15.639   4.123   5.498 -0.3188 -0.2296 -0.0658
 1029YOPC   PO414836  15.925   4.467   5.643 -0.1931  0.0437 -0.1265
 1029YOPC   GL114837  15.573   4.387   6.039 -0.1447 -0.2326  0.0382
 1029YOPC   GL214838  15.536   4.118   6.024 -0.0174  0.0587  0.1401
 1029YOPC   C1A14839  15.530   4.354   6.506  0.1629  0.0872  0.4321
 1029YOPC   D2A14840  15.437   4.276   6.829  0.1489  0.2552 -0.4101
 1029YOPC   C3A14841  15.715   3.877   7.022 -0.0401  0.1151  0.0971
 1029YOPC   C4A14842  16.070   3.804   6.981  0.0656 -0.2073 -0.0607
 1029YOPC   C1B14843  15.263   3.940   6.342  0.1138  0.3042 -0.3227
 1029YOPC   C2B14844  15.281   3.787   6.718 -0.1670  0.3456  0.1059
 1029YOPC   D3B14845  15.415   3.486   6.920  0.0293  0.6157 -0.1542
 1029YOPC   C4B14846  15.249   3.291   7.368 -0.6101  0.3013 -0.0345
 1030YOPC   NC314847  17.289  10.090   5.432 -0.1206  0.0522  0.0496
 1030YOPC   PO414848  16.964  10.482   5.467  0.1266 -0.1213 -0.0669
 1030YOPC   GL114849  17.270  10.398   5.935  0.1020  0.0761  0.1383
 1030YOPC   GL214850  17.463  10.193   5.875  0.0136  0.3102 -0.0727
 1030YOPC   C1A14851  17.235  10.184   6.331  0.2436  0.0064 -0.1562
 1030YOPC   D2A14852  17.187   9.808   6.592  0.2248  0.0146  0.0370
 1030YOPC   C3A14853  17.242   9.904   7.089 -0.0320  0.1108  0.1786
 1030YOPC   C4A14854  17.421   9.679   7.425  0.0782  0.0917 -0.1091
 1030YOPC   C1B14855  17.675   9.995   6.166  0.0569  0.1871  0.3898
 1030YOPC   C2B14856  17.783   9.810   6.583  0.1740 -0.0796  0.2673
 1030YOPC   D3B14857  17.970   9.475   6.538  0.1022  0.1062  0.2214
 1030YOPC   C4B14858  18.251   9.251   6.824 -0.0755 -0.2865 -0.0985
 1031YOPC   NC314859  10.464   7.759   5.964  0.0231 -0.2450  0.0054
 1031YOPC   PO414860  10.060   7.527   6.025  0.2585  0.1906 -0.0270
 1031YOPC   GL114861  10.430   7.248   6.269 -0.3513  0.1864 -0.0127
 1031YOPC   GL214862  10.457   6.872   6.180  0.0558 -0.0527 -0.2485
 1031YOPC   C1A14863  10.545   7.221   6.656  0.1606  0.1540 -0.0239
 1031YOPC   D2A14864  10.773   6.962   7.019  0.0259  0.4239  0.0908
 1031YOPC   C3A14865  10.947   7.014   7.431 -0.1709 -0.0594 -0.2902
 1031YOPC   C4A14866  11.235   7.172   7.713 -0.0350  0.1792  0.1183
 1031YOPC   C1B14867  10.397   6.744   6.760  0.0826  0.1174 -0.4108
 1031YOPC   C2B14868  10.351   6.704   7.262  0.0327  0.1067  0.0611
 1031YOPC   D3B14869  10.705   6.602   7.377 -0.0875 -0.1118 -0.1420
 1031YOPC   C4B14870  10.982   6.373   7.591 -0.1079 -0.0495 -0.0117
 1032YOPC   NC314871  12.421   5.153   5.270  0.0278  0.1069 -0.2294
 1032YOPC   PO414872  12.378   4.846   5.627 -0.1397  0.0281  0.2527
 1032YOPC   GL114873  12.222   5.013   6.037 -0.3435 -0.0579 -0.0039
 1032YOPC   GL214874  12.011   4.705   6.079 -0.1765  0.2111 -0.0180
 1032YOPC   C1A14875  12.376   4.908   6.423  0.3811 -0.0640 -0.2069
 1032YOPC   D2A14876  12.438   4.872   6.829 -0.5276  0.3593  0.1204
 1032YOPC   C3A14877  12.650   4.855   7.188  0.0980  0.3010  0.2483
 1032YOPC   C4A14878  12.590   5.153   7.570  0.0433  0.0638 -0.3620
 1032YOPC   C1B14879  11.836   4.543   6.423 -0.0299 -0.0043  0.2155
 1032YOPC   C2B14880  11.886   4.353   6.778  0.1289  0.3259 -0.0239
 1032YOPC   D3B14881  11.711   4.450   7.125 -0.1169 -0.1494 -0.1931
 1032YOPC   C4B14882  11.767   4.512   7.575 -0.2509  0.1372  0.0122
 1033YOPC   NC314883  11.680   6.006   5.380 -0.1016 -0.1687  0.3374
 1033YOPC   PO414884  11.382   5.760   5.640  0.1682  0.0947 -0.1520
 1033YOPC   GL114885  11.199   5.787   6.044  0.1040 -0.2737 -0.0500
 1033YOPC   GL214886  11.462   6.045   6.132  0.0107  0.0082 -0.3261
 1033YOPC   C1A14887  10.953   5.685   6.435 -0.3160  0.4601  0.0870
 1033YOPC   D2A14888  10.959   5.788   6.848  0.2151 -0.0835  0.1930
 1033YOPC   C3A14889  11.099   5.613   7.294 -0.0747  0.3505 -0.3524
 1033YOPC   C4A14890  11.080   5.417   7.720 -0.1081  0.0425  0.1407
 1033YOPC   C1B14891  11.615   5.914   6.495  0.0624 -0.3035 -0.0302
 1033YOPC   C2B14892  11.775   5.736   6.880 -0.1803 -0.3333  0.2843
 1033YOPC   D3B14893  11.875   5.383   7.150  0.3358  0.0254  0.1182
 1033YOPC   C4B14894  12.340   5.266   7.116 -0.0131 -0.2202 -0.0737
 1034YOPC   NC314895  11.687   8.591   6.117  0.0164  0.0115  0.1836
 1034YOPC   PO414896  11.294   8.312   5.920 -0.1334  0.2167 -0.1606
 1034YOPC   GL114897  11.001   8.186   6.326  0.1964  0.2640  0.1884
 1034YOPC   GL214898  11.301   8.323   6.462  0.3322  0.3966  0.0918
 1034YOPC   C1A14899  10.898   8.021   6.682  0.1986 -0.1160 -0.4458
 1034YOPC   D2A14900  10.932   7.941   7.073  0.0640 -0.0443  0.1557
 1034YOPC   C3A14901  10.723   8.044   7.526 -0.1964  0.0806  0.1450
 1034YOPC   C4A14902  10.565   7.854   7.969 -0.0378  0.1981 -0.1954
 1034YOPC   C1B14903  11.280   8.308   6.810  0.1417  0.1274 -0.0965
 1034YOPC   C2B14904  11.417   8.311   7.275  0.0586  0.2854  0.1258
 1034YOPC   D3B14905  11.278   8.042   7.531  0.0532  0.0638 -0.2187
 1034YOPC   C4B14906  11.054   7.700   7.924 -0.2322  0.2119  0.2010
 1035YOPC   NC314907   9.405  17.928   5.667  0.0331  0.1796  0.1309
 1035YOPC   PO414908   9.429  18.282   5.839  0.1167 -0.2368  0.0436
 1035YOPC   GL114909   9.412  18.102   6.264 -0.0153  0.0952  0.4177
 1035YOPC   GL214910   9.375  17.875   6.180 -0.3030 -0.0211 -0.0036
 1035YOPC   C1A14911   9.262  18.081   6.707 -0.1063 -0.0319 -0.1681
 1035YOPC   D2A14912   9.106  17.793   6.978  0.1140 -0.1916 -0.1570
 1035YOPC   C3A14913   9.064  17.754   7.440 -0.0880 -0.2471  0.0375
 1035YOPC   C4A14914   8.808  17.658   7.726 -0.0295  0.0235  0.4090
 1035YOPC   C1B14915   9.050  17.634   6.397  0.0554 -0.3350  0.1862
 1035YOPC   C2B14916   9.066  17.376   6.707 -0.4243  0.0497 -0.0048
 1035YOPC   D3B14917   9.008  17.016   6.839  0.0468 -0.0372  0.0656
 1035YOPC   C4B14918   8.999  16.497   6.912  0.0043  0.1365  0.1901
 1036YOPC   NC314919   2.852  16.775   5.808 -0.1572  0.3478  0.2133
 1036YOPC   PO414920   3.014  16.290   5.766  0.1153 -0.0352  0.2085
 1036YOPC   GL114921   2.993  16.388   6.196  0.1242  0.2625 -0.2087
 1036YOPC   GL214922   3.121  16.769   6.221 -0.4106  0.1314  0.1420
 1036YOPC   C1A14923   3.053  16.468   6.646 -0.0626 -0.2170 -0.2346
 1036YOPC   D2A14924   2.918  16.437   7.063  0.0171 -0.1243  0.0689
 1036YOPC   C3A14925   2.797  16.761   7.326 -0.2444 -0.0067  0.0188
 1036YOPC   C4A14926   2.820  17.071   7.632  0.1928 -0.0486  0.0654
 1036YOPC   C1B14927   3.519  16.803   6.445  0.0884 -0.1477  0.2389
 1036YOPC   C2B14928   3.585  16.713   6.903  0.0596 -0.1052  0.0309
 1036YOPC   D3B14929   3.354  16.595   7.210 -0.2882  0.3205 -0.0423
 1036YOPC   C4B14930   3.235  16.528   7.689 -0.1256  0.0258  0.0857
 1037YOPC   NC314931  11.535  13.027   5.426  0.0065  0.3371 -0.0518
 1037YOPC   PO414932  11.523  12.877   5.835  0.1093  0.0711  0.0501
 1037YOPC   GL114933  11.652  12.951   6.196  0.2875  0.0698  0.1112
 1037YOPC   GL214934  11.957  13.034   6.367 -0.1535  0.1215 -0.0533
 1037YOPC   C1A14935  11.584  13.237   6.626 -0.0876  0.2285 -0.0066
 1037YOPC   D2A14936  11.551  13.272   7.108 -0.0728  0.0926  0.0177
 1037YOPC   C3A14937  11.864  13.362   7.370 -0.2172 -0.0552 -0.1077
 1037YOPC   C4A14938  12.312  13.447   7.372 -0.1141 -0.1863  0.1583
 1037YOPC   C1B14939  11.809  12.820   6.724  0.1143  0.0415 -0.3711
 1037YOPC   C2B14940  11.691  12.769   7.169  0.2753  0.0751  0.0047
 1037YOPC   D3B14941  11.738  12.897   7.559  0.0587  0.0789  0.0386
 1037YOPC   C4B14942  11.649  13.310   7.798 -0.1699  0.2738 -0.0836
 1038YOPC   NC314943  13.525  11.311   5.954 -0.0413 -0.3110 -0.3404
 1038YOPC   PO414944  13.929  11.538   5.914  0.2535  0.1279 -0.0179
 1038YOPC   GL114945  14.089  11.154   6.234 -0.0993  0.0548 -0.0378
 1038YOPC   GL214946  13.753  11.151   6.468 -0.0588  0.0981  0.2870
 1038YOPC   C1A14947  14.213  11.104   6.617 -0.0076  0.0982 -0.0099
 1038YOPC   D2A14948  14.336  11.053   7.086 -0.2038  0.3631  0.5145
 1038YOPC   C3A14949  14.768  11.119   7.116 -0.1475 -0.0623 -0.2693
 1038YOPC   C4A14950  15.259  11.208   7.207  0.2462 -0.0397 -0.1764
 1038YOPC   C1B14951  13.845  11.153   6.880 -0.1397 -0.0655  0.1518
 1038YOPC   C2B14952  13.957  11.367   7.243  0.1706 -0.1538  0.2964
 1038YOPC   D3B14953  13.676  11.403   7.625  0.0434  0.1052  0.2264
 1038YOPC   C4B14954  13.529  11.289   7.860 -0.0228  0.2627 -0.2517
 1039YOPC   NC314955  11.037  17.295   5.414  0.0560  0.2171  0.0377
 1039YOPC   PO414956  10.723  17.321   5.777 -0.0190 -0.0689 -0.4212
 1039YOPC   GL114957  10.796  17.286   6.173 -0.4168 -0.2972  0.0851
 1039YOPC   GL214958  10.524  17.050   6.222  0.1428  0.0126 -0.2412
 1039YOPC   C1A14959  10.967  17.369   6.634 -0.1300 -0.1399  0.2639
 1039YOPC   D2A14960  11.210  17.266   7.002 -0.0617 -0.1572 -0.0822
 1039YOPC   C3A14961  11.622  17.407   7.144  0.4810  0.1304 -0.1120
 1039YOPC   C4A14962  11.944  17.110   7.313  0.0781  0.1588  0.2551
 1039YOPC   C1B14963  10.458  17.359   6.511  0.0156  0.0109 -0.1691
 1039YOPC   C2B14964  10.427  17.318   6.922  0.0187 -0.1678  0.1066
 1039YOPC   D3B14965  10.710  17.614   7.121 -0.0478 -0.0451 -0.1615
 1039YOPC   C4B14966  10.690  17.804   7.525 -0.0670  0.0690  0.0128
 1040YOPC   NC314967  13.457   3.802   5.480 -0.0882  0.0508 -0.0817
 1040YOPC   PO414968  13.531   3.488   5.327 -0.1861  0.1585 -0.0242
 1040YOPC   GL114969  13.705   3.428   5.711 -0.2966 -0.0802 -0.0956
 1040YOPC   GL214970  13.897   3.179   5.863 -0.1256  0.0552  0.0060
 1040YOPC   C1A14971  13.550   3.359   6.207 -0.0221 -0.0451  0.0867
 1040YOPC   D2A14972  13.381   3.149   6.544 -0.1431 -0.0157  0.0843
 1040YOPC   C3A14973  13.360   3.336   6.954  0.0592 -0.1218 -0.0787
 1040YOPC   C4A14974  13.478   3.534   7.361 -0.0878 -0.0897  0.2335
 1040YOPC   C1B14975  14.046   3.352   6.293  0.0893 -0.2513  0.0117
 1040YOPC   C2B14976  14.300   3.520   6.598 -0.1189  0.2043  0.0874
 1040YOPC   D3B14977  14.212   3.407   7.003 -0.5335 -0.0465  0.3432
 1040YOPC   C4B14978  14.362   3.242   7.364 -0.3374  0.1767 -0.0022
 1041YOPC   NC314979   4.351   0.571   5.534 -0.0345  0.4401 -0.4457
 1041YOPC   PO414980   4.123   0.886   5.516  0.2527  0.3773 -0.1502
 1041YOPC   GL114981   4.094   0.947   5.966 -0.3719  0.0205 -0.2543
 1041YOPC   GL214982   3.874   0.803   6.175 -0.1541  0.1428  0.0064
 1041YOPC   C1A14983   4.448   0.940   6.183  0.0923  0.1581  0.1070
 1041YOPC   D2A14984   4.779   0.809   6.491 -0.0506  0.0524  0.0512
 1041YOPC   C3A14985   5.187   1.146   6.529 -0.0979 -0.2427  0.0167
 1041YOPC   C4A14986   5.567   1.440   6.629  0.2309 -0.2654  0.0428
 1041YOPC   C1B14987   3.898   0.664   6.524  0.2684  0.0070 -0.0449
 1041YOPC   C2B14988   3.990   0.590   7.004  0.2450 -0.5052  0.3402
 1041YOPC   D3B14989   3.619   0.813   7.349 -0.2061  0.0078 -0.3209
 1041YOPC   C4B14990   3.722   0.946   7.769 -0.3408 -0.1076  0.2691
 1042YOPC   NC314991   4.758   1.538   5.500  0.1602 -0.1029  0.0275
 1042YOPC   PO414992   5.181   1.556   5.469  0.3053 -0.2140  0.1550
 1042YOPC   GL114993   5.134   1.383   5.804 -0.1196  0.1368  0.4748
 1042YOPC   GL214994   4.917   1.164   6.002  0.4397  0.0688 -0.0567
 1042YOPC   C1A14995   5.314   1.443   6.204 -0.2060  0.0684  0.2521
 1042YOPC   D2A14996   5.217   1.737   6.563 -0.0420 -0.1022 -0.1226
 1042YOPC   C3A14997   5.181   1.486   6.958  0.0856  0.0739  0.1123
 1042YOPC   C4A14998   5.184   1.419   7.407  0.2370  0.0518 -0.1316
 1042YOPC   C1B14999   4.759   1.406   6.391 -0.0350 -0.2191  0.0586
 1042YOPC   C2B15000   4.660   1.809   6.438 -0.0856  0.0519  0.1284
 1042YOPC   D3B15001   4.665   1.861   6.902 -0.0275 -0.0809 -0.0191
 1042YOPC   C4B15002   4.792   1.751   7.235  0.0144 -0.0003  0.0957
 1043YOPC   NC315003  10.973  12.213   5.793 -0.1405 -0.0372  0.1933
 1043YOPC   PO415004  11.012  12.675   5.907  0.3408  0.0747  0.2411
 1043YOPC   GL115005  11.058  12.830   6.358 -0.2020 -0.1558 -0.2039
 1043YOPC   GL215006  11.303  12.688   6.504 -0.1741  0.1669  0.1148
 1043YOPC   C1A15007  10.959  13.237   6.530  0.2733  0.1143 -0.0266
 1043YOPC   D2A15008  11.164  13.567   6.844 -0.3291  0.0957  0.1119
 1043YOPC   C3A15009  11.252  13.730   7.238  0.2353 -0.5497 -0.0346
 1043YOPC   C4A15010  11.576  13.774   7.507  0.1844 -0.2540 -0.0794
 1043YOPC   C1B15011  11.281  12.900   6.861 -0.0583 -0.3100 -0.2733
 1043YOPC   C2B15012  11.106  13.184   7.212 -0.0577  0.0318  0.1437
 1043YOPC   D3B15013  11.222  13.222   7.611  0.1023  0.0548 -0.2527
 1043YOPC   C4B15014  11.374  12.897   7.963  0.0395  0.0091 -0.0603
 1044YOPC   NC315015   3.613  15.228   5.725  0.0092  0.0176  0.0227
 1044YOPC   PO415016   3.301  15.416   5.925 -0.1318 -0.0971  0.0818
 1044YOPC   GL115017   3.074  15.567   6.265 -0.0095  0.2829  0.1160
 1044YOPC   GL215018   3.120  15.892   6.128  0.0925 -0.1160 -0.0361
 1044YOPC   C1A15019   2.960  15.657   6.659  0.0618 -0.1113 -0.0441
 1044YOPC   D2A15020   2.871  15.526   7.092  0.0649 -0.2536 -0.1023
 1044YOPC   C3A15021   2.573  15.754   7.256 -0.1449 -0.0002  0.1183
 1044YOPC   C4A15022   2.447  15.909   7.623 -0.0646 -0.1418  0.3368
 1044YOPC   C1B15023   3.280  16.009   6.541 -0.1472 -0.1754  0.0832
 1044YOPC   C2B15024   3.480  16.217   6.873 -0.1689 -0.1742  0.0547
 1044YOPC   D3B15025   3.673  15.972   7.177 -0.2346  0.1748 -0.1005
 1044YOPC   C4B15026   3.463  15.759   7.405 -0.1319  0.3780  0.0255
 1045YOPC   NC315027   0.077   5.624   5.514 -0.1341 -0.2121 -0.1838
 1045YOPC   PO415028   0.434   5.832   5.784  0.0521  0.1532 -0.1938
 1045YOPC   GL115029   0.524   5.826   6.161 -0.0188 -0.1237 -0.1316
 1045YOPC   GL215030   0.753   5.616   6.240  0.1561  0.1529 -0.1562
 1045YOPC   C1A15031   0.802   6.117   6.306 -0.0938 -0.0582  0.0114
 1045YOPC   D2A15032   0.608   6.371   6.595 -0.3404 -0.0339  0.0797
 1045YOPC   C3A15033   0.511   6.829   6.764 -0.3655  0.2342 -0.3215
 1045YOPC   C4A15034   0.526   7.039   7.135  0.2350 -0.1300  0.0314
 1045YOPC   C1B15035   0.753   5.629   6.581  0.0340 -0.1936  0.0927
 1045YOPC   C2B15036   0.809   5.830   6.948 -0.1054  0.1885 -0.1463
 1045YOPC   D3B15037   0.696   6.354   7.106  0.2758  0.1414  0.2464
 1045YOPC   C4B15038   0.882   6.650   7.370  0.0355  0.0171  0.0395
 1046YOPC   NC315039   0.492   6.374   5.736  0.0723  0.0808  0.0294
 1046YOPC   PO415040   0.814   6.599   5.730 -0.1947  0.0804  0.0647
 1046YOPC   GL115041   0.587   6.666   6.149  0.1342 -0.2074  0.5135
 1046YOPC   GL215042   0.731   6.887   6.322  0.0301  0.0180 -0.0938
 1046YOPC   C1A15043   0.214   6.683   6.422  0.0854 -0.1684 -0.1957
 1046YOPC   D2A15044   0.051   6.710   6.791  0.1292  0.2730 -0.1778
 1046YOPC   C3A15045   0.218   6.445   7.088  0.0113  0.3263 -0.1258
 1046YOPC   C4A15046   0.337   6.650   7.510  0.0144  0.0890 -0.0109
 1046YOPC   C1B15047   1.044   7.136   6.486  0.3559  0.0155 -0.1140
 1046YOPC   C2B15048   1.191   7.334   6.848  0.2343  0.1857 -0.0041
 1046YOPC   D3B15049   1.077   7.188   7.193  0.0851  0.1114 -0.2483
 1046YOPC   C4B15050   0.930   7.271   7.546 -0.1151 -0.1149  0.0527
 1047YOPC   NC315051   1.382  12.815   5.778  0.2610 -0.1265 -0.0183
 1047YOPC   PO415052   1.158  12.459   5.695  0.2987 -0.0359 -0.0436
 1047YOPC   GL115053   1.269  12.355   6.104 -0.4148  0.0524  0.0813
 1047YOPC   GL215054   1.122  12.040   6.053 -0.0039 -0.0855  0.3573
 1047YOPC   C1A15055   1.280  12.432   6.508  0.1184  0.2751 -0.4097
 1047YOPC   D2A15056   1.359  12.496   6.971 -0.2218 -0.1062  0.2110
 1047YOPC   C3A15057   1.279  12.724   7.304  0.1893  0.0032 -0.1204
 1047YOPC   C4A15058   0.946  12.869   7.638 -0.1526 -0.1051 -0.0050
 1047YOPC   C1B15059   0.929  12.061   6.523  0.0868  0.0848 -0.0047
 1047YOPC   C2B15060   0.843  11.780   6.860  0.0758  0.2455 -0.1621
 1047YOPC   D3B15061   0.873  11.846   7.218 -0.1304 -0.0300  0.1470
 1047YOPC   C4B15062   0.690  11.913   7.520  0.0442 -0.0037  0.0105
 1048YOPC   NC315063  15.611  15.030   5.822 -0.2397 -0.2939 -0.1574
 1048YOPC   PO415064  15.341  14.674   5.785 -0.1145  0.2983 -0.0249
 1048YOPC   GL115065  15.258  14.752   6.173  0.0518 -0.0992  0.2382
 1048YOPC   GL215066  15.003  14.901   6.359  0.0584 -0.1120 -0.1400
 1048YOPC   C1A15067  15.440  15.016   6.594 -0.1040  0.1378 -0.2025
 1048YOPC   D2A15068  15.713  15.203   6.882 -0.2520  0.0762  0.1733
 1048YOPC   C3A15069  15.784  15.553   6.703  0.1475  0.0801  0.0378
 1048YOPC   C4A15070  16.122  15.773   6.594  0.1559 -0.2045 -0.3847
 1048YOPC   C1B15071  14.830  15.208   6.732 -0.2169 -0.0195 -0.1906
 1048YOPC   C2B15072  14.503  15.378   7.052 -0.4298  0.1136  0.3514
 1048YOPC   D3B15073  14.606  15.508   7.559 -0.1249 -0.1866 -0.1361
 1048YOPC   C4B15074  14.447  15.553   8.065  0.3031 -0.0564  0.2993
 1049YOPC   NC315075  16.150  11.010   5.508  0.2810  0.0582 -0.1458
 1049YOPC   PO415076  16.549  10.804   5.524 -0.1342  0.0370 -0.4073
 1049YOPC   GL115077  16.754  10.647   5.937 -0.0626  0.0434  0.2687
 1049YOPC   GL215078  16.971  10.821   6.095 -0.2729 -0.1118 -0.1791
 1049YOPC   C1A15079  16.825  10.403   6.250 -0.0089 -0.0408 -0.1928
 1049YOPC   D2A15080  16.587  10.116   6.610 -0.2365 -0.3615  0.0996
 1049YOPC   C3A15081  16.663   9.934   6.934  0.0478  0.0928 -0.2771
 1049YOPC   C4A15082  16.464  10.054   7.338  0.0200 -0.2266 -0.0943
 1049YOPC   C1B15083  17.180  10.663   6.490 -0.0680  0.0604  0.0887
 1049YOPC   C2B15084  17.146  10.381   6.822  0.0230  0.1366 -0.1099
 1049YOPC   D3B15085  17.419  10.416   7.151  0.1169 -0.2030  0.0934
 1049YOPC   C4B15086  17.818  10.578   7.199 -0.2210  0.0155 -0.1227
 1050YOPC   NC315087   2.072   8.926   5.631  0.0911 -0.0222 -0.1186
 1050YOPC   PO415088   2.267   8.578   5.609 -0.0057 -0.0794  0.1565
 1050YOPC   GL115089   2.328   8.466   6.002  0.1674 -0.3782 -0.0560
 1050YOPC   GL215090   2.289   8.742   6.099  0.1709  0.2316 -0.1007
 1050YOPC   C1A15091   2.510   8.499   6.449  0.2245 -0.1352 -0.0716
 1050YOPC   D2A15092   2.483   8.606   6.920  0.1654  0.0606  0.1528
 1050YOPC   C3A15093   2.622   8.592   7.347 -0.0898 -0.1257 -0.0412
 1050YOPC   C4A15094   2.663   8.661   7.786  0.1745 -0.3060 -0.2218
 1050YOPC   C1B15095   2.275   8.949   6.505 -0.3458  0.1174 -0.1527
 1050YOPC   C2B15096   2.390   9.193   6.768  0.3213  0.3105 -0.1521
 1050YOPC   D3B15097   2.695   9.048   7.081 -0.0929  0.0044 -0.4002
 1050YOPC   C4B15098   2.852   9.011   7.418 -0.0096  0.0967 -0.0410
 1051YOPC   NC315099  14.129   5.711   5.430  0.2286 -0.0682 -0.1082
 1051YOPC   PO415100  13.926   6.044   5.697 -0.1223 -0.0470 -0.0190
 1051YOPC   GL115101  13.885   5.813   6.049 -0.0084  0.0631  0.4849
 1051YOPC   GL215102  13.707   5.608   6.060 -0.0631 -0.0386 -0.0954
 1051YOPC   C1A15103  14.135   5.558   6.483  0.0988  0.0482 -0.0805
 1051YOPC   D2A15104  14.309   5.506   6.755  0.0496  0.0976 -0.4743
 1051YOPC   C3A15105  14.179   5.223   7.073  0.1354  0.0431  0.0562
 1051YOPC   C4A15106  14.170   5.233   7.577  0.1954  0.0696  0.5289
 1051YOPC   C1B15107  13.631   5.476   6.462  0.1535  0.1141  0.1888
 1051YOPC   C2B15108  13.750   5.378   6.893 -0.1232  0.0344 -0.0118
 1051YOPC   D3B15109  13.887   5.527   7.263  0.0466 -0.2405 -0.2346
 1051YOPC   C4B15110  13.944   5.711   7.630 -0.0019 -0.1508 -0.2328
 1052YOPC   NC315111  17.169  15.058   5.918  0.3042 -0.1642  0.1097
 1052YOPC   PO415112  16.634  14.967   5.808 -0.0671  0.2383  0.1193
 1052YOPC   GL115113  16.636  15.054   6.252  0.0220  0.0974  0.1728
 1052YOPC   GL215114  16.414  15.307   6.398  0.0436 -0.0440  0.1269
 1052YOPC   C1A15115  16.628  15.059   6.736  0.1172 -0.0882  0.2183
 1052YOPC   D2A15116  16.538  14.881   7.093  0.3461 -0.2039 -0.1837
 1052YOPC   C3A15117  16.431  14.736   7.524  0.0007  0.0654  0.0705
 1052YOPC   C4A15118  16.585  14.803   7.918 -0.1285 -0.0302  0.3641
 1052YOPC   C1B15119  16.247  15.370   6.853  0.1591 -0.0932 -0.0309
 1052YOPC   C2B15120  16.344  15.392   7.293  0.0450  0.3687 -0.0704
 1052YOPC   D3B15121  16.525  15.581   7.461 -0.0655 -0.1680  0.0282
 1052YOPC   C4B15122  16.585  16.032   7.714  0.0576 -0.2238 -0.3464
 1053YOPC   NC315123  17.444   1.562   5.399 -0.0061  0.1043 -0.2933
 1053YOPC   PO415124  17.642   1.394   5.784 -0.0692 -0.0508  0.4479
 1053YOPC   GL115125  17.709   1.480   6.121 -0.0722 -0.1568 -0.0569
 1053YOPC   GL215126  17.471   1.449   6.273  0.0776 -0.0001  0.0481
 1053YOPC   C1A15127  17.713   1.358   6.709  0.3617 -0.0592  0.3768
 1053YOPC   D2A15128  17.575   1.364   7.148 -0.0620 -0.1345 -0.2210
 1053YOPC   C3A15129  17.592   1.061   7.351  0.3984  0.3190 -0.0133
 1053YOPC   C4A15130  17.467   0.548   7.537 -0.0138  0.1368  0.2696
 1053YOPC   C1B15131  17.458   1.886   6.281 -0.3154  0.0947  0.0375
 1053YOPC   C2B15132  17.627   2.237   6.073  0.5273 -0.2143  0.0656
 1053YOPC   D3B15133  17.423   2.610   6.116  0.0542  0.0071 -0.2925
 1053YOPC   C4B15134  17.219   3.034   6.240  0.3396  0.0633 -0.0299
 1054YOPC   NC315135   6.067   6.902   6.442 -0.0796  0.0007 -0.1253
 1054YOPC   PO415136   5.707   7.081   6.399  0.2292 -0.1463 -0.0031
 1054YOPC   GL115137   5.831   7.267   6.766  0.1424  0.1576 -0.1252
 1054YOPC   GL215138   5.987   6.987   6.937 -0.0177  0.3112  0.1569
 1054YOPC   C1A15139   5.759   7.448   7.211 -0.1838 -0.0860  0.0864
 1054YOPC   D2A15140   5.999   7.745   7.482 -0.0099 -0.0357  0.1261
 1054YOPC   C3A15141   6.222   7.488   7.737 -0.1251  0.0626 -0.1044
 1054YOPC   C4A15142   6.293   7.163   7.802 -0.0391 -0.3895 -0.2340
 1054YOPC   C1B15143   6.003   7.020   7.379 -0.1702  0.1594 -0.3617
 1054YOPC   C2B15144   5.970   6.639   7.701  0.0567 -0.0489  0.0217
 1054YOPC   D3B15145   5.687   6.847   8.053  0.1608 -0.1748 -0.3504
 1054YOPC   C4B15146   5.355   6.675   8.304  0.1886  0.0153  0.4621
 1055YOPC   NC315147  12.695  11.745   6.020  0.1342 -0.2054 -0.1263
 1055YOPC   PO415148  13.116  11.626   6.070  0.0029  0.1151  0.2169
 1055YOPC   GL115149  12.992  11.735   6.444 -0.3179 -0.1026  0.2021
 1055YOPC   GL215150  13.292  11.616   6.604  0.0605 -0.0572 -0.2252
 1055YOPC   C1A15151  12.793  11.836   6.785 -0.0266  0.0128 -0.2320
 1055YOPC   D2A15152  12.805  11.865   7.290 -0.1387  0.0692  0.1400
 1055YOPC   C3A15153  12.844  11.849   7.759  0.3168 -0.0355  0.1556
 1055YOPC   C4A15154  13.028  11.913   8.218 -0.3470  0.0673  0.1018
 1055YOPC   C1B15155  13.190  11.673   7.012 -0.2720  0.1007 -0.1011
 1055YOPC   C2B15156  13.202  11.626   7.470 -0.1226 -0.2612 -0.0071
 1055YOPC   D3B15157  13.028  11.392   7.788  0.4394 -0.3226  0.1262
 1055YOPC   C4B15158  12.972  11.015   8.070 -0.2283 -0.2621 -0.1984
 1056YOPC   NC315159   3.988   4.211   5.615  0.3043 -0.0811 -0.1623
 1056YOPC   PO415160   4.430   4.075   5.798 -0.1550  0.1413 -0.1448
 1056YOPC   GL115161   4.250   3.775   6.088 -0.1731  0.0764  0.1479
 1056YOPC   GL215162   4.372   3.535   6.331 -0.0413  0.1182  0.2895
 1056YOPC   C1A15163   4.030   3.828   6.424 -0.2305 -0.2603  0.0873
 1056YOPC   D2A15164   3.876   3.623   6.816 -0.0531 -0.0304  0.0688
 1056YOPC   C3A15165   3.442   3.432   6.817 -0.0101  0.1074  0.3241
 1056YOPC   C4A15166   3.334   3.147   7.052  0.0438  0.0843  0.0532
 1056YOPC   C1B15167   4.424   3.577   6.742  0.2414 -0.2596  0.1825
 1056YOPC   C2B15168   4.246   3.301   7.044  0.0352 -0.1734  0.1762
 1056YOPC   D3B15169   4.449   3.265   7.524 -0.0969  0.0468 -0.1203
 1056YOPC   C4B15170   4.562   2.926   7.887  0.0975 -0.3099  0.0250
 1057YOPC   NC315171   4.841   5.279   6.314 -0.1259  0.1809  0.2961
 1057YOPC   PO415172   4.675   5.660   6.169 -0.1120 -0.1475 -0.0823
 1057YOPC   GL115173   4.425   5.646   6.480  0.2989 -0.2020 -0.0269
 1057YOPC   GL215174   4.426   5.908   6.691 -0.3964 -0.0865  0.0057
 1057YOPC   C1A15175   4.225   5.463   6.861 -0.1397  0.2275 -0.1204
 1057YOPC   D2A15176   4.203   5.290   7.228  0.1581  0.3948  0.2022
 1057YOPC   C3A15177   4.330   4.985   7.295  0.0359 -0.0668  0.0573
 1057YOPC   C4A15178   4.206   4.725   7.454  0.1643  0.0550 -0.4198
 1057YOPC   C1B15179   4.471   5.751   7.095  0.0436 -0.1151  0.1675
 1057YOPC   C2B15180   4.239   5.662   7.542 -0.2027 -0.0572 -0.0508
 1057YOPC   D3B15181   4.095   5.203   7.770 -0.1792 -0.1958 -0.0951
 1057YOPC   C4B15182   4.394   4.863   7.935  0.0322  0.2058 -0.0427
 1058YOPC   NC315183  17.956   4.633   5.954 -0.0072 -0.2643 -0.1023
 1058YOPC   PO415184  18.302   4.991   5.940 -0.0602 -0.1361 -0.2994
 1058YOPC   GL115185  18.493   5.431   6.064 -0.1835 -0.0239  0.1955
 1058YOPC   GL215186  18.388   5.731   6.064  0.2057 -0.0798 -0.1981
 1058YOPC   C1A15187  18.659   5.345   6.453 -0.0872 -0.0232  0.1479
 1058YOPC   D2A15188  18.761   5.297   6.795  0.0485 -0.0231  0.2344
 1058YOPC   C3A15189  18.623   5.092   7.066  0.0022  0.0759 -0.0099
 1058YOPC   C4A15190  18.650   4.951   7.500  0.4988  0.0244  0.2923
 1058YOPC   C1B15191  18.199   5.498   6.461 -0.1196 -0.1342 -0.3336
 1058YOPC   C2B15192  18.257   5.106   6.687 -0.1458 -0.2165 -0.1132
 1058YOPC   D3B15193  17.898   4.857   6.848 -0.1552 -0.1361 -0.2237
 1058YOPC   C4B15194  17.792   4.563   7.158  0.0236  0.3119  0.0549
 1059YOPC   NC315195  12.410  10.516   6.167  0.0206 -0.3770  0.0143
 1059YOPC   PO415196  12.740  10.344   6.061 -0.1013 -0.1110  0.2250
 1059YOPC   GL115197  12.753  10.211   6.447  0.0241  0.0661  0.0689
 1059YOPC   GL215198  13.112  10.144   6.596  0.1393 -0.0807  0.0852
 1059YOPC   C1A15199  12.587   9.882   6.638 -0.2235 -0.3721  0.0585
 1059YOPC   D2A15200  12.380   9.627   6.592 -0.1094 -0.0154  0.4105
 1059YOPC   C3A15201  11.927   9.724   6.590  0.2424  0.1269  0.2994
 1059YOPC   C4A15202  11.576   9.830   6.741  0.0951  0.3532  0.0094
 1059YOPC   C1B15203  13.110   9.976   7.014 -0.3347  0.0200  0.0296
 1059YOPC   C2B15204  13.205  10.133   7.483 -0.0908  0.1268  0.2081
 1059YOPC   D3B15205  13.282  10.487   7.518  0.2392  0.1252  0.0358
 1059YOPC   C4B15206  13.187  10.924   7.584 -0.1522  0.0841  0.0523
 1060YOPC   NC315207   1.743   7.426   5.751  0.0816 -0.1412  0.2906
 1060YOPC   PO415208   1.809   7.671   6.089 -0.1998  0.0449  0.0488
 1060YOPC   GL115209   2.090   7.754   6.371  0.1405 -0.3988  0.3771
 1060YOPC   GL215210   2.263   8.083   6.464 -0.2460 -0.0180  0.1384
 1060YOPC   C1A15211   2.183   7.753   6.868  0.1674  0.1810  0.0357
 1060YOPC   D2A15212   2.070   7.508   7.206  0.1583  0.0641  0.3062
 1060YOPC   C3A15213   2.083   7.481   7.664  0.0602 -0.0069 -0.0422
 1060YOPC   C4A15214   2.013   7.602   8.044 -0.1686  0.2771  0.1293
 1060YOPC   C1B15215   2.099   8.258   6.827 -0.2510  0.0954 -0.0295
 1060YOPC   C2B15216   2.168   8.378   7.255  0.2612 -0.0156 -0.3389
 1060YOPC   D3B15217   1.940   8.328   7.540 -0.0775  0.0407  0.1017
 1060YOPC   C4B15218   1.883   8.503   7.830 -0.2461  0.0816  0.0809
 1061YOPC   NC315219   6.532  13.333   5.876 -0.2376  0.2903  0.2246
 1061YOPC   PO415220   6.620  12.888   5.936  0.0513  0.1557  0.0266
 1061YOPC   GL115221   6.447  12.699   6.276 -0.0980  0.0166 -0.2144
 1061YOPC   GL215222   6.468  12.331   6.376 -0.1600 -0.0299  0.0201
 1061YOPC   C1A15223   6.254  12.585   6.700 -0.1083 -0.1750  0.1078
 1061YOPC   D2A15224   5.991  12.459   6.976 -0.2131 -0.1219  0.0599
 1061YOPC   C3A15225   6.064  12.710   7.356  0.0885  0.0568 -0.1290
 1061YOPC   C4A15226   6.115  12.951   7.681 -0.3636  0.1267  0.1658
 1061YOPC   C1B15227   6.727  12.575   6.675  0.1219  0.1618  0.0036
 1061YOPC   C2B15228   7.017  12.594   6.982 -0.2647 -0.1432  0.0780
 1061YOPC   D3B15229   7.024  12.744   7.405 -0.1006  0.1069 -0.0416
 1061YOPC   C4B15230   6.911  12.775   7.830  0.1365  0.1620 -0.1138
 1062YOPC   NC315231  11.893   2.863   5.387 -0.3222  0.0462  0.1451
 1062YOPC   PO415232  12.175   3.269   5.425  0.2598  0.0679  0.2116
 1062YOPC   GL115233  12.092   3.511   5.832  0.1813  0.0770 -0.1014
 1062YOPC   GL215234  11.720   3.611   5.957 -0.0942  0.1393 -0.1864
 1062YOPC   C1A15235  12.102   3.323   6.222 -0.0693  0.2268  0.0138
 1062YOPC   D2A15236  11.956   3.575   6.587 -0.0220 -0.1026  0.0123
 1062YOPC   C3A15237  11.583   3.377   6.736  0.2253 -0.3840 -0.1278
 1062YOPC   C4A15238  11.187   3.529   6.556  0.1805  0.3649  0.0600
 1062YOPC   C1B15239  11.597   3.383   6.265 -0.2888 -0.3404  0.1037
 1062YOPC   C2B15240  11.720   2.996   6.372  0.0280 -0.0295 -0.0653
 1062YOPC   D3B15241  12.048   2.877   6.608  0.0046  0.4762  0.0034
 1062YOPC   C4B15242  12.502   2.730   6.876  0.0696  0.1379 -0.0475
 1063YOPC   NC315243  13.288  12.656   5.980 -0.0451  0.2259  0.2173
 1063YOPC   PO415244  13.322  13.023   6.243 -0.0582 -0.0959 -0.1162
 1063YOPC   GL115245  13.698  13.122   6.457 -0.0286  0.0036  0.4316
 1063YOPC   GL215246  13.557  13.411   6.642  0.0078 -0.0324 -0.0493
 1063YOPC   C1A15247  14.068  12.947   6.722  0.0772  0.3937  0.1039
 1063YOPC   D2A15248  14.050  12.825   7.147 -0.0977  0.0323 -0.0872
 1063YOPC   C3A15249  14.463  12.769   7.413  0.1183 -0.0765  0.1170
 1063YOPC   C4A15250  14.690  12.449   7.605  0.0401  0.2594  0.0809
 1063YOPC   C1B15251  13.747  13.309   7.028 -0.0903  0.3616  0.2108
 1063YOPC   C2B15252  14.123  13.450   7.115 -0.0930 -0.0012 -0.1402
 1063YOPC   D3B15253  14.423  13.691   7.183  0.0558 -0.0738  0.0708
 1063YOPC   C4B15254  14.764  13.958   7.429  0.0663  0.0505 -0.1162
 1064YOPC   NC315255  11.758  17.128   5.893  0.2198 -0.0792  0.2688
 1064YOPC   PO415256  11.994  17.527   5.992 -0.4137  0.0928  0.0464
 1064YOPC   GL115257  11.655  17.664   6.361  0.0740 -0.0310  0.2492
 1064YOPC   GL215258  11.410  17.655   6.184  0.3353  0.0037  0.3907
 1064YOPC   C1A15259  11.454  17.559   6.697  0.2608  0.2085  0.0318
 1064YOPC   D2A15260  11.172  17.817   6.941 -0.1280  0.1180 -0.2244
 1064YOPC   C3A15261  11.151  17.629   7.359  0.1854 -0.0898 -0.0374
 1064YOPC   C4A15262  11.307  17.704   7.877  0.0056 -0.0747 -0.0305
 1064YOPC   C1B15263  11.057  17.848   6.431  0.4013  0.2499 -0.0963
 1064YOPC   C2B15264  10.712  17.757   6.606  0.0046 -0.2293 -0.1037
 1064YOPC   D3B15265  10.704  18.095   6.895 -0.0398  0.1166  0.2613
 1064YOPC   C4B15266  10.442  18.260   7.238 -0.0883  0.0059 -0.0808
 1065YOPC   NC315267  10.660   8.627   6.189 -0.1494 -0.0711  0.1198
 1065YOPC   PO415268  10.508   8.256   6.178 -0.1876  0.1506  0.1542
 1065YOPC   GL115269  10.360   8.235   6.530 -0.1097 -0.0655  0.0831
 1065YOPC   GL215270  10.084   8.337   6.589 -0.1971 -0.0063  0.3836
 1065YOPC   C1A15271  10.514   8.226   6.969  0.0855 -0.2093  0.0048
 1065YOPC   D2A15272  10.329   8.355   7.365 -0.3223  0.0093 -0.0508
 1065YOPC   C3A15273  10.172   7.934   7.618 -0.1994  0.1223 -0.1045
 1065YOPC   C4A15274  10.031   7.744   7.991  0.2138  0.3957  0.4345
 1065YOPC   C1B15275   9.981   8.207   6.943 -0.3587 -0.2097 -0.0458
 1065YOPC   C2B15276   9.877   7.859   7.213  0.0387  0.3573 -0.0381
 1065YOPC   D3B15277   9.630   7.940   7.604 -0.0465 -0.4999  0.1145
 1065YOPC   C4B15278   9.430   8.222   7.794 -0.2802  0.0302  0.1561
 1066YOPC   NC315279  15.632   8.080   5.660 -0.1375 -0.0899 -0.0068
 1066YOPC   PO415280  15.861   8.454   5.553  0.1366  0.0580  0.1678
 1066YOPC   GL115281  16.089   8.566   5.916 -0.2537 -0.2195 -0.1454
 1066YOPC   GL215282  15.819   8.791   6.054  0.1721 -0.1288  0.0725
 1066YOPC   C1A15283  16.249   8.710   6.237  0.0161  0.0389 -0.3206
 1066YOPC   D2A15284  16.246   8.682   6.605  0.0637  0.2289 -0.0709
 1066YOPC   C3A15285  16.149   8.408   6.859  0.1446  0.2939  0.0467
 1066YOPC   C4A15286  15.976   8.015   6.847  0.1200  0.2116 -0.2228
 1066YOPC   C1B15287  15.780   8.767   6.380 -0.0174  0.1359 -0.2971
 1066YOPC   C2B15288  15.804   8.876   6.809 -0.0169  0.1118 -0.0852
 1066YOPC   D3B15289  16.094   9.145   7.045 -0.1357 -0.1011 -0.0217
 1066YOPC   C4B15290  16.454   9.493   7.217 -0.0822 -0.1295  0.1438
 1067YOPC   NC315291   2.392   9.189   4.851 -0.0547 -0.2697 -0.2249
 1067YOPC   PO415292   2.359   9.262   5.364  0.1491 -0.1673  0.0560
 1067YOPC   GL115293   2.372   9.416   5.785  0.0842  0.0901 -0.0005
 1067YOPC   GL215294   2.688   9.421   5.932 -0.1822 -0.3679  0.2326
 1067YOPC   C1A15295   2.180   9.347   6.195  0.1092 -0.1424  0.0342
 1067YOPC   D2A15296   1.855   9.353   6.436 -0.1312  0.0287  0.0282
 1067YOPC   C3A15297   1.798   9.164   6.773  0.1284  0.4435 -0.1651
 1067YOPC   C4A15298   1.704   9.156   7.165 -0.1039 -0.3462  0.1351
 1067YOPC   C1B15299   2.578   9.556   6.306 -0.0788 -0.1697  0.2230
 1067YOPC   C2B15300   2.300   9.731   6.569  0.1803  0.1222 -0.1414
 1067YOPC   D3B15301   2.213  10.003   6.956  0.3044  0.2940 -0.0636
 1067YOPC   C4B15302   2.365   9.964   7.379 -0.1168 -0.2506  0.2774
 1068YOPC   NC315303  17.689   6.151   5.226  0.0244  0.0222  0.0572
 1068YOPC   PO415304  17.682   5.750   5.405 -0.3831 -0.6907  0.3608
 1068YOPC   GL115305  17.928   5.842   5.708  0.0937 -0.0890  0.3519
 1068YOPC   GL215306  17.840   5.639   5.972 -0.0145 -0.0299 -0.0471
 1068YOPC   C1A15307  18.013   6.120   5.990 -0.2321 -0.1109 -0.0225
 1068YOPC   D2A15308  18.083   6.502   6.328 -0.0627 -0.0335 -0.1534
 1068YOPC   C3A15309  18.098   6.284   6.712  0.1991 -0.1561 -0.0220
 1068YOPC   C4A15310  18.135   6.201   7.104  0.3292  0.1315 -0.0005
 1068YOPC   C1B15311  17.528   5.513   6.232  0.0612 -0.1155 -0.1447
 1068YOPC   C2B15312  17.339   5.713   6.570  0.0738  0.3300  0.3116
 1068YOPC   D3B15313  17.619   6.007   6.903  0.0011 -0.1509 -0.0379
 1068YOPC   C4B15314  17.761   5.874   7.273  0.3170 -0.2723  0.0118
 1069YOPC   NC315315  17.038  12.555   5.987  0.0821  0.3306  0.0718
 1069YOPC   PO415316  17.192  12.967   5.925 -0.1299  0.3147 -0.0321
 1069YOPC   GL115317  17.072  12.894   6.349 -0.1776 -0.0433  0.1199
 1069YOPC   GL215318  16.828  12.980   6.469  0.2782 -0.0012 -0.3338
 1069YOPC   C1A15319  17.070  12.743   6.794  0.1925  0.3808 -0.1149
 1069YOPC   D2A15320  17.224  12.819   7.210  0.0336  0.2348  0.1133
 1069YOPC   C3A15321  17.505  13.166   7.287  0.0934  0.0700  0.0038
 1069YOPC   C4A15322  17.587  13.522   7.509  0.0347 -0.1945  0.0549
 1069YOPC   C1B15323  16.663  13.029   6.922 -0.2307  0.0327  0.0559
 1069YOPC   C2B15324  16.742  12.768   7.305 -0.1247 -0.1156 -0.1150
 1069YOPC   D3B15325  16.863  12.380   7.073 -0.3311  0.1253 -0.0439
 1069YOPC   C4B15326  17.118  12.100   6.881 -0.0638  0.0026  0.2936
 1070YOPC   NC315327   0.105  16.598   5.918  0.1025  0.1589 -0.0016
 1070YOPC   PO415328   0.457  16.374   5.943 -0.1789 -0.0965 -0.1683
 1070YOPC   GL115329   0.654  16.367   6.331  0.2218  0.1433 -0.2355
 1070YOPC   GL215330   0.936  16.570   6.283  0.0804 -0.0576 -0.1979
 1070YOPC   C1A15331   0.806  16.277   6.738  0.0553  0.2091 -0.3053
 1070YOPC   D2A15332   0.755  16.609   7.045 -0.0130 -0.1046  0.1235
 1070YOPC   C3A15333   0.845  16.596   7.444  0.0292  0.1653  0.2125
 1070YOPC   C4A15334   0.730  16.668   7.886 -0.1343  0.0522 -0.0495
 1070YOPC   C1B15335   0.904  16.918   6.648  0.3555 -0.2671 -0.1815
 1070YOPC   C2B15336   1.001  17.231   6.924 -0.0244 -0.1711  0.0903
 1070YOPC   D3B15337   0.950  17.081   7.260  0.3060 -0.3073  0.4432
 1070YOPC   C4B15338   0.781  17.206   7.574 -0.1652 -0.0012  0.0431
 1071YOPC   NC315339   7.785  14.181   5.823  0.1319 -0.0716  0.2744
 1071YOPC   PO415340   7.933  14.377   6.167 -0.0651  0.0548  0.0501
 1071YOPC   GL115341   8.144  14.300   6.613 -0.3876  0.2474  0.2018
 1071YOPC   GL215342   8.377  14.110   6.744 -0.1598 -0.0049 -0.1988
 1071YOPC   C1A15343   7.957  14.299   7.066  0.0958  0.1830  0.3473
 1071YOPC   D2A15344   8.132  14.233   7.503 -0.5206 -0.1684  0.1825
 1071YOPC   C3A15345   8.406  13.972   7.543 -0.0165  0.2794 -0.1268
 1071YOPC   C4A15346   8.742  13.719   7.751 -0.1975  0.1660 -0.1087
 1071YOPC   C1B15347   8.730  13.929   6.864 -0.4017  0.0837 -0.1523
 1071YOPC   C2B15348   8.947  14.002   7.304 -0.1293  0.1873 -0.1899
 1071YOPC   D3B15349   9.277  13.862   7.364  0.1820 -0.1758  0.0873
 1071YOPC   C4B15350   9.676  13.711   7.107 -0.1377  0.1581 -0.1081
 1072YOPC   NC315351  16.359   9.565   5.390 -0.0571 -0.3631  0.2751
 1072YOPC   PO415352  16.437   9.832   5.669  0.0171 -0.3876  0.1565
 1072YOPC   GL115353  16.288  10.041   6.024  0.0705 -0.0481  0.0469
 1072YOPC   GL215354  16.016  10.018   5.789  0.1951 -0.0773 -0.1104
 1072YOPC   C1A15355  16.307  10.467   6.320 -0.0324  0.0693 -0.1593
 1072YOPC   D2A15356  16.018  10.425   6.671 -0.0130  0.1813 -0.6508
 1072YOPC   C3A15357  15.835  10.444   7.089 -0.0347  0.1078  0.0385
 1072YOPC   C4A15358  15.699  10.350   7.470  0.0701  0.1535 -0.0549
 1072YOPC   C1B15359  15.883  10.136   6.248  0.0568  0.0074  0.1826
 1072YOPC   C2B15360  15.615   9.856   6.652  0.1697 -0.4357  0.0725
 1072YOPC   D3B15361  15.700   9.922   7.073 -0.1556  0.2393  0.1440
 1072YOPC   C4B15362  15.589   9.834   7.472  0.0569 -0.0263 -0.1428
 1073YOPC   NC315363   8.893  15.067   5.920 -0.0508 -0.1532 -0.0696
 1073YOPC   PO415364   8.603  14.842   6.097  0.0849  0.2048 -0.1693
 1073YOPC   GL115365   8.471  14.729   6.527  0.0410  0.2105 -0.1833
 1073YOPC   GL215366   8.152  14.839   6.729  0.1663 -0.0656 -0.1101
 1073YOPC   C1A15367   8.445  14.549   6.946 -0.0347  0.0433 -0.0052
 1073YOPC   D2A15368   8.594  14.335   7.247 -0.1227 -0.1159 -0.0305
 1073YOPC   C3A15369   8.576  14.373   7.773  0.0625 -0.1075 -0.1739
 1073YOPC   C4A15370   8.554  14.404   8.240 -0.1979 -0.1094 -0.2642
 1073YOPC   C1B15371   8.328  15.102   7.075 -0.2210  0.0207 -0.0048
 1073YOPC   C2B15372   8.285  15.249   7.553 -0.1411 -0.1304  0.0728
 1073YOPC   D3B15373   8.019  14.985   7.887 -0.1146 -0.1067  0.3413
 1073YOPC   C4B15374   7.693  14.836   8.156 -0.2841  0.1377 -0.0585
 1074YOPC   NC315375  13.532  17.942   5.742 -0.2199  0.2140 -0.1706
 1074YOPC   PO415376  13.275  17.706   5.533  0.1525  0.0639 -0.3074
 1074YOPC   GL115377  12.885  17.566   5.787  0.1023 -0.0183 -0.1108
 1074YOPC   GL215378  12.893  17.821   6.081 -0.4133 -0.2018 -0.1287
 1074YOPC   C1A15379  12.929  17.284   6.179  0.0188  0.1271 -0.0531
 1074YOPC   D2A15380  12.894  17.159   6.597  0.4434 -0.0175  0.2446
 1074YOPC   C3A15381  12.574  17.207   6.796  0.0611  0.1102  0.1809
 1074YOPC   C4A15382  12.259  16.952   6.935  0.1849 -0.1359 -0.1449
 1074YOPC   C1B15383  12.970  17.717   6.418 -0.2830  0.0158  0.0363
 1074YOPC   C2B15384  13.109  17.587   6.805  0.2018 -0.3242  0.0718
 1074YOPC   D3B15385  12.841  17.437   7.113 -0.0485 -0.0839  0.2788
 1074YOPC   C4B15386  12.561  17.315   7.374 -0.3576 -0.2885 -0.0714
 1075YOPC   NC315387   3.956   7.887   6.302 -0.1944  0.2344  0.0043
 1075YOPC   PO415388   4.320   7.652   6.213  0.1519 -0.0698  0.3002
 1075YOPC   GL115389   4.491   7.632   6.618 -0.0193 -0.4950  0.1738
 1075YOPC   GL215390   4.357   7.419   6.718 -0.5273  0.3021  0.1279
 1075YOPC   C1A15391   4.806   7.793   6.863  0.0015 -0.1628  0.0629
 1075YOPC   D2A15392   4.790   7.983   7.290  0.0104 -0.0188  0.0828
 1075YOPC   C3A15393   5.291   8.070   7.578 -0.0643  0.1795  0.0599
 1075YOPC   C4A15394   5.584   7.823   7.828 -0.1430  0.1975  0.0498
 1075YOPC   C1B15395   4.529   7.470   7.147  0.2693 -0.2509  0.0093
 1075YOPC   C2B15396   4.345   7.748   7.362 -0.1859 -0.2287 -0.1583
 1075YOPC   D3B15397   3.966   7.822   7.617  0.2374  0.2058  0.1294
 1075YOPC   C4B15398   3.775   8.083   7.710  0.0708 -0.0611  0.1239
 1076YOPC   NC315399  11.179   4.023   4.844  0.1400 -0.2810  0.0321
 1076YOPC   PO415400  10.841   4.318   5.244  0.3862 -0.1694 -0.0745
 1076YOPC   GL115401  10.768   4.471   5.743  0.0795 -0.1200  0.0730
 1076YOPC   GL215402  10.595   4.277   5.989 -0.0291 -0.0021  0.1379
 1076YOPC   C1A15403  11.058   4.545   6.170  0.0535  0.1967 -0.0957
 1076YOPC   D2A15404  11.384   4.600   6.535  0.3669 -0.0241 -0.1382
 1076YOPC   C3A15405  11.309   4.671   7.035  0.3212  0.1310  0.0386
 1076YOPC   C4A15406  11.243   4.614   7.467 -0.0235  0.2654  0.1761
 1076YOPC   C1B15407  10.491   4.312   6.474  0.1324  0.1095  0.3880
 1076YOPC   C2B15408  10.268   4.309   6.857 -0.0935  0.2198 -0.4276
 1076YOPC   D3B15409  10.515   4.048   7.191  0.2561 -0.2249 -0.3016
 1076YOPC   C4B15410  10.747   3.770   7.310 -0.0145  0.2380 -0.2152
 1077YOPC   NC315411   1.127  17.639   5.452 -0.0507  0.3003 -0.2679
 1077YOPC   PO415412   0.691  17.737   5.620  0.0313  0.0407  0.1208
 1077YOPC   GL115413   0.845  17.896   5.943  0.2517 -0.1767 -0.1493
 1077YOPC   GL215414   1.079  17.707   6.035 -0.2619  0.0560 -0.0600
 1077YOPC   C1A15415   1.214  18.188   5.979  0.0086 -0.1446  0.0481
 1077YOPC   D2A15416   1.549  18.448   6.022 -0.0314 -0.1265 -0.1496
 1077YOPC   C3A15417   1.730  18.524   6.540 -0.3413  0.1091 -0.0641
 1077YOPC   C4A15418   1.563  18.723   6.926  0.3319  0.1592  0.2884
 1077YOPC   C1B15419   0.970  17.993   6.403 -0.1268  0.0801 -0.3268
 1077YOPC   C2B15420   0.719  18.311   6.443 -0.2534 -0.1263 -0.1429
 1077YOPC   D3B15421   0.424  18.371   6.750 -0.3638  0.1960  0.2097
 1077YOPC   C4B15422   0.158  18.159   6.927 -0.0740  0.2899 -0.1237
 1078YOPC   NC315423   4.626  13.695   5.666  0.2272 -0.0893  0.0828
 1078YOPC   PO415424   5.077  13.633   5.731  0.0265  0.1805 -0.1687
 1078YOPC   GL115425   5.013  13.775   6.080  0.0017 -0.0569 -0.2620
 1078YOPC   GL215426   4.788  13.940   6.109  0.1601 -0.2407  0.3517
 1078YOPC   C1A15427   5.158  13.585   6.421 -0.1125  0.0760 -0.0747
 1078YOPC   D2A15428   5.287  13.711   6.856 -0.1614 -0.0644 -0.3243
 1078YOPC   C3A15429   4.982  13.626   7.242 -0.2403  0.0587 -0.3657
 1078YOPC   C4A15430   4.717  13.344   7.398 -0.1466 -0.0726  0.0298
 1078YOPC   C1B15431   4.625  13.696   6.464 -0.2614  0.0280 -0.3103
 1078YOPC   C2B15432   4.596  13.514   6.940  0.0627  0.3033 -0.0770
 1078YOPC   D3B15433   4.395  13.166   6.890 -0.1104 -0.0323  0.2901
 1078YOPC   C4B15434   4.200  12.960   6.606 -0.0736 -0.0084  0.1680
 1079YOPC   NC315435   2.557  15.152   5.334 -0.2424  0.1373  0.1471
 1079YOPC   PO415436   2.543  15.534   5.525  0.1079  0.2456  0.2765
 1079YOPC   GL115437   2.671  15.649   5.959  0.3389  0.0822 -0.2091
 1079YOPC   GL215438   2.642  15.921   6.068  0.0944 -0.1703  0.2314
 1079YOPC   C1A15439   2.524  15.549   6.407 -0.0968 -0.0164  0.2752
 1079YOPC   D2A15440   2.474  15.567   6.733  0.0780  0.0965  0.2337
 1079YOPC   C3A15441   2.165  15.360   7.061  0.2095 -0.2002  0.1369
 1079YOPC   C4A15442   2.172  15.139   7.396 -0.0660  0.1707 -0.0023
 1079YOPC   C1B15443   2.720  16.035   6.422 -0.1037 -0.0261 -0.1492
 1079YOPC   C2B15444   2.700  16.021   6.845  0.1334  0.1923 -0.1968
 1079YOPC   D3B15445   2.299  16.073   7.038  0.1565 -0.2808 -0.3491
 1079YOPC   C4B15446   2.070  16.274   7.376  0.3457 -0.0393  0.0147
 1080YOPC   NC315447   8.270  12.397   5.347  0.0849 -0.4168  0.1080
 1080YOPC   PO415448   8.307  12.334   5.731  0.1209 -0.5587 -0.0166
 1080YOPC   GL115449   8.427  12.643   6.179  0.2985 -0.0275 -0.0040
 1080YOPC   GL215450   8.669  12.784   6.111  0.1123 -0.0253 -0.0208
 1080YOPC   C1A15451   8.327  12.667   6.652  0.1734 -0.1096 -0.1934
 1080YOPC   D2A15452   8.090  12.645   7.022  0.0777  0.4502  0.0146
 1080YOPC   C3A15453   8.346  12.537   7.295 -0.2290  0.0720  0.1986
 1080YOPC   C4A15454   8.610  12.331   7.517 -0.3249  0.0600  0.1833
 1080YOPC   C1B15455   8.599  13.098   6.508  0.0851  0.1865  0.2046
 1080YOPC   C2B15456   8.491  13.034   6.961 -0.0400 -0.2340  0.1326
 1080YOPC   D3B15457   8.457  13.169   7.423 -0.0206  0.2465 -0.1286
 1080YOPC   C4B15458   8.472  13.259   7.820 -0.3749  0.0773 -0.2360
 1081YOPC   NC315459   3.658   9.573   5.749 -0.0030 -0.0659 -0.0576
 1081YOPC   PO415460   3.943   9.267   5.819  0.0560 -0.1688 -0.2994
 1081YOPC   GL115461   4.090   9.109   6.265 -0.1126  0.0267  0.2241
 1081YOPC   GL215462   4.417   9.194   6.346  0.4224  0.0896 -0.0628
 1081YOPC   C1A15463   4.053   8.834   6.602  0.0628  0.0404 -0.0507
 1081YOPC   D2A15464   4.070   8.451   6.857 -0.0761 -0.1425 -0.2421
 1081YOPC   C3A15465   3.784   8.234   6.827  0.2222  0.1222  0.0271
 1081YOPC   C4A15466   3.326   8.129   6.788 -0.2228  0.0039  0.0829
 1081YOPC   C1B15467   4.072   9.398   6.647 -0.3572 -0.1082 -0.1496
 1081YOPC   C2B15468   4.223   9.812   6.802 -0.1438 -0.0045 -0.1225
 1081YOPC   D3B15469   4.203   9.838   7.147  0.1661 -0.3512 -0.0330
 1081YOPC   C4B15470   4.205  10.044   7.455  0.0330  0.1337 -0.2750
 1082YOPC   NC315471  15.574  10.239   5.732  0.1328  0.0904 -0.0808
 1082YOPC   PO415472  15.981  10.416   5.527 -0.2125  0.0687  0.3866
 1082YOPC   GL115473  15.985  10.547   5.916 -0.0052 -0.2257 -0.2232
 1082YOPC   GL215474  16.237  10.714   5.949  0.1108 -0.0930  0.2678
 1082YOPC   C1A15475  16.063  10.877   6.350  0.1463 -0.1549 -0.2106
 1082YOPC   D2A15476  16.276  10.907   6.739 -0.0005  0.1691 -0.2820
 1082YOPC   C3A15477  16.023  10.935   7.023 -0.0621  0.2195  0.0712
 1082YOPC   C4A15478  15.751  11.193   7.191 -0.1891 -0.0969 -0.2356
 1082YOPC   C1B15479  16.486  10.999   6.154  0.2473 -0.3592 -0.0518
 1082YOPC   C2B15480  16.372  11.313   6.469 -0.1083  0.2778  0.0103
 1082YOPC   D3B15481  16.543  11.489   6.836  0.0008  0.1103 -0.4057
 1082YOPC   C4B15482  16.430  11.546   7.238 -0.1723 -0.0948  0.4405
 1083YOPC   NC315483   2.652   0.627   5.604  0.2415 -0.1789  0.1165
 1083YOPC   PO415484   3.115   0.522   5.710  0.0945  0.1946  0.0436
 1083YOPC   GL115485   3.091   0.131   5.882  0.0535 -0.3836  0.1735
 1083YOPC   GL215486   2.809  -0.127   5.812  0.0559 -0.1651  0.0899
 1083YOPC   C1A15487   3.248  -0.029   6.189 -0.3703  0.1108 -0.2052
 1083YOPC   D2A15488   3.308  -0.262   6.582 -0.0575 -0.0551  0.0480
 1083YOPC   C3A15489   3.328  -0.064   6.962  0.1441 -0.0812  0.0820
 1083YOPC   C4A15490   3.114   0.149   7.301 -0.2155  0.0702  0.1759
 1083YOPC   C1B15491   2.595  -0.293   6.024  0.2347  0.2516 -0.0170
 1083YOPC   C2B15492   2.346  -0.407   6.402 -0.1171  0.2812  0.0019
 1083YOPC   D3B15493   1.916  -0.352   6.472 -0.2360  0.0721 -0.1344
 1083YOPC   C4B15494   1.505  -0.297   6.304  0.2361  0.1747  0.0789
 1084YOPC   NC315495   2.267  17.256   5.623 -0.0416  0.3710  0.2820
 1084YOPC   PO415496   2.764  17.238   5.570 -0.0224  0.2016  0.0414
 1084YOPC   GL115497   2.607  17.538   5.838  0.3338 -0.4685 -0.1460
 1084YOPC   GL215498   2.292  17.694   5.913 -0.2251 -0.1246 -0.1310
 1084YOPC   C1A15499   3.016  17.717   6.213 -0.3475 -0.0136 -0.2163
 1084YOPC   D2A15500   3.156  17.546   6.718 -0.3295  0.1263  0.2951
 1084YOPC   C3A15501   3.509  17.377   7.130 -0.1619 -0.0244  0.0553
 1084YOPC   C4A15502   3.891  17.190   7.362  0.3501 -0.3219 -0.0893
 1084YOPC   C1B15503   2.244  17.447   6.302 -0.2732 -0.0959 -0.4458
 1084YOPC   C2B15504   2.205  17.344   6.717  0.0693 -0.1534 -0.1719
 1084YOPC   D3B15505   2.455  17.071   7.067 -0.3558 -0.1528 -0.2270
 1084YOPC   C4B15506   2.287  16.894   7.448 -0.1588  0.0522 -0.1804
 1085YOPC   NC315507  13.932   1.762   5.857  0.1998  0.5520  0.2322
 1085YOPC   PO415508  13.875   2.138   5.914 -0.1184 -0.0211 -0.2327
 1085YOPC   GL115509  14.004   2.026   6.274 -0.0854  0.0124  0.0591
 1085YOPC   GL215510  13.725   1.813   6.367 -0.1561  0.1140 -0.0339
 1085YOPC   C1A15511  13.916   2.110   6.704 -0.0885 -0.1635 -0.2990
 1085YOPC   D2A15512  13.907   1.911   7.161  0.0086  0.2999 -0.1493
 1085YOPC   C3A15513  13.822   2.035   7.579 -0.0606 -0.1372  0.1617
 1085YOPC   C4A15514  13.462   2.060   7.817 -0.2104 -0.1216  0.0227
 1085YOPC   C1B15515  13.693   1.700   6.720 -0.1759 -0.2866  0.1680
 1085YOPC   C2B15516  13.474   1.681   7.156 -0.2446  0.0025 -0.0032
 1085YOPC   D3B15517  13.112   1.789   7.242  0.3813 -0.0654  0.0345
 1085YOPC   C4B15518  12.876   2.049   7.048  0.3654  0.1110 -0.1009
 1086YOPC   NC315519   0.592   0.609   5.751  0.2469 -0.3751  0.1942
 1086YOPC   PO415520   0.530   1.048   5.902 -0.1024 -0.2719 -0.2467
 1086YOPC   GL115521   0.278   1.380   6.258  0.2551  0.1354 -0.1420
 1086YOPC   GL215522   0.000   1.643   6.246  0.1807 -0.1659 -0.0784
 1086YOPC   C1A15523   0.281   1.315   6.632  0.2001  0.1050 -0.2692
 1086YOPC   D2A15524   0.348   1.372   7.100 -0.1115 -0.1552 -0.1150
 1086YOPC   C3A15525   0.201   1.559   7.409 -0.0685 -0.2063  0.2927
 1086YOPC   C4A15526  -0.123   1.551   7.654  0.0444 -0.1291  0.1382
 1086YOPC   C1B15527  -0.092   1.661   6.776 -0.1045  0.2862 -0.0349
 1086YOPC   C2B15528  -0.256   1.432   7.123  0.2044 -0.1628 -0.0075
 1086YOPC   D3B15529  -0.226   1.116   7.423  0.0972 -0.1577  0.0102
 1086YOPC   C4B15530  -0.355   0.784   7.725 -0.0183  0.4318 -0.0628
 1087YOPC   NC315531   1.299   3.396   5.568  0.0856 -0.1405  0.2910
 1087YOPC   PO415532   1.694   3.637   5.594  0.1757  0.1411 -0.0888
 1087YOPC   GL115533   1.673   3.524   6.043 -0.3204  0.1532 -0.0624
 1087YOPC   GL215534   1.563   3.290   6.225  0.0592  0.0017 -0.0014
 1087YOPC   C1A15535   1.517   3.774   6.402  0.1186 -0.4611  0.2509
 1087YOPC   D2A15536   1.181   3.743   6.736 -0.0916 -0.0461  0.1720
 1087YOPC   C3A15537   1.268   3.588   7.040 -0.1153  0.2866  0.0143
 1087YOPC   C4A15538   1.514   3.621   7.401 -0.0380  0.1573  0.1048
 1087YOPC   C1B15539   1.708   2.823   6.172 -0.2657 -0.1841 -0.0358
 1087YOPC   C2B15540   1.522   2.489   6.320  0.3052  0.0541  0.1339
 1087YOPC   D3B15541   1.602   2.129   6.707 -0.0992  0.1120  0.0132
 1087YOPC   C4B15542   1.233   2.194   7.026  0.0830  0.0389 -0.1910
 1088YOPC   NC315543   4.661  11.026   6.005 -0.3505  0.0883 -0.1247
 1088YOPC   PO415544   4.753  10.748   6.271 -0.0810 -0.0887 -0.4520
 1088YOPC   GL115545   4.628  10.819   6.628 -0.1195  0.1234  0.2027
 1088YOPC   GL215546   4.829  11.143   6.588 -0.1292  0.0766 -0.0120
 1088YOPC   C1A15547   4.476  10.830   7.098 -0.1813  0.2144  0.3901
 1088YOPC   D2A15548   4.302  10.730   7.532  0.3041 -0.1033  0.1598
 1088YOPC   C3A15549   4.500  11.100   7.703  0.3124  0.1091  0.1766
 1088YOPC   C4A15550   4.356  11.453   7.799 -0.1049  0.2119 -0.1138
 1088YOPC   C1B15551   4.397  11.223   6.812  0.1940  0.1626  0.0402
 1088YOPC   C2B15552   4.007  11.063   7.076  0.1174  0.1121  0.1049
 1088YOPC   D3B15553   4.014  11.160   7.580 -0.3033  0.1862  0.2418
 1088YOPC   C4B15554   3.925  10.941   7.996  0.1599  0.2273  0.3416
 1089YOPC   NC315555   3.804   7.273   5.718 -0.1668  0.1672  0.2396
 1089YOPC   PO415556   3.499   7.001   5.872 -0.0057 -0.3024  0.2035
 1089YOPC   GL115557   3.469   7.009   6.318  0.1628 -0.3489 -0.3975
 1089YOPC   GL215558   3.637   6.859   6.463 -0.0022  0.2036  0.1043
 1089YOPC   C1A15559   3.427   7.291   6.732  0.1724  0.0333 -0.3173
 1089YOPC   D2A15560   3.499   7.274   7.121 -0.4213  0.1343  0.1225
 1089YOPC   C3A15561   3.360   7.026   7.540 -0.2424  0.0212  0.0559
 1089YOPC   C4A15562   3.153   6.864   7.895 -0.1880 -0.0124 -0.1383
 1089YOPC   C1B15563   3.623   6.837   6.871 -0.1874 -0.1620 -0.2165
 1089YOPC   C2B15564   3.804   6.811   7.332 -0.1892 -0.3122 -0.1926
 1089YOPC   D3B15565   3.725   6.521   7.619  0.2451 -0.1612  0.1425
 1089YOPC   C4B15566   3.523   6.117   7.611  0.0293 -0.0319 -0.1918
 1090YOPC   NC315567   3.330  11.029   5.762  0.1959  0.0986 -0.2762
 1090YOPC   PO415568   3.631  11.409   5.671  0.3638  0.1311  0.0224
 1090YOPC   GL115569   3.273  11.469   6.000 -0.0108  0.2287 -0.1888
 1090YOPC   GL215570   2.932  11.338   5.955 -0.2289 -0.1095  0.0411
 1090YOPC   C1A15571   3.358  11.361   6.348  0.0676 -0.0726  0.0957
 1090YOPC   D2A15572   3.197  11.140   6.631 -0.3491  0.0605 -0.4549
 1090YOPC   C3A15573   3.147  11.107   7.006 -0.1965  0.2853  0.2775
 1090YOPC   C4A15574   2.883  11.235   7.348 -0.0121 -0.1457  0.2945
 1090YOPC   C1B15575   2.717  11.477   6.315 -0.1545 -0.2915  0.2454
 1090YOPC   C2B15576   2.659  11.528   6.742  0.1213 -0.0786 -0.1545
 1090YOPC   D3B15577   2.735  11.647   7.092 -0.3768  0.0285  0.1341
 1090YOPC   C4B15578   2.733  11.659   7.538  0.2212  0.1718 -0.0489
 1091YOPC   NC315579   3.771   8.809   6.045 -0.1238 -0.0735 -0.0130
 1091YOPC   PO415580   3.539   9.242   6.129  0.1314 -0.0210  0.1643
 1091YOPC   GL115581   3.624   9.261   6.579  0.3505 -0.0774 -0.2343
 1091YOPC   GL215582   3.400   9.402   6.747  0.0742 -0.1798  0.1003
 1091YOPC   C1A15583   3.764   9.059   6.951  0.0086  0.2746  0.2356
 1091YOPC   D2A15584   3.715   8.937   7.314 -0.0004  0.0913 -0.1042
 1091YOPC   C3A15585   3.926   8.637   7.442 -0.2616 -0.2173  0.0800
 1091YOPC   C4A15586   3.876   8.278   7.278 -0.1389  0.0868  0.4622
 1091YOPC   C1B15587   3.109   9.585   7.095 -0.0565  0.1717 -0.3249
 1091YOPC   C2B15588   2.943   9.904   7.314  0.1020 -0.1402  0.1443
 1091YOPC   D3B15589   3.136  10.217   7.471 -0.1425  0.1617 -0.0977
 1091YOPC   C4B15590   3.172  10.571   7.816 -0.2350 -0.0218 -0.0935
 1092YOPC   NC315591  14.978   7.071   5.769 -0.0542  0.3416 -0.1111
 1092YOPC   PO415592  14.624   6.818   5.981 -0.1304  0.0158  0.3226
 1092YOPC   GL115593  14.871   6.876   6.335  0.3568  0.0847  0.2044
 1092YOPC   GL215594  14.820   7.228   6.375 -0.2456 -0.4372 -0.0700
 1092YOPC   C1A15595  14.952   6.794   6.705  0.1490  0.3589 -0.0762
 1092YOPC   D2A15596  14.908   6.454   7.039 -0.4221  0.1290  0.3593
 1092YOPC   C3A15597  14.972   6.537   7.535  0.0006 -0.1970 -0.1238
 1092YOPC   C4A15598  14.733   6.258   7.851 -0.5308  0.0387  0.0264
 1092YOPC   C1B15599  14.881   7.235   6.845  0.1275 -0.1332 -0.0180
 1092YOPC   C2B15600  14.688   7.384   7.224  0.1820  0.1702  0.0282
 1092YOPC   D3B15601  14.953   7.381   7.564  0.1440 -0.1687  0.0143
 1092YOPC   C4B15602  15.006   7.091   7.925  0.2251 -0.3736 -0.0612
 1093YOPC   NC315603   4.379  11.704   5.409  0.0117 -0.2609  0.1539
 1093YOPC   PO415604   4.296  11.430   5.764 -0.0564 -0.1779  0.1450
 1093YOPC   GL115605   3.929  11.439   6.053 -0.2090  0.0274  0.0326
 1093YOPC   GL215606   3.703  11.640   6.134 -0.0696  0.2619  0.0472
 1093YOPC   C1A15607   3.843  11.184   6.446  0.1436  0.1435 -0.2570
 1093YOPC   D2A15608   3.561  10.774   6.538  0.1282 -0.0251 -0.2695
 1093YOPC   C3A15609   3.607  10.519   6.889 -0.0071 -0.1782  0.1338
 1093YOPC   C4A15610   3.846  10.160   6.879 -0.0274  0.1482 -0.0682
 1093YOPC   C1B15611   3.645  11.736   6.479 -0.1391 -0.0846 -0.1663
 1093YOPC   C2B15612   3.699  11.899   6.870  0.4074 -0.1009 -0.2518
 1093YOPC   D3B15613   4.047  11.639   7.144  0.2152 -0.2535 -0.0013
 1093YOPC   C4B15614   4.391  11.353   7.284 -0.1066 -0.0628  0.1069
 1094YOPC   NC315615   6.521  14.682   5.796 -0.0425  0.1604 -0.1192
 1094YOPC   PO415616   6.211  14.973   5.832 -0.1744  0.1040 -0.2180
 1094YOPC   GL115617   6.286  15.012   6.219  0.0842  0.1571  0.1705
 1094YOPC   GL215618   6.417  15.412   6.247  0.0639  0.3646  0.2131
 1094YOPC   C1A15619   6.147  14.743   6.533 -0.1162  0.1168 -0.1374
 1094YOPC   D2A15620   6.173  14.321   6.798 -0.2186  0.0418  0.2054
 1094YOPC   C3A15621   6.222  14.376   7.240 -0.0275 -0.0749  0.0866
 1094YOPC   C4A15622   6.039  14.423   7.698 -0.1284  0.1405  0.0711
 1094YOPC   C1B15623   6.362  15.279   6.612 -0.0613 -0.1577 -0.0213
 1094YOPC   C2B15624   6.383  15.398   6.989  0.1600 -0.0497 -0.1476
 1094YOPC   D3B15625   6.154  15.306   7.371 -0.0934 -0.1545  0.0029
 1094YOPC   C4B15626   6.130  14.985   7.709  0.0316  0.0603 -0.0604
 1095YOPC   NC315627   0.238  14.599   5.686  0.1524 -0.1254  0.0793
 1095YOPC   PO415628  -0.224  14.422   5.706 -0.3161 -0.2110 -0.0975
 1095YOPC   GL115629  -0.250  14.608   6.031  0.0004  0.0037  0.0732
 1095YOPC   GL215630  -0.181  14.954   6.089  0.2717  0.2235  0.0586
 1095YOPC   C1A15631  -0.512  14.415   6.389 -0.1345 -0.3011  0.0618
 1095YOPC   D2A15632  -0.369  14.366   6.873  0.2921  0.0587  0.0167
 1095YOPC   C3A15633  -0.541  14.719   7.258  0.0724 -0.1390  0.1080
 1095YOPC   C4A15634  -0.847  14.743   7.606  0.1354 -0.2416  0.2818
 1095YOPC   C1B15635  -0.368  14.899   6.426 -0.1452 -0.1439 -0.1760
 1095YOPC   C2B15636  -0.351  14.846   6.765  0.0970  0.2922 -0.0087
 1095YOPC   D3B15637  -0.533  15.139   6.906  0.2906 -0.1005  0.1748
 1095YOPC   C4B15638  -0.918  15.448   7.009  0.0644  0.1558 -0.1158
 1096YOPC   NC315639   0.419   6.981   5.786  0.0445 -0.0954 -0.4426
 1096YOPC   PO415640   0.508   7.297   5.963 -0.0782  0.3308 -0.0577
 1096YOPC   GL115641   0.525   7.342   6.407 -0.0377  0.1362 -0.0406
 1096YOPC   GL215642   0.225   7.142   6.602  0.0288  0.0743  0.0083
 1096YOPC   C1A15643   0.627   7.383   6.820  0.0376 -0.0498 -0.1263
 1096YOPC   D2A15644   0.486   7.552   7.235  0.2175  0.0744  0.0859
 1096YOPC   C3A15645   0.486   7.978   7.306 -0.0397 -0.2224  0.0779
 1096YOPC   C4A15646   0.319   8.370   7.258 -0.1426  0.1078 -0.2000
 1096YOPC   C1B15647   0.156   7.542   6.843 -0.2089  0.1990 -0.0684
 1096YOPC   C2B15648   0.050   7.690   7.246 -0.1890  0.2165 -0.2588
 1096YOPC   D3B15649  -0.149   7.933   7.620  0.0296  0.1000 -0.0656
 1096YOPC   C4B15650  -0.301   7.824   8.020 -0.0769  0.2656 -0.0834
 1097YOPC   NC315651  14.410  10.623   5.662  0.0492  0.3147 -0.0934
 1097YOPC   PO415652  14.610  10.961   5.895  0.4628  0.3510  0.2666
 1097YOPC   GL115653  14.521  10.847   6.195  0.1274  0.0145 -0.0593
 1097YOPC   GL215654  14.891  10.804   6.355 -0.0033  0.2454 -0.1669
 1097YOPC   C1A15655  14.400  10.636   6.552  0.0821  0.2231 -0.0712
 1097YOPC   D2A15656  14.434  10.544   6.970 -0.0464 -0.1904 -0.1891
 1097YOPC   C3A15657  14.200  10.394   7.282  0.0323 -0.3203 -0.0780
 1097YOPC   C4A15658  14.118  10.484   7.685 -0.1727 -0.2172  0.4657
 1097YOPC   C1B15659  14.840  10.732   6.801 -0.1382 -0.1723 -0.5111
 1097YOPC   C2B15660  14.863  10.647   7.229  0.0432  0.2023 -0.3322
 1097YOPC   D3B15661  14.536  10.816   7.480 -0.0791 -0.2031 -0.2487
 1097YOPC   C4B15662  14.183  11.095   7.581 -0.2652  0.2777 -0.0160
 1098YOPC   NC315663  17.918   2.187   5.671 -0.0472 -0.1952 -0.1833
 1098YOPC   PO415664  17.975   1.756   5.570 -0.0461  0.1609 -0.0351
 1098YOPC   GL115665  18.032   1.872   5.975  0.1882  0.0569  0.2752
 1098YOPC   GL215666  18.213   2.124   6.037 -0.0161  0.0944 -0.0643
 1098YOPC   C1A15667  17.914   1.807   6.425 -0.1268 -0.1294  0.1034
 1098YOPC   D2A15668  17.928   2.044   6.855 -0.0827  0.4443 -0.0488
 1098YOPC   C3A15669  17.730   1.874   7.256  0.1982 -0.1085 -0.1170
 1098YOPC   C4A15670  17.714   1.896   7.617 -0.2949  0.1518 -0.2123
 1098YOPC   C1B15671  18.294   2.229   6.496  0.1050 -0.0659 -0.1825
 1098YOPC   C2B15672  18.289   2.486   6.748  0.0075 -0.4762 -0.0434
 1098YOPC   D3B15673  18.134   2.408   7.134 -0.0278  0.1003 -0.0553
 1098YOPC   C4B15674  17.743   2.370   7.346  0.0680  0.4477  0.0008
 1099YOPC   NC315675   9.366  16.832   5.963  0.1896  0.0756  0.1681
 1099YOPC   PO415676   9.796  16.932   5.874 -0.0493 -0.0022  0.3097
 1099YOPC   GL115677   9.989  17.058   6.174  0.1001  0.3353 -0.0767
 1099YOPC   GL215678   9.717  16.996   6.353 -0.3767  0.0187 -0.2255
 1099YOPC   C1A15679  10.217  16.903   6.629  0.2164  0.0906 -0.0303
 1099YOPC   D2A15680  10.053  16.995   7.016  0.2942  0.0274  0.0840
 1099YOPC   C3A15681  10.296  16.967   7.376 -0.0308 -0.4074  0.2830
 1099YOPC   C4A15682  10.564  16.950   7.814  0.2808 -0.0830 -0.1243
 1099YOPC   C1B15683   9.497  17.079   6.640  0.2649 -0.0772 -0.2446
 1099YOPC   C2B15684   9.472  16.917   7.119  0.1350 -0.1526  0.0188
 1099YOPC   D3B15685   9.748  16.861   7.408 -0.0463 -0.1369  0.1751
 1099YOPC   C4B15686   9.955  17.208   7.606  0.1617  0.2515  0.0511
 1100YOPC   NC315687  17.887  11.077   6.008 -0.1027 -0.1436  0.0241
 1100YOPC   PO415688  17.806  11.385   6.301 -0.2625 -0.0693 -0.0337
 1100YOPC   GL115689  17.955  11.673   6.564 -0.1813  0.1657 -0.0257
 1100YOPC   GL215690  17.701  11.864   6.417 -0.1772  0.2624  0.0242
 1100YOPC   C1A15691  18.106  11.766   6.951  0.0142 -0.1515  0.2957
 1100YOPC   D2A15692  18.202  11.485   7.285 -0.1231  0.4043 -0.0504
 1100YOPC   C3A15693  18.091  11.479   7.715 -0.3440  0.1896 -0.0449
 1100YOPC   C4A15694  18.306  11.240   8.053  0.1195 -0.4448  0.0336
 1100YOPC   C1B15695  17.622  11.975   6.854 -0.0913  0.0888  0.2671
 1100YOPC   C2B15696  17.388  11.913   7.247  0.2554 -0.1003 -0.0115
 1100YOPC   D3B15697  17.156  12.261   7.462  0.1377 -0.0382 -0.0659
 1100YOPC   C4B15698  17.100  12.670   7.771  0.2755  0.0679  0.3007
 1101YOPC   NC315699  10.822  10.930   6.092  0.1250  0.0244 -0.3431
 1101YOPC   PO415700  11.334  11.205   5.969  0.0572  0.2016 -0.0991
 1101YOPC   GL115701  11.325  11.003   6.411 -0.1563  0.1904 -0.1128
 1101YOPC   GL215702  11.446  11.209   6.540 -0.0373  0.0533  0.2523
 1101YOPC   C1A15703  11.225  10.778   6.700 -0.1272 -0.2903 -0.1332
 1101YOPC   D2A15704  11.169  10.587   7.158 -0.1206 -0.1143 -0.0837
 1101YOPC   C3A15705  11.393  10.838   7.432 -0.3647 -0.0805  0.1721
 1101YOPC   C4A15706  11.666  11.183   7.401  0.1390 -0.1829  0.1221
 1101YOPC   C1B15707  11.454  11.208   6.941 -0.0470  0.0710  0.1307
 1101YOPC   C2B15708  11.439  11.620   7.160 -0.3689  0.1898  0.0025
 1101YOPC   D3B15709  11.387  12.004   7.004 -0.2060  0.1609 -0.3203
 1101YOPC   C4B15710  11.293  12.472   7.022  0.0417 -0.2154  0.2788
 1102YOPC   NC315711  14.639   1.245   5.781  0.1324 -0.1833 -0.0541
 1102YOPC   PO415712  14.328   1.521   5.954 -0.0956  0.1092  0.1508
 1102YOPC   GL115713  14.115   1.492   6.203  0.0652  0.0250 -0.2270
 1102YOPC   GL215714  14.042   1.252   6.366  0.0742 -0.0480 -0.0634
 1102YOPC   C1A15715  14.225   1.703   6.622 -0.2394  0.1881  0.0232
 1102YOPC   D2A15716  14.355   1.691   7.033  0.1046  0.1964 -0.0236
 1102YOPC   C3A15717  14.288   1.909   7.449  0.3241 -0.1816  0.3643
 1102YOPC   C4A15718  14.296   1.910   7.948 -0.0514 -0.2502  0.0082
 1102YOPC   C1B15719  14.029   1.306   6.869 -0.1609 -0.0874 -0.0953
 1102YOPC   C2B15720  14.087   1.355   7.301 -0.0396 -0.0080 -0.0650
 1102YOPC   D3B15721  13.842   0.987   7.544 -0.0134 -0.3616  0.1588
 1102YOPC   C4B15722  13.668   0.718   7.966 -0.0467 -0.0327 -0.0376
 1103YOPC   NC315723  18.041  17.733   5.330  0.0094 -0.0666 -0.3520
 1103YOPC   PO415724  18.323  17.765   5.734  0.0057 -0.1731  0.0257
 1103YOPC   GL115725  18.411  17.605   6.148 -0.3499  0.2457 -0.1308
 1103YOPC   GL215726  18.139  17.480   6.235 -0.0944  0.1079  0.0779
 1103YOPC   C1A15727  18.603  17.327   6.429  0.1474  0.2232 -0.2490
 1103YOPC   D2A15728  18.777  17.172   6.708 -0.1784 -0.1156  0.1655
 1103YOPC   C3A15729  18.811  17.185   7.108  0.0144 -0.1578  0.3731
 1103YOPC   C4A15730  18.777  16.919   7.390 -0.2432 -0.2680  0.0778
 1103YOPC   C1B15731  18.253  17.745   6.637  0.1778  0.1224 -0.0038
 1103YOPC   C2B15732  18.478  17.664   7.039 -0.0037  0.2947 -0.2517
 1103YOPC   D3B15733  18.348  17.828   7.448  0.0619  0.1443 -0.1523
 1103YOPC   C4B15734  18.362  17.848   7.832  0.0517  0.0400  0.1582
 1104YOPC   NC315735  17.070   7.708   5.810  0.1090  0.0684  0.1109
 1104YOPC   PO415736  17.441   7.572   5.938 -0.2523 -0.0701 -0.1151
 1104YOPC   GL115737  17.204   7.466   6.217 -0.0562  0.0916 -0.1739
 1104YOPC   GL215738  17.455   7.163   6.216  0.1027 -0.0695 -0.1086
 1104YOPC   C1A15739  17.186   7.313   6.653  0.1341  0.2902 -0.0628
 1104YOPC   D2A15740  17.188   7.232   7.046  0.1545 -0.0352 -0.0517
 1104YOPC   C3A15741  17.058   7.052   7.307 -0.1455 -0.0382  0.0401
 1104YOPC   C4A15742  17.253   6.573   7.203  0.0509  0.3278  0.0999
 1104YOPC   C1B15743  17.618   6.960   6.524 -0.0254 -0.1489 -0.0874
 1104YOPC   C2B15744  17.584   6.945   6.983  0.1463  0.3074  0.0457
 1104YOPC   D3B15745  17.651   7.180   7.265 -0.1011  0.1810 -0.0261
 1104YOPC   C4B15746  17.415   7.312   7.626 -0.1749  0.0751 -0.1798
 1105YOPC   NC315747  10.648   3.945   5.565  0.0482 -0.2991  0.0692
 1105YOPC   PO415748  10.293   3.629   5.354 -0.0615 -0.0075  0.0989
 1105YOPC   GL115749  10.277   3.536   5.791 -0.2371 -0.0049  0.1822
 1105YOPC   GL215750  10.536   3.612   5.897  0.4838 -0.2607 -0.0250
 1105YOPC   C1A15751  10.105   3.292   6.079  0.0476  0.2515 -0.0608
 1105YOPC   D2A15752   9.919   2.983   6.414  0.1728 -0.1437  0.2104
 1105YOPC   C3A15753   9.764   3.145   6.769  0.2626 -0.0441 -0.2270
 1105YOPC   C4A15754   9.831   3.344   7.243  0.0678  0.1119 -0.0296
 1105YOPC   C1B15755  10.528   3.533   6.335 -0.1854 -0.1226 -0.2154
 1105YOPC   C2B15756  10.306   3.204   6.601 -0.1491 -0.1365  0.0273
 1105YOPC   D3B15757  10.266   3.013   7.022 -0.2007 -0.0863  0.0021
 1105YOPC   C4B15758  10.399   2.834   7.463 -0.1866  0.1860  0.1165
 1106YOPC   NC315759   1.582  14.349   6.047 -0.1500  0.0098  0.3510
 1106YOPC   PO415760   1.790  14.638   6.187  0.0451  0.0022 -0.0739
 1106YOPC   GL115761   2.093  14.832   6.326 -0.1379 -0.0989  0.1829
 1106YOPC   GL215762   2.442  14.681   6.469  0.1186  0.1928 -0.2016
 1106YOPC   C1A15763   2.408  15.102   6.662  0.0108 -0.0333  0.0926
 1106YOPC   D2A15764   2.585  15.104   7.092 -0.0320 -0.2236  0.0628
 1106YOPC   C3A15765   2.588  14.747   7.386 -0.0278 -0.0103 -0.1300
 1106YOPC   C4A15766   2.620  14.254   7.547 -0.2133  0.2106 -0.0518
 1106YOPC   C1B15767   2.786  14.684   6.802  0.0213  0.2940 -0.0745
 1106YOPC   C2B15768   2.959  14.607   7.129 -0.3734 -0.1228  0.1465
 1106YOPC   D3B15769   3.070  14.867   7.488 -0.1811  0.0892  0.1800
 1106YOPC   C4B15770   2.697  15.230   7.576  0.0523  0.2406  0.0683
 1107YOPC   NC315771   8.059  13.898   6.233 -0.0318  0.2185  0.0027
 1107YOPC   PO415772   7.547  13.865   6.134 -0.2563  0.0313  0.2264
 1107YOPC   GL115773   7.566  13.667   6.562  0.2883  0.0608  0.0432
 1107YOPC   GL215774   7.226  13.677   6.727 -0.1558 -0.0062 -0.0403
 1107YOPC   C1A15775   7.817  13.815   6.921 -0.2438  0.2440 -0.1364
 1107YOPC   D2A15776   7.850  13.863   7.340  0.1309  0.0690  0.1070
 1107YOPC   C3A15777   7.586  14.157   7.510 -0.1652  0.1582 -0.1903
 1107YOPC   C4A15778   7.717  14.562   7.643 -0.0887 -0.1158  0.2556
 1107YOPC   C1B15779   6.839  13.748   7.040 -0.0774 -0.2061  0.1306
 1107YOPC   C2B15780   6.640  13.519   7.214 -0.1389  0.1299 -0.2007
 1107YOPC   D3B15781   6.586  13.322   7.675  0.2448  0.1751  0.4042
 1107YOPC   C4B15782   6.526  13.127   7.923 -0.2741 -0.0531  0.1357
 1108YOPC   NC315783   1.087  16.827   5.842 -0.2317  0.0184  0.0270
 1108YOPC   PO415784   1.305  16.373   5.969  0.0752 -0.1210 -0.4484
 1108YOPC   GL115785   1.290  16.183   6.344 -0.2358  0.1681 -0.0535
 1108YOPC   GL215786   1.621  16.195   6.376 -0.1648  0.0575  0.0236
 1108YOPC   C1A15787   1.319  16.054   6.784  0.1556 -0.0629  0.0935
 1108YOPC   D2A15788   1.091  16.090   7.146  0.1709  0.5445  0.1527
 1108YOPC   C3A15789   1.179  16.170   7.506  0.2445  0.1270 -0.0872
 1108YOPC   C4A15790   1.213  16.348   7.972 -0.0601  0.1337 -0.2501
 1108YOPC   C1B15791   1.758  16.333   6.764  0.2326  0.0823  0.2249
 1108YOPC   C2B15792   1.622  16.223   7.154  0.3590 -0.1774  0.0631
 1108YOPC   D3B15793   1.507  15.810   7.232  0.0718 -0.3586  0.1417
 1108YOPC   C4B15794   1.674  15.470   7.495 -0.0814 -0.0718  0.0477
 1109YOPC   NC315795  11.689   3.526   5.403 -0.2739  0.0939  0.0796
 1109YOPC   PO415796  11.293   3.446   5.545 -0.1398  0.2062  0.0494
 1109YOPC   GL115797  11.106   3.659   5.786 -0.2736 -0.0527 -0.0087
 1109YOPC   GL215798  11.075   4.014   5.822  0.2497 -0.4255 -0.0242
 1109YOPC   C1A15799  10.948   3.434   6.139  0.1385 -0.0190  0.0025
 1109YOPC   D2A15800  11.115   3.087   6.376  0.0146 -0.1095 -0.0357
 1109YOPC   C3A15801  11.211   3.031   6.784  0.0586 -0.0467 -0.0814
 1109YOPC   C4A15802  11.184   3.068   7.248  0.1386  0.0882 -0.0028
 1109YOPC   C1B15803  11.323   3.978   6.147  0.3048 -0.0012  0.0347
 1109YOPC   C2B15804  11.585   3.964   6.564  0.2317  0.0873 -0.0271
 1109YOPC   D3B15805  11.490   4.004   7.106 -0.0294 -0.0125  0.1740
 1109YOPC   C4B15806  11.464   4.130   7.479  0.1661  0.1507  0.0921
 1110YOPC   NC315807   7.532  17.206   5.431  0.1513  0.0941 -0.1256
 1110YOPC   PO415808   7.840  17.236   5.709 -0.2334  0.1943 -0.1163
 1110YOPC   GL115809   7.769  17.485   6.058  0.0428 -0.1792  0.2506
 1110YOPC   GL215810   8.077  17.430   6.316  0.0907 -0.5305  0.1388
 1110YOPC   C1A15811   7.499  17.817   6.218  0.2191  0.3247 -0.1442
 1110YOPC   D2A15812   7.161  17.803   6.647  0.0591  0.0276 -0.0486
 1110YOPC   C3A15813   6.959  17.515   6.876 -0.2459 -0.0495 -0.2759
 1110YOPC   C4A15814   7.100  17.394   7.370  0.0730 -0.0425 -0.4135
 1110YOPC   C1B15815   8.371  17.618   6.634  0.2268 -0.0056 -0.0814
 1110YOPC   C2B15816   8.243  17.663   7.042  0.0149 -0.0235 -0.1802
 1110YOPC   D3B15817   7.850  17.461   7.151 -0.1007  0.0352  0.0832
 1110YOPC   C4B15818   7.543  17.212   7.327  0.0745  0.1367 -0.2666
 1111YOPC   NC315819  10.133   6.700   5.797  0.0693  0.0870 -0.3395
 1111YOPC   PO415820   9.932   7.040   5.982 -0.0209 -0.2074 -0.0245
 1111YOPC   GL115821   9.960   7.219   6.385 -0.2676 -0.1601 -0.4776
 1111YOPC   GL215822   9.814   7.558   6.466 -0.2146  0.0430  0.2253
 1111YOPC   C1A15823  10.063   7.188   6.710  0.0406  0.3758 -0.1170
 1111YOPC   D2A15824   9.842   7.198   7.150 -0.3067  0.0583  0.3540
 1111YOPC   C3A15825   9.990   6.988   7.538 -0.1815 -0.1307  0.0432
 1111YOPC   C4A15826  10.159   6.570   7.710 -0.2104 -0.0702 -0.2754
 1111YOPC   C1B15827  10.075   7.718   6.755 -0.0791  0.3431  0.0023
 1111YOPC   C2B15828  10.360   7.778   7.140 -0.2305  0.0331  0.0737
 1111YOPC   D3B15829  10.560   7.511   7.513 -0.1040 -0.2038  0.2007
 1111YOPC   C4B15830  10.722   7.330   7.871 -0.1038  0.0615 -0.0330
 1112YOPC   NC315831   5.705  11.195   5.616  0.0199  0.1014 -0.0084
 1112YOPC   PO415832   5.608  11.456   5.910 -0.3024  0.1162  0.1888
 1112YOPC   GL115833   5.492  11.426   6.366 -0.0894 -0.1106  0.0822
 1112YOPC   GL215834   5.462  11.232   6.512 -0.0100  0.2312  0.2976
 1112YOPC   C1A15835   5.524  11.827   6.677 -0.2142  0.2456 -0.2279
 1112YOPC   D2A15836   5.165  12.034   6.929 -0.2178 -0.2668 -0.1421
 1112YOPC   C3A15837   5.144  11.866   7.296 -0.2570  0.1988  0.0186
 1112YOPC   C4A15838   5.294  11.788   7.799  0.1560 -0.3884  0.2476
 1112YOPC   C1B15839   5.275  11.345   6.875  0.1635 -0.1704 -0.1506
 1112YOPC   C2B15840   4.920  11.440   6.985  0.1462  0.2000  0.1185
 1112YOPC   D3B15841   4.868  11.441   7.431  0.0944  0.3216 -0.2132
 1112YOPC   C4B15842   5.232  11.322   7.516  0.2121  0.0610  0.0657
 1113YOPC   NC315843   7.203   6.982   5.894 -0.0818 -0.1650 -0.0321
 1113YOPC   PO415844   7.561   7.188   5.966  0.0263 -0.2137  0.0471
 1113YOPC   GL115845   7.695   7.128   6.365  0.0469  0.2965  0.0558
 1113YOPC   GL215846   7.715   7.381   6.561 -0.0933 -0.0754 -0.1010
 1113YOPC   C1A15847   7.564   6.991   6.829  0.2826 -0.0265 -0.1208
 1113YOPC   D2A15848   7.757   6.731   7.159  0.2852  0.2466  0.0749
 1113YOPC   C3A15849   7.919   6.973   7.587  0.3882  0.2088 -0.1472
 1113YOPC   C4A15850   8.358   7.072   7.689  0.1231  0.3812 -0.0750
 1113YOPC   C1B15851   7.764   7.668   6.931 -0.0138 -0.0729  0.1796
 1113YOPC   C2B15852   7.967   7.823   7.299 -0.3290  0.4652 -0.2789
 1113YOPC   D3B15853   8.134   7.550   7.565 -0.0983 -0.0620 -0.0601
 1113YOPC   C4B15854   8.177   7.480   7.997  0.0779  0.1794  0.0063
 1114YOPC   NC315855   1.604  16.864   5.861  0.1954  0.0480 -0.0170
 1114YOPC   PO415856   1.993  16.790   5.658 -0.2350 -0.1438 -0.2766
 1114YOPC   GL115857   2.199  16.842   6.053 -0.2082  0.2951 -0.1582
 1114YOPC   GL215858   2.511  17.039   5.989  0.1946 -0.0871 -0.0993
 1114YOPC   C1A15859   1.868  16.960   6.453  0.0863  0.0782  0.3546
 1114YOPC   D2A15860   1.531  17.118   6.753 -0.0487  0.0245 -0.1595
 1114YOPC   C3A15861   1.489  17.393   7.045 -0.1186  0.3523  0.2181
 1114YOPC   C4A15862   1.537  17.750   7.372 -0.0650 -0.0141 -0.2430
 1114YOPC   C1B15863   2.659  17.238   6.466  0.0091  0.1031 -0.0331
 1114YOPC   C2B15864   2.650  17.614   6.675 -0.1152 -0.3822 -0.1579
 1114YOPC   D3B15865   2.777  17.471   6.971 -0.1605  0.1049  0.1958
 1114YOPC   C4B15866   3.022  17.386   7.302 -0.0794  0.1261  0.1573
 1115YOPC   NC315867  10.868  15.045   5.873  0.3567  0.0218  0.1518
 1115YOPC   PO415868  10.918  14.611   6.196  0.0614  0.0470 -0.0808
 1115YOPC   GL115869  11.046  14.957   6.375 -0.2323 -0.2482  0.0190
 1115YOPC   GL215870  11.269  15.065   6.216  0.1390 -0.0598  0.2688
 1115YOPC   C1A15871  10.799  15.097   6.683  0.1296  0.0486  0.1368
 1115YOPC   D2A15872  10.762  15.110   7.095 -0.1029 -0.3531  0.0643
 1115YOPC   C3A15873  10.889  15.071   7.490 -0.3558  0.3421  0.0226
 1115YOPC   C4A15874  10.790  15.046   7.923 -0.0813  0.0272 -0.0218
 1115YOPC   C1B15875  11.478  15.170   6.538 -0.1208  0.0426  0.1672
 1115YOPC   C2B15876  11.638  15.492   6.702  0.2400  0.0409  0.2506
 1115YOPC   D3B15877  11.980  15.527   7.004  0.2680 -0.0964  0.0503
 1115YOPC   C4B15878  12.012  15.418   7.339 -0.3479  0.0595 -0.0735
 1116YOPC   NC315879   5.607   3.557   5.901  0.2685 -0.1082  0.1241
 1116YOPC   PO415880   5.725   3.366   6.132  0.2063  0.2816 -0.3188
 1116YOPC   GL115881   5.509   3.171   6.432 -0.2273  0.2784  0.3716
 1116YOPC   GL215882   5.505   2.847   6.280 -0.0991 -0.2714  0.1971
 1116YOPC   C1A15883   5.663   2.956   6.721 -0.1876  0.2921 -0.3060
 1116YOPC   D2A15884   5.674   2.683   7.185 -0.0782  0.2421 -0.1202
 1116YOPC   C3A15885   5.663   2.269   7.337 -0.2523  0.1581 -0.1846
 1116YOPC   C4A15886   5.602   1.934   7.612  0.1680 -0.0421  0.1217
 1116YOPC   C1B15887   5.071   2.786   6.507  0.1351  0.0091 -0.2009
 1116YOPC   C2B15888   5.223   2.889   6.902  0.1818 -0.0469 -0.0546
 1116YOPC   D3B15889   5.177   2.737   7.233 -0.2653  0.2401 -0.0576
 1116YOPC   C4B15890   5.235   2.505   7.533  0.2291 -0.3232  0.0790
 1117YOPC   NC315891  10.363  11.616   5.744 -0.0357 -0.2275  0.2776
 1117YOPC   PO415892  10.536  11.316   6.008  0.0687  0.1585  0.0414
 1117YOPC   GL115893  10.558  11.176   6.503  0.1718  0.1913 -0.0057
 1117YOPC   GL215894  10.727  10.912   6.622  0.2882  0.2161  0.0022
 1117YOPC   C1A15895  10.854  11.347   6.771 -0.2766 -0.1571 -0.2991
 1117YOPC   D2A15896  11.087  11.223   7.249  0.0785 -0.1410 -0.1732
 1117YOPC   C3A15897  11.136  11.528   7.630  0.0010 -0.0931  0.1607
 1117YOPC   C4A15898  10.956  11.857   7.888  0.3360 -0.1092  0.0735
 1117YOPC   C1B15899  10.705  10.949   7.084 -0.3286  0.2332  0.2846
 1117YOPC   C2B15900  10.817  10.861   7.574 -0.0982 -0.3093  0.1813
 1117YOPC   D3B15901  10.975  10.653   8.036  0.2605 -0.2638  0.0218
 1117YOPC   C4B15902  11.150  10.277   8.137  0.0685  0.1805  0.2616
 1118YOPC   NC315903   1.849   0.360   5.288  0.0661  0.0419  0.3310
 1118YOPC   PO415904   1.450   0.292   5.521  0.0926  0.2074  0.2369
 1118YOPC   GL115905   1.613   0.571   5.717  0.2767  0.0789  0.1219
 1118YOPC   GL215906   1.761   0.888   5.909 -0.0810  0.0927 -0.1031
 1118YOPC   C1A15907   1.697   0.536   6.212 -0.3778 -0.1731  0.0533
 1118YOPC   D2A15908   1.731   0.750   6.605  0.3351  0.0963 -0.1106
 1118YOPC   C3A15909   1.888   0.832   6.998 -0.2135  0.3713 -0.2127
 1118YOPC   C4A15910   1.669   1.069   7.315 -0.1469  0.0530 -0.0384
 1118YOPC   C1B15911   2.096   0.909   6.200  0.1198  0.0990  0.0469
 1118YOPC   C2B15912   2.172   0.954   6.597  0.1549 -0.0604  0.0324
 1118YOPC   D3B15913   2.293   1.239   6.878  0.1307 -0.1986 -0.0619
 1118YOPC   C4B15914   2.021   1.379   7.233 -0.0092 -0.0410  0.1188
 1119YOPC   NC315915  16.665  17.597   5.541  0.1008  0.0932  0.0979
 1119YOPC   PO415916  16.969  17.916   5.594 -0.0207 -0.0547  0.1368
 1119YOPC   GL115917  17.069  18.098   5.922 -0.2808 -0.3509 -0.0222
 1119YOPC   GL215918  17.355  17.948   6.057 -0.0847 -0.1226  0.0890
 1119YOPC   C1A15919  17.250  18.361   6.304  0.2189 -0.0824  0.1162
 1119YOPC   D2A15920  17.434  18.418   6.651  0.1278 -0.0492  0.1480
 1119YOPC   C3A15921  17.773  18.676   6.551  0.1318  0.1604 -0.4251
 1119YOPC   C4A15922  18.087  18.938   6.699 -0.0650 -0.3129  0.2950
 1119YOPC   C1B15923  17.044  17.770   6.391 -0.0791 -0.0973 -0.0181
 1119YOPC   C2B15924  17.070  17.662   6.832 -0.1112 -0.0441  0.2956
 1119YOPC   D3B15925  16.755  17.454   7.057 -0.0972  0.2838  0.0793
 1119YOPC   C4B15926  16.650  17.769   7.390  0.1155 -0.0685 -0.4441
 1120YOPC   NC315927   4.889  17.945   5.462 -0.1084 -0.1649  0.0132
 1120YOPC   PO415928   4.711  18.422   5.614 -0.2218  0.0045 -0.4941
 1120YOPC   GL115929   4.625  18.363   6.012 -0.0902 -0.1020  0.1091
 1120YOPC   GL215930   4.899  18.546   6.157  0.0962  0.3066 -0.3443
 1120YOPC   C1A15931   4.706  18.233   6.466  0.1286  0.2317  0.0414
 1120YOPC   D2A15932   4.864  18.163   6.830 -0.3525  0.0699 -0.0870
 1120YOPC   C3A15933   5.011  17.913   7.209 -0.3064 -0.2779  0.2431
 1120YOPC   C4A15934   4.970  17.915   7.679  0.0712  0.2283  0.0358
 1120YOPC   C1B15935   4.860  18.676   6.719 -0.1269  0.0788 -0.0334
 1120YOPC   C2B15936   4.796  18.673   7.064 -0.2128 -0.1494 -0.2632
 1120YOPC   D3B15937   4.589  18.625   7.436 -0.1113 -0.1223  0.0057
 1120YOPC   C4B15938   4.560  18.289   7.664  0.1526  0.1136 -0.0388
 1121YOPC   NC315939   7.012  14.539   5.713  0.1809  0.2183 -0.1473
 1121YOPC   PO415940   6.789  14.320   6.035  0.3247  0.0475 -0.0142
 1121YOPC   GL115941   6.914  14.443   6.425  0.0555  0.2243  0.0076
 1121YOPC   GL215942   7.201  14.526   6.501  0.1111  0.0160  0.1738
 1121YOPC   C1A15943   7.090  14.203   6.782 -0.1220  0.2770 -0.3784
 1121YOPC   D2A15944   7.388  14.035   7.037  0.2639  0.0799  0.0863
 1121YOPC   C3A15945   7.251  13.718   7.343  0.0022  0.0033 -0.3585
 1121YOPC   C4A15946   6.917  13.701   7.596 -0.1723  0.0646 -0.3349
 1121YOPC   C1B15947   7.461  14.553   6.894  0.1740  0.0410  0.0336
 1121YOPC   C2B15948   7.346  14.547   7.284  0.0040  0.1361 -0.0800
 1121YOPC   D3B15949   7.117  14.802   7.489 -0.0470  0.1608  0.0122
 1121YOPC   C4B15950   7.325  14.913   7.848 -0.2500  0.1799 -0.0382
 1122YOPC   NC315951   4.640   3.450   5.463 -0.0814 -0.4921 -0.0777
 1122YOPC   PO415952   4.732   3.641   5.917 -0.1739  0.0400  0.1512
 1122YOPC   GL115953   4.754   3.928   6.252  0.3817  0.2009 -0.1006
 1122YOPC   GL215954   4.835   3.742   6.441  0.0826  0.0515 -0.1549
 1122YOPC   C1A15955   4.415   4.114   6.541  0.2071  0.0834 -0.0856
 1122YOPC   D2A15956   4.158   4.013   6.938  0.2280 -0.4499 -0.0782
 1122YOPC   C3A15957   3.955   3.715   7.264  0.2365 -0.1425  0.2587
 1122YOPC   C4A15958   3.963   3.561   7.637  0.1054 -0.0750  0.1839
 1122YOPC   C1B15959   4.824   3.874   6.793 -0.0939 -0.2494 -0.2511
 1122YOPC   C2B15960   5.121   4.120   6.978 -0.4436  0.0998 -0.2131
 1122YOPC   D3B15961   5.078   4.608   6.959  0.1200 -0.0943  0.1382
 1122YOPC   C4B15962   5.090   5.005   6.841 -0.2098 -0.1051  0.0049
 1123YOPC   NC315963  17.926   7.413   6.094 -0.2548  0.0702  0.0349
 1123YOPC   PO415964  17.997   7.828   6.161  0.1077  0.0859 -0.1046
 1123YOPC   GL115965  17.938   7.715   6.531 -0.2897  0.0810  0.2512
 1123YOPC   GL215966  17.628   7.511   6.516  0.1250  0.0109 -0.1850
 1123YOPC   C1A15967  18.015   7.706   6.846 -0.2883  0.1055  0.0959
 1123YOPC   D2A15968  17.851   7.786   7.265 -0.0682  0.2408 -0.3756
 1123YOPC   C3A15969  17.832   7.575   7.576 -0.4295  0.0971 -0.2067
 1123YOPC   C4A15970  17.579   7.671   7.918 -0.4866  0.0911 -0.0539
 1123YOPC   C1B15971  17.545   7.630   6.866 -0.0606  0.0281  0.1640
 1123YOPC   C2B15972  17.340   7.698   7.254  0.0891  0.1096  0.0959
 1123YOPC   D3B15973  17.041   7.956   7.406  0.2234 -0.1239  0.1409
 1123YOPC   C4B15974  16.748   8.212   7.664 -0.4055 -0.0614 -0.4392
 1124YOPC   NC315975  16.888   8.160   5.605  0.1577 -0.2390  0.1313
 1124YOPC   PO415976  16.642   8.349   5.773 -0.0259 -0.1030  0.0397
 1124YOPC   GL115977  16.470   8.297   6.124  0.0238  0.2958 -0.0614
 1124YOPC   GL215978  16.139   8.228   6.334  0.1593 -0.0469 -0.1506
 1124YOPC   C1A15979  16.580   8.151   6.625  0.2565 -0.0503  0.0438
 1124YOPC   D2A15980  16.538   8.141   7.099  0.0799 -0.2488  0.0499
 1124YOPC   C3A15981  16.414   8.438   7.295  0.2237  0.4105  0.1290
 1124YOPC   C4A15982  16.051   8.669   7.330  0.4095 -0.1706 -0.1999
 1124YOPC   C1B15983  15.686   8.332   6.622  0.1695  0.3977 -0.0831
 1124YOPC   C2B15984  15.701   8.421   7.061 -0.1748 -0.0601  0.0745
 1124YOPC   D3B15985  15.914   8.144   7.332 -0.1034  0.0924 -0.0626
 1124YOPC   C4B15986  16.098   8.109   7.789 -0.4084  0.2453 -0.0643
 1125YOPC   NC315987   6.971   1.199   5.482 -0.0883  0.2806  0.0499
 1125YOPC   PO415988   7.330   0.879   5.608  0.0180 -0.1415 -0.1940
 1125YOPC   GL115989   7.197   1.033   5.987  0.1539 -0.1485 -0.1499
 1125YOPC   GL215990   6.857   0.941   5.922 -0.3018 -0.3114 -0.0857
 1125YOPC   C1A15991   7.053   0.935   6.427 -0.1741  0.1475  0.0409
 1125YOPC   D2A15992   6.945   1.055   6.687  0.0948 -0.1428  0.4024
 1125YOPC   C3A15993   7.094   1.349   6.984 -0.0495 -0.0329  0.0092
 1125YOPC   C4A15994   7.184   1.734   7.255  0.0053  0.0210 -0.3543
 1125YOPC   C1B15995   6.581   1.031   6.319 -0.3081 -0.2578 -0.1287
 1125YOPC   C2B15996   6.202   0.950   6.523 -0.0701 -0.0977  0.0882
 1125YOPC   D3B15997   6.146   0.810   6.844  0.2326  0.4016  0.0446
 1125YOPC   C4B15998   6.277   0.670   7.237 -0.1290  0.1831  0.1811
 1126YOPC   NC315999  15.177  14.296   6.052 -0.0336 -0.0311 -0.0747
 1126YOPC   PO416000  14.783  14.449   6.117  0.1098 -0.1518 -0.2348
 1126YOPC   GL116001  14.943  14.373   6.465 -0.1302 -0.2733  0.0377
 1126YOPC   GL216002  14.914  14.012   6.436  0.0293 -0.0926 -0.3487
 1126YOPC   C1A16003  15.150  14.592   6.667 -0.0685  0.3057 -0.1999
 1126YOPC   D2A16004  15.165  14.849   7.054 -0.1162 -0.2759  0.1076
 1126YOPC   C3A16005  15.301  14.789   7.468 -0.0893  0.1330  0.0245
 1126YOPC   C4A16006  15.561  14.955   7.689  0.0722  0.3279 -0.0054
 1126YOPC   C1B16007  14.920  14.049   6.817 -0.4474 -0.2346 -0.0670
 1126YOPC   C2B16008  14.959  14.327   7.111 -0.1191 -0.0969  0.0853
 1126YOPC   D3B16009  15.176  14.291   7.488  0.0337 -0.1137  0.1025
 1126YOPC   C4B16010  15.167  14.245   7.928  0.0282  0.1342  0.1561
 1127YOPC   NC316011  18.138   0.288   5.641 -0.0739 -0.0248  0.0029
 1127YOPC   PO416012  17.702   0.182   5.860  0.2555 -0.0017  0.0447
 1127YOPC   GL116013  17.835  -0.044   6.258  0.1496  0.0334 -0.2669
 1127YOPC   GL216014  17.918  -0.370   6.270 -0.2266  0.2424 -0.0837
 1127YOPC   C1A16015  17.922  -0.117   6.704 -0.0701 -0.3118 -0.0120
 1127YOPC   D2A16016  18.007  -0.239   7.065  0.0023 -0.3267  0.1350
 1127YOPC   C3A16017  17.940  -0.674   7.114  0.1051 -0.0373 -0.3464
 1127YOPC   C4A16018  17.783  -1.094   7.189  0.2967  0.0291  0.0585
 1127YOPC   C1B16019  17.542  -0.420   6.610  0.0217  0.1196  0.0169
 1127YOPC   C2B16020  17.514  -0.227   7.016  0.1421  0.0419 -0.2674
 1127YOPC   D3B16021  17.506  -0.521   7.414  0.2939 -0.0352 -0.1882
 1127YOPC   C4B16022  17.379  -0.571   7.820  0.2938 -0.0826  0.0331
 1128YOPC   NC316023  15.104  10.939   5.947 -0.1679 -0.0123 -0.0809
 1128YOPC   PO416024  15.168  10.568   5.905 -0.0857  0.2927  0.0853
 1128YOPC   GL116025  15.541  10.693   6.191 -0.2917 -0.0583 -0.0588
 1128YOPC   GL216026  15.522  11.073   6.289  0.1526 -0.0828  0.1832
 1128YOPC   C1A16027  15.576  10.767   6.683  0.1686  0.1541 -0.0352
 1128YOPC   D2A16028  15.429  10.874   6.938  0.4009 -0.0750  0.0351
 1128YOPC   C3A16029  15.357  10.759   7.382  0.0599 -0.0654  0.0910
 1128YOPC   C4A16030  15.471  10.649   7.875 -0.0427  0.2524  0.1025
 1128YOPC   C1B16031  15.774  11.224   6.541 -0.1191 -0.3696 -0.2028
 1128YOPC   C2B16032  16.048  11.456   6.882  0.1512  0.0596 -0.3503
 1128YOPC   D3B16033  15.949  11.623   7.352 -0.1871 -0.1665  0.0125
 1128YOPC   C4B16034  15.520  11.587   7.659  0.0766  0.3225 -0.0738
 1129YOPC   NC316035   1.717   1.211   5.588  0.1714  0.0236 -0.1129
 1129YOPC   PO416036   1.736   1.579   5.298 -0.1337  0.2076  0.0365
 1129YOPC   GL116037   1.744   1.754   5.763 -0.1476 -0.1131 -0.0539
 1129YOPC   GL216038   1.623   1.450   6.030 -0.1660  0.0469  0.3279
 1129YOPC   C1A16039   1.669   2.008   6.129 -0.0548 -0.1237 -0.1467
 1129YOPC   D2A16040   1.164   2.143   6.375  0.2492 -0.0136  0.1390
 1129YOPC   C3A16041   0.892   2.081   6.696  0.0610  0.1431 -0.1011
 1129YOPC   C4A16042   0.758   2.310   7.007 -0.0264 -0.1027  0.0508
 1129YOPC   C1B16043   1.591   1.150   6.321  0.0474  0.1794 -0.0252
 1129YOPC   C2B16044   1.708   1.271   6.821 -0.2050  0.1196 -0.0861
 1129YOPC   D3B16045   1.664   1.675   7.044 -0.0767 -0.0560 -0.0476
 1129YOPC   C4B16046   1.680   2.071   7.199 -0.0853  0.0065  0.1573
 1130YOPC   NC316047  14.898  16.611   5.771 -0.1174 -0.0423 -0.0179
 1130YOPC   PO416048  14.509  16.793   5.812 -0.1957  0.0669 -0.0454
 1130YOPC   GL116049  14.587  16.890   6.166 -0.0469  0.0805  0.0507
 1130YOPC   GL216050  14.761  16.561   6.243 -0.1171 -0.0214 -0.0841
 1130YOPC   C1A16051  14.706  17.140   6.583 -0.0887  0.0746 -0.1420
 1130YOPC   D2A16052  14.537  17.361   6.837  0.0428 -0.0483 -0.2408
 1130YOPC   C3A16053  14.515  17.285   7.238 -0.0639 -0.0619  0.0298
 1130YOPC   C4A16054  14.641  17.425   7.708  0.0276  0.2375 -0.0633
 1130YOPC   C1B16055  14.696  16.359   6.595 -0.3282  0.0392 -0.0676
 1130YOPC   C2B16056  14.765  16.232   6.967 -0.0825  0.1986  0.0883
 1130YOPC   D3B16057  14.514  16.462   7.394  0.1529  0.1621 -0.2338
 1130YOPC   C4B16058  14.359  16.507   7.755  0.1474  0.1742 -0.2663
 1131YOPC   NC316059   7.880   5.567   5.601 -0.0440  0.1101 -0.2215
 1131YOPC   PO416060   7.856   5.323   5.976  0.2255  0.0040 -0.0117
 1131YOPC   GL116061   7.857   5.263   6.340 -0.3617  0.2243 -0.0866
 1131YOPC   GL216062   7.702   4.943   6.443 -0.0758 -0.2485 -0.2308
 1131YOPC   C1A16063   8.031   5.271   6.698  0.0597  0.2207 -0.0254
 1131YOPC   D2A16064   8.078   5.083   6.961 -0.0490  0.0399  0.0452
 1131YOPC   C3A16065   7.732   5.025   7.223 -0.3318  0.0564 -0.2154
 1131YOPC   C4A16066   7.351   4.871   7.350 -0.3195 -0.1398 -0.0790
 1131YOPC   C1B16067   7.504   5.252   6.745  0.2646 -0.0132  0.1984
 1131YOPC   C2B16068   7.323   5.323   7.099 -0.0324 -0.1033 -0.1278
 1131YOPC   D3B16069   7.004   5.322   7.418 -0.2793  0.1180  0.0383
 1131YOPC   C4B16070   6.609   5.378   7.686 -0.2079 -0.1892 -0.1641
 1132YOPC   NC316071  15.917   0.910   5.947  0.1915 -0.0097 -0.2740
 1132YOPC   PO416072  16.424   0.909   5.940 -0.1628 -0.1248  0.1604
 1132YOPC   GL116073  16.648   0.959   6.247  0.0302 -0.2304  0.2015
 1132YOPC   GL216074  16.919   1.115   6.199  0.0045  0.0016  0.1522
 1132YOPC   C1A16075  16.761   0.836   6.700  0.0973 -0.3736 -0.0578
 1132YOPC   D2A16076  16.627   0.638   7.014 -0.0297 -0.2824 -0.0060
 1132YOPC   C3A16077  16.363   0.515   7.135  0.0079 -0.2832  0.0053
 1132YOPC   C4A16078  16.100   0.650   7.435  0.1012  0.0952 -0.0042
 1132YOPC   C1B16079  17.178   1.216   6.577  0.0499  0.2839 -0.1918
 1132YOPC   C2B16080  17.197   0.987   6.972  0.0568  0.2044 -0.0562
 1132YOPC   D3B16081  17.011   0.728   7.320  0.0078  0.0443 -0.0177
 1132YOPC   C4B16082  16.685   0.388   7.502 -0.0274 -0.6387 -0.0512
 1133YOPC   NC316083  11.235  14.216   5.928  0.0150 -0.1244  0.2736
 1133YOPC   PO416084  11.659  14.164   5.895 -0.1119  0.1409  0.0275
 1133YOPC   GL116085  11.540  13.855   6.180 -0.1445 -0.2135  0.4652
 1133YOPC   GL216086  11.767  13.652   6.145 -0.2907 -0.2632  0.2894
 1133YOPC   C1A16087  11.559  13.735   6.631 -0.2680 -0.1372  0.4989
 1133YOPC   D2A16088  11.763  13.681   6.972 -0.3671 -0.1824  0.2878
 1133YOPC   C3A16089  12.220  13.783   6.978 -0.1539  0.2195 -0.1495
 1133YOPC   C4A16090  12.437  14.044   6.691  0.3349 -0.0614  0.0060
 1133YOPC   C1B16091  11.966  13.973   6.497 -0.2823  0.1798 -0.0621
 1133YOPC   C2B16092  11.919  14.201   6.926  0.1798  0.0834 -0.0275
 1133YOPC   D3B16093  12.028  14.051   7.391  0.1026 -0.0293 -0.0077
 1133YOPC   C4B16094  11.934  14.034   7.761 -0.0072  0.0122  0.0076
 1134YOPC   NC316095   1.519   8.076   6.048 -0.4160 -0.1843  0.0973
 1134YOPC   PO416096   1.873   8.270   6.224  0.2403 -0.1609 -0.0311
 1134YOPC   GL116097   1.918   8.580   6.452  0.0533  0.0942 -0.1789
 1134YOPC   GL216098   1.837   8.831   6.290  0.2213  0.0526 -0.1471
 1134YOPC   C1A16099   1.989   8.738   6.858 -0.1122 -0.4468 -0.0484
 1134YOPC   D2A16100   2.201   8.920   7.152  0.3981  0.0674  0.0143
 1134YOPC   C3A16101   1.964   9.253   7.559  0.2013 -0.2037  0.1359
 1134YOPC   C4A16102   1.656   9.509   7.841 -0.0372 -0.0679  0.2587
 1134YOPC   C1B16103   1.458   8.966   6.475 -0.1740 -0.1525  0.0092
 1134YOPC   C2B16104   1.210   8.986   6.851 -0.0265  0.1074  0.1068
 1134YOPC   D3B16105   1.212   9.023   7.245  0.1045 -0.1307 -0.1075
 1134YOPC   C4B16106   1.270   9.235   7.603 -0.3796 -0.0102 -0.2045
 1135YOPC   NC316107  10.487   9.507   6.041 -0.2679  0.2181 -0.0257
 1135YOPC   PO416108  10.730   9.111   6.175  0.1262  0.0397  0.2233
 1135YOPC   GL116109  10.816   9.103   6.536 -0.1304  0.3464  0.0551
 1135YOPC   GL216110  10.503   8.932   6.567  0.1253 -0.0193  0.1629
 1135YOPC   C1A16111  11.078   9.158   6.862  0.0652 -0.0000 -0.1948
 1135YOPC   D2A16112  11.271   9.214   7.354 -0.3164  0.1830  0.2955
 1135YOPC   C3A16113  11.392   8.842   7.582  0.4898  0.1142 -0.1350
 1135YOPC   C4A16114  11.417   8.416   7.837  0.2335 -0.0869  0.0826
 1135YOPC   C1B16115  10.161   9.192   6.713 -0.2962 -0.1401  0.3170
 1135YOPC   C2B16116  10.182   9.311   7.114  0.0468 -0.0330 -0.1932
 1135YOPC   D3B16117  10.098   9.299   7.486  0.0714 -0.3434 -0.1905
 1135YOPC   C4B16118  10.093   9.589   7.873  0.2087  0.0695 -0.4752
 1136YOPC   NC316119  11.528  16.704   5.887  0.1221  0.0660 -0.2410
 1136YOPC   PO416120  11.237  17.091   5.887 -0.0965 -0.2064  0.1696
 1136YOPC   GL116121  11.382  17.170   6.303  0.1278 -0.2714  0.1125
 1136YOPC   GL216122  11.160  16.934   6.482 -0.2258  0.2808  0.2597
 1136YOPC   C1A16123  11.589  17.034   6.791  0.1442  0.1447 -0.2120
 1136YOPC   D2A16124  11.439  16.875   7.135 -0.1767  0.0123 -0.0159
 1136YOPC   C3A16125  11.349  17.117   7.493  0.2554 -0.2389 -0.0012
 1136YOPC   C4A16126  11.547  17.313   7.700 -0.1907  0.1030  0.2301
 1136YOPC   C1B16127  11.251  16.499   6.679 -0.3455 -0.4776 -0.0638
 1136YOPC   C2B16128  11.414  16.362   7.122  0.1526  0.0827 -0.1962
 1136YOPC   D3B16129  11.293  16.207   7.517 -0.1417 -0.1372 -0.1622
 1136YOPC   C4B16130  10.895  16.130   7.715 -0.1019 -0.2493  0.1564
 1137YOPC   NC316131   2.549   6.796   5.760 -0.1162  0.2011 -0.1076
 1137YOPC   PO416132   2.507   6.956   6.129 -0.0694  0.2116 -0.0029
 1137YOPC   GL116133   2.678   6.927   6.510  0.5029  0.0346  0.1437
 1137YOPC   GL216134   3.022   7.049   6.683  0.3815  0.1281 -0.0471
 1137YOPC   C1A16135   2.599   6.769   6.991  0.0697  0.2022  0.1096
 1137YOPC   D2A16136   2.751   6.767   7.475 -0.1193 -0.0216 -0.1953
 1137YOPC   C3A16137   2.750   6.353   7.485  0.1079  0.0172  0.2108
 1137YOPC   C4A16138   2.956   5.929   7.635  0.0113 -0.1578  0.1217
 1137YOPC   C1B16139   2.912   7.161   7.131  0.0280 -0.1006  0.0715
 1137YOPC   C2B16140   2.954   7.303   7.603 -0.1633  0.0620  0.0814
 1137YOPC   D3B16141   3.220   7.314   7.920 -0.0512  0.2564 -0.0776
 1137YOPC   C4B16142   2.975   7.310   8.265 -0.4192 -0.3358 -0.2587
 1138YOPC   NC316143  12.486  14.063   5.643 -0.0076 -0.0767  0.2133
 1138YOPC   PO416144  12.710  14.334   5.933  0.0597  0.0219  0.0025
 1138YOPC   GL116145  12.637  14.411   6.355 -0.0642 -0.0788 -0.0212
 1138YOPC   GL216146  12.273  14.479   6.389 -0.0518  0.2896  0.0569
 1138YOPC   C1A16147  12.769  14.639   6.743 -0.0659 -0.0620 -0.1096
 1138YOPC   D2A16148  12.929  14.713   7.127 -0.1653 -0.0051 -0.0035
 1138YOPC   C3A16149  12.691  15.142   7.422  0.0565  0.0384 -0.0360
 1138YOPC   C4A16150  12.481  15.393   7.548 -0.0613 -0.1798  0.3021
 1138YOPC   C1B16151  12.211  14.562   6.796  0.0607 -0.1759  0.0254
 1138YOPC   C2B16152  12.392  14.321   7.139 -0.2062  0.0227 -0.2797
 1138YOPC   D3B16153  12.701  14.344   7.438  0.0789  0.0793  0.0046
 1138YOPC   C4B16154  13.110  14.489   7.719 -0.1900  0.0830  0.1484
 1139YOPC   NC316155  15.373   0.533   6.005  0.2540  0.1312 -0.3476
 1139YOPC   PO416156  15.772   0.356   6.121 -0.1510 -0.1976 -0.3321
 1139YOPC   GL116157  15.752   0.338   6.500  0.1998  0.3473 -0.0739
 1139YOPC   GL216158  16.061   0.272   6.613  0.0400  0.0735 -0.4143
 1139YOPC   C1A16159  15.430   0.519   6.788  0.2633  0.1361  0.0214
 1139YOPC   D2A16160  15.351   0.397   7.215 -0.2752 -0.1635  0.0949
 1139YOPC   C3A16161  15.629   0.382   7.559 -0.1105  0.0231 -0.1253
 1139YOPC   C4A16162  15.861   0.570   7.961 -0.1813  0.1217  0.0742
 1139YOPC   C1B16163  15.901   0.403   7.040 -0.2370 -0.1295  0.1638
 1139YOPC   C2B16164  15.718   0.820   7.202  0.1932  0.2700 -0.2299
 1139YOPC   D3B16165  15.704   0.905   7.604 -0.1279  0.1651 -0.1442
 1139YOPC   C4B16166  15.499   1.144   7.930 -0.2179 -0.4517 -0.0858
 1140YOPC   NC316167   4.947  16.420   5.657  0.0137  0.1822 -0.1563
 1140YOPC   PO416168   5.229  16.233   5.873  0.0166  0.2906 -0.0259
 1140YOPC   GL116169   4.988  16.191   6.115 -0.1305 -0.2353 -0.2291
 1140YOPC   GL216170   5.015  15.810   6.259 -0.0259  0.3134  0.0907
 1140YOPC   C1A16171   4.893  16.458   6.428  0.0910  0.2433  0.3233
 1140YOPC   D2A16172   4.387  16.531   6.483 -0.0141  0.0387  0.2185
 1140YOPC   C3A16173   4.320  16.646   6.871  0.2216  0.0325 -0.2083
 1140YOPC   C4A16174   4.190  16.732   7.243  0.0478 -0.1627  0.2056
 1140YOPC   C1B16175   5.065  15.600   6.610 -0.1016 -0.1078 -0.0706
 1140YOPC   C2B16176   5.195  15.374   7.029  0.0789 -0.1743 -0.0289
 1140YOPC   D3B16177   5.236  15.637   7.367  0.2194 -0.1656 -0.1011
 1140YOPC   C4B16178   5.294  15.600   7.809 -0.0546  0.2409 -0.2206
 1141YOPC   NC316179  12.553   9.210   6.259 -0.1811  0.0556  0.2220
 1141YOPC   PO416180  13.045   9.216   6.107  0.2696  0.1828  0.4177
 1141YOPC   GL116181  13.072   9.021   6.453  0.1618  0.0238 -0.0439
 1141YOPC   GL216182  12.792   8.928   6.634 -0.2239  0.3332  0.0046
 1141YOPC   C1A16183  13.279   9.129   6.828  0.0764 -0.2820 -0.1209
 1141YOPC   D2A16184  13.565   9.102   7.164 -0.0658  0.0539 -0.0131
 1141YOPC   C3A16185  13.543   9.189   7.524 -0.2436 -0.1719  0.0086
 1141YOPC   C4A16186  13.473   9.069   7.957 -0.2104  0.2949 -0.1291
 1141YOPC   C1B16187  12.841   8.870   7.093  0.0429 -0.4409 -0.0792
 1141YOPC   C2B16188  12.701   8.680   7.391 -0.0359  0.1604  0.0045
 1141YOPC   D3B16189  12.881   8.798   7.799 -0.2920  0.1046  0.1639
 1141YOPC   C4B16190  12.997   9.227   7.930 -0.0292 -0.0970  0.2007
 1142YOPC   NC316191   2.716  11.203   5.497 -0.0426  0.1763  0.1194
 1142YOPC   PO416192   2.898  10.804   5.546  0.2776 -0.0598  0.0335
 1142YOPC   GL116193   2.882  10.816   5.925  0.1874  0.1082  0.0240
 1142YOPC   GL216194   2.680  10.514   6.067  0.2613 -0.0988 -0.4784
 1142YOPC   C1A16195   2.928  10.929   6.294  0.2311  0.1762 -0.3361
 1142YOPC   D2A16196   2.728  11.005   6.723 -0.2201 -0.1791 -0.0746
 1142YOPC   C3A16197   2.409  10.891   6.879  0.1348 -0.1467 -0.1304
 1142YOPC   C4A16198   1.985  10.956   7.029  0.1674  0.4347  0.2482
 1142YOPC   C1B16199   2.284  10.607   6.201  0.1363 -0.2346  0.1968
 1142YOPC   C2B16200   1.985  10.985   6.038 -0.2332 -0.0723  0.0284
 1142YOPC   D3B16201   1.717  11.270   6.312 -0.1643  0.0835 -0.0916
 1142YOPC   C4B16202   1.528  11.509   6.556 -0.1526  0.1131 -0.4303
 1143ERGO   ROH16203   4.350  14.981   6.148  0.0414 -0.1142 -0.1167
 1143ERGO    R116204   4.286  14.954   6.422  0.0751 -0.0634 -0.1040
 1143ERGO    R216205   4.161  14.729   6.525 -0.0317  0.0131 -0.0705
 1143ERGO    R316206   4.375  14.727   6.693 -0.0037 -0.0982 -0.1063
 1143ERGO    R416207   4.180  14.547   6.817 -0.1298  0.0926 -0.0135
 1143ERGO    R516208   4.278  14.717   6.912  0.0212  0.0504 -0.0855
 1143ERGO    C116209   4.392  14.438   7.145 -0.1606  0.0343 -0.0138
 1143ERGO    C216210   4.614  14.131   7.309 -0.0095 -0.2243 -0.1165
 1144ERGO   ROH16211   2.271   3.800   6.205  0.0168 -0.1502  0.0546
 1144ERGO    R116212   2.045   3.715   6.351  0.0401 -0.2394  0.0390
 1144ERGO    R216213   2.014   3.455   6.439  0.2510 -0.1978  0.2448
 1144ERGO    R316214   1.980   3.575   6.681  0.0476 -0.0236  0.1337
 1144ERGO    R416215   1.852   3.312   6.710  0.3675 -0.1636  0.3335
 1144ERGO    R516216   1.762   3.506   6.751  0.1144 -0.2352  0.1420
 1144ERGO    C116217   1.726   3.342   7.094  0.2443  0.0198  0.2809
 1144ERGO    C216218   1.614   3.074   7.249 -0.3019 -0.1202 -0.0420
 1145ERGO   ROH16219  12.143   4.256   9.768  0.0429  0.0234 -0.0179
 1145ERGO    R116220  12.234   4.387   9.534  0.1248 -0.0206 -0.0131
 1145ERGO    R216221  12.327   4.250   9.313 -0.0127 -0.0740 -0.0487
 1145ERGO    R316222  12.138   4.397   9.183  0.0864  0.0985  0.0028
 1145ERGO    R416223  12.264   4.236   8.974 -0.3259 -0.2286  0.0125
 1145ERGO    R516224  12.240   4.453   8.974 -0.0160 -0.1974 -0.1232
 1145ERGO    C116225  12.051   4.366   8.654 -0.4152 -0.1566  0.0964
 1145ERGO    C216226  11.975   4.284   8.289 -0.3316 -0.2942 -0.1180
 1146ERGO   ROH16227   3.446  11.122   9.925  0.1270 -0.0844 -0.0299
 1146ERGO    R116228   3.420  11.027   9.660 -0.0210 -0.0594 -0.0250
 1146ERGO    R216229   3.179  11.028   9.524 -0.0760  0.0496  0.0726
 1146ERGO    R316230   3.322  11.164   9.337 -0.0938 -0.0008  0.0217
 1146ERGO    R416231   3.151  10.983   9.183  0.0409 -0.1936  0.0929
 1146ERGO    R516232   3.368  11.002   9.167  0.0368 -0.0928  0.1418
 1146ERGO    C116233   3.269  11.085   8.808  0.0923 -0.3826  0.0568
 1146ERGO    C216234   3.177  11.030   8.382 -0.2439 -0.1041  0.1895
 1147ERGO   ROH16235  13.452   2.127   6.590  0.1988  0.0912  0.0640
 1147ERGO    R116236  13.407   2.093   6.867  0.3361  0.0107  0.0766
 1147ERGO    R216237  13.547   2.234   7.059  0.1736  0.2277  0.0366
 1147ERGO    R316238  13.298   2.300   7.145  0.0889 -0.1671  0.1159
 1147ERGO    R416239  13.469   2.333   7.381  0.1928  0.4502 -0.0253
 1147ERGO    R516240  13.287   2.214   7.368  0.4117  0.0644  0.2300
 1147ERGO    C116241  13.190   2.453   7.649  0.1244  0.2091  0.0131
 1147ERGO    C216242  13.246   2.742   7.848  0.0119 -0.0350 -0.1245
 1148ERGO   ROH16243  14.605   1.521   6.418 -0.0153  0.0356  0.0064
 1148ERGO    R116244  14.511   1.315   6.588  0.2038 -0.1392 -0.0789
 1148ERGO    R216245  14.682   1.142   6.720  0.4070  0.1365  0.0381
 1148ERGO    R316246  14.545   1.226   6.940  0.0933 -0.1003 -0.0592
 1148ERGO    R416247  14.734   1.026   7.042  0.1199 -0.0195  0.0308
 1148ERGO    R516248  14.518   1.028   7.072  0.0838 -0.1986 -0.2118
 1148ERGO    C116249  14.636   1.037   7.435 -0.3417 -0.3326 -0.0648
 1148ERGO    C216250  14.461   1.004   7.704  0.0680  0.4927  0.0950
 1149ERGO   ROH16251  16.175   0.698   6.371 -0.0834  0.1033  0.1250
 1149ERGO    R116252  16.281   0.774   6.622 -0.0997 -0.1908  0.2240
 1149ERGO    R216253  16.282   1.036   6.711  0.3661 -0.2133  0.3058
 1149ERGO    R316254  16.155   0.930   6.926 -0.0009 -0.0342  0.1864
 1149ERGO    R416255  16.218   1.205   7.005  0.2291 -0.0884  0.2061
 1149ERGO    R516256  16.269   1.023   7.115 -0.1002 -0.1332  0.2990
 1149ERGO    C116257  16.062   1.204   7.379 -0.1952  0.1525  0.0360
 1149ERGO    C216258  15.963   1.379   7.644  0.1304  0.1859  0.0920
 1150ERGO   ROH16259   5.164  11.220  10.088 -0.1201 -0.0212  0.2194
 1150ERGO    R116260   5.267  11.282   9.831 -0.0420 -0.0691  0.2394
 1150ERGO    R216261   5.298  11.091   9.634 -0.1005 -0.0816  0.2458
 1150ERGO    R316262   5.147  11.264   9.488  0.0132 -0.0052  0.2158
 1150ERGO    R416263   5.300  11.112   9.289 -0.1597 -0.2169  0.2364
 1150ERGO    R516264   5.290  11.329   9.307  0.0316 -0.1971  0.1569
 1150ERGO    C116265   5.159  11.286   8.951 -0.0875 -0.2237  0.2028
 1150ERGO    C216266   5.082  11.183   8.648  0.1967 -0.0152  0.1100
 1151ERGO   ROH16267   9.816  11.156  10.093  0.0780  0.3324 -0.1059
 1151ERGO    R116268   9.663  11.150   9.855 -0.0135  0.2563 -0.0466
 1151ERGO    R216269   9.692  11.338   9.654 -0.0130  0.1320 -0.1666
 1151ERGO    R316270   9.730  11.119   9.498 -0.1572  0.0264 -0.0554
 1151ERGO    R416271   9.745  11.346   9.313  0.0732 -0.0696 -0.1587
 1151ERGO    R516272   9.616  11.171   9.294 -0.0674  0.0268 -0.1056
 1151ERGO    C116273   9.811  11.144   8.967 -0.0120 -0.2861 -0.0497
 1151ERGO    C216274   9.718  11.247   8.643  0.3293  0.1554  0.1299
 1152ERGO   ROH16275   3.432  13.541   9.954 -0.0740 -0.1850 -0.0554
 1152ERGO    R116276   3.488  13.598   9.682 -0.0996 -0.1643 -0.0565
 1152ERGO    R216277   3.672  13.453   9.535 -0.0312 -0.0826 -0.0534
 1152ERGO    R316278   3.462  13.423   9.364 -0.0175 -0.1834 -0.0525
 1152ERGO    R416279   3.694  13.462   9.190 -0.0527  0.0291 -0.0522
 1152ERGO    R516280   3.508  13.575   9.185 -0.1330 -0.1009 -0.0123
 1152ERGO    C116281   3.510  13.438   8.829 -0.0523 -0.0005 -0.0508
 1152ERGO    C216282   3.468  13.560   8.570  0.1568 -0.0100 -0.0316
 1153ERGO   ROH16283  12.940   7.457   6.553  0.2095 -0.0408 -0.1410
 1153ERGO    R116284  12.902   7.401   6.828  0.1166  0.0057 -0.1440
 1153ERGO    R216285  12.787   7.165   6.918  0.0173  0.0535 -0.1452
 1153ERGO    R316286  13.015   7.148   7.065 -0.0283 -0.0012 -0.0805
 1153ERGO    R416287  12.801   7.090   7.255 -0.1034  0.1125 -0.1268
 1153ERGO    R516288  12.957   7.240   7.277 -0.0543  0.0611 -0.1137
 1153ERGO    C116289  13.023   7.030   7.589 -0.2164  0.0955 -0.0553
 1153ERGO    C216290  13.238   6.806   7.789 -0.1178 -0.1099  0.7123
 1154ERGO   ROH16291  17.395   4.451   9.588 -0.0337 -0.1170  0.0638
 1154ERGO    R116292  17.272   4.525   9.344  0.0972  0.1099  0.0620
 1154ERGO    R216293  17.416   4.599   9.120  0.2386 -0.1786  0.0504
 1154ERGO    R316294  17.269   4.403   9.002 -0.1460  0.0890  0.0696
 1154ERGO    R416295  17.352   4.577   8.781  0.3434 -0.1722  0.0312
 1154ERGO    R516296  17.149   4.515   8.828  0.1759  0.2928 -0.0314
 1154ERGO    C116297  17.177   4.380   8.473  0.0432  0.0827  0.0380
 1154ERGO    C216298  17.305   4.316   8.222  0.0253  0.2006  0.0885
 1155ERGO   ROH16299  17.707  17.076   9.786 -0.3398 -0.0894  0.2537
 1155ERGO    R116300  17.546  16.915   9.618 -0.2289 -0.0951  0.1533
 1155ERGO    R216301  17.317  17.010   9.496 -0.1510 -0.1042  0.0087
 1155ERGO    R316302  17.439  16.920   9.271 -0.0107 -0.1055  0.0828
 1155ERGO    R416303  17.187  17.037   9.177  0.0550 -0.0651 -0.0744
 1155ERGO    R516304  17.260  16.836   9.136  0.0607 -0.0765 -0.0390
 1155ERGO    C116305  17.226  16.968   8.780  0.3066 -0.0434 -0.0534
 1155ERGO    C216306  17.209  16.998   8.457  0.1103  0.0302  0.0979
 1156ERGO   ROH16307  11.885   6.306   6.179  0.1397 -0.0216  0.0096
 1156ERGO    R116308  11.805   6.414   6.428  0.0566 -0.0413 -0.0089
 1156ERGO    R216309  11.937   6.624   6.548 -0.0705  0.0391 -0.0173
 1156ERGO    R316310  11.689   6.735   6.553 -0.1314 -0.0921 -0.0477
 1156ERGO    R416311  11.798   6.784   6.821 -0.1203  0.1066 -0.0808
 1156ERGO    R516312  11.608   6.689   6.774 -0.0780 -0.0239 -0.0101
 1156ERGO    C116313  11.484   6.981   6.985 -0.2066  0.0228 -0.1464
 1156ERGO    C216314  11.480   7.275   7.141  0.2410  0.2933  0.1094
 1157ERGO   ROH16315   0.143   9.007   9.995 -0.1273 -0.2399 -0.0828
 1157ERGO    R116316   0.139   8.896   9.734  0.0216 -0.1084 -0.1417
 1157ERGO    R216317  -0.076   8.926   9.563  0.0469 -0.1758 -0.1791
 1157ERGO    R316318   0.114   9.022   9.394  0.0207  0.0482 -0.0856
 1157ERGO    R416319  -0.054   8.850   9.226  0.1822  0.0001 -0.2120
 1157ERGO    R516320   0.162   8.839   9.248  0.1906  0.1490 -0.1639
 1157ERGO    C116321   0.137   8.897   8.872  0.2361  0.3130 -0.1434
 1157ERGO    C216322   0.159   9.024   8.615 -0.0782 -0.5410 -0.0563
 1158ERGO   ROH16323  17.144  11.674   6.622  0.1195 -0.0900  0.1110
 1158ERGO    R116324  17.060  11.490   6.821  0.1253 -0.0066  0.1925
 1158ERGO    R216325  17.178  11.477   7.071  0.0434  0.1920  0.2465
 1158ERGO    R316326  16.922  11.508   7.156 -0.0013  0.1404  0.1324
 1158ERGO    R416327  17.062  11.393   7.386 -0.1345 -0.0272  0.1252
 1158ERGO    R516328  16.880  11.316   7.293 -0.0865  0.0461 -0.0261
 1158ERGO    C116329  16.754  11.373   7.649 -0.2801 -0.2033 -0.0525
 1158ERGO    C216330  16.381  11.529   7.776  0.0415 -0.2695 -0.1911
 1159ERGO   ROH16331  13.319   5.027   6.051 -0.3001 -0.1182 -0.0272
 1159ERGO    R116332  13.217   4.782   6.148 -0.1624 -0.1081  0.1466
 1159ERGO    R216333  13.351   4.541   6.119 -0.2042 -0.1117 -0.0246
 1159ERGO    R316334  13.321   4.529   6.388  0.1846 -0.0850  0.0254
 1159ERGO    R416335  13.357   4.251   6.306 -0.2092 -0.1222 -0.0410
 1159ERGO    R516336  13.194   4.330   6.426  0.0414  0.0370  0.2078
 1159ERGO    C116337  13.333   4.070   6.668  0.1528 -0.1033 -0.0037
 1159ERGO    C216338  13.363   3.934   7.034  0.1380  0.1432 -0.1661
 1160ERGO   ROH16339   8.341   3.082   9.723  0.2340 -0.0567  0.0590
 1160ERGO    R116340   8.409   3.097   9.449  0.0955  0.0302  0.0297
 1160ERGO    R216341   8.392   2.879   9.279  0.2215  0.0296  0.0229
 1160ERGO    R316342   8.238   3.048   9.131 -0.0032 -0.1018  0.1008
 1160ERGO    R416343   8.407   2.910   8.935  0.1389  0.1550  0.0293
 1160ERGO    R516344   8.384   3.126   8.959 -0.1140  0.1277  0.1028
 1160ERGO    C116345   8.271   3.087   8.596 -0.1199  0.1047  0.1061
 1160ERGO    C216346   8.151   3.132   8.222 -0.1304  0.0962  0.1466
 1161ERGO   ROH16347   8.875  18.050   6.082 -0.0275 -0.2419 -0.1450
 1161ERGO    R116348   8.850  18.146   6.347  0.1119 -0.1282 -0.1720
 1161ERGO    R216349   8.614  18.129   6.490  0.1479  0.0581 -0.0889
 1161ERGO    R316350   8.772  18.005   6.673  0.1366  0.0376 -0.0928
 1161ERGO    R416351   8.557  18.126   6.831  0.1243  0.0202 -0.0930
 1161ERGO    R516352   8.771  18.151   6.862  0.1233  0.0175 -0.0762
 1161ERGO    C116353   8.672  18.007   7.201  0.1002 -0.0212 -0.0991
 1161ERGO    C216354   8.504  17.937   7.430 -0.1335  0.1081 -0.0681
 1162ERGO   ROH16355  14.712  11.868   6.066  0.0141 -0.0993  0.0291
 1162ERGO    R116356  14.864  11.884   6.304  0.0105  0.0703  0.0216
 1162ERGO    R216357  14.757  11.972   6.543 -0.1053 -0.1361  0.0481
 1162ERGO    R316358  14.851  11.735   6.636  0.2498 -0.0247 -0.0094
 1162ERGO    R416359  14.856  11.913   6.869 -0.1554 -0.1034  0.0694
 1162ERGO    R516360  15.023  11.795   6.792  0.0820  0.2017  0.0946
 1162ERGO    C116361  15.002  11.655   7.146  0.1488  0.0202  0.0279
 1162ERGO    C216362  14.927  11.575   7.442  0.2031 -0.0554 -0.0207
 1163ERGO   ROH16363  13.270   0.760   6.837  0.0428 -0.0773 -0.1876
 1163ERGO    R116364  13.423   0.608   7.020 -0.0756 -0.0999 -0.1048
 1163ERGO    R216365  13.590   0.724   7.207  0.1675 -0.1241 -0.2950
 1163ERGO    R316366  13.446   0.575   7.382  0.0348  0.2387 -0.0771
 1163ERGO    R416367  13.725   0.514   7.446 -0.0165 -0.1641 -0.2247
 1163ERGO    R516368  13.568   0.370   7.400 -0.2850  0.0482 -0.0061
 1163ERGO    C116369  13.668   0.251   7.749 -0.2481  0.1532  0.0208
 1163ERGO    C216370  13.771   0.230   8.091  0.1078  0.0121  0.3204
 1164ERGO   ROH16371   3.929   5.903   6.620  0.0507  0.1749 -0.0215
 1164ERGO    R116372   3.905   6.032   6.871  0.0108 -0.0246  0.0780
 1164ERGO    R216373   3.920   5.896   7.110  0.3637 -0.1639 -0.0235
 1164ERGO    R316374   4.113   6.079   7.165  0.1274  0.0953 -0.0205
 1164ERGO    R416375   3.998   6.013   7.426  0.1750 -0.0277 -0.0237
 1164ERGO    R516376   4.021   6.212   7.341 -0.0704  0.0002 -0.0446
 1164ERGO    C116377   4.225   6.252   7.661 -0.1567  0.2949 -0.0211
 1164ERGO    C216378   4.502   6.333   8.014  0.3853 -0.2249  0.1598
 1165ERGO   ROH16379  18.051   8.518   7.604 -0.1841  0.0817 -0.1052
 1165ERGO    R116380  18.265   8.683   7.688 -0.1113  0.0344 -0.1946
 1165ERGO    R216381  18.438   8.804   7.510 -0.2141  0.0718 -0.2729
 1165ERGO    R316382  18.365   9.030   7.643 -0.1071  0.0380 -0.1553
 1165ERGO    R416383  18.638   9.083   7.552 -0.0710 -0.0549 -0.0957
 1165ERGO    R516384  18.564   9.100   7.756 -0.0821 -0.1291 -0.0949
 1165ERGO    C116385  18.686   9.457   7.700  0.1127 -0.1604  0.1179
 1165ERGO    C216386  18.808   9.832   7.497 -0.1038  0.1078  0.1887
 1166ERGO   ROH16387   5.465  12.084  10.068 -0.3188 -0.2055 -0.0120
 1166ERGO    R116388   5.533  12.188   9.814 -0.4366  0.1474  0.0959
 1166ERGO    R216389   5.650  12.034   9.616  0.0997  0.5768  0.0567
 1166ERGO    R316390   5.439  12.123   9.468 -0.0606  0.1198 -0.0055
 1166ERGO    R416391   5.647  12.065   9.272  0.1195  0.5311  0.0519
 1166ERGO    R516392   5.538  12.252   9.293 -0.2844  0.3135  0.0043
 1166ERGO    C116393   5.448  12.166   8.933 -0.0194  0.0754 -0.0092
 1166ERGO    C216394   5.475  12.044   8.635  0.2752  0.3130  0.2229
 1167ERGO   ROH16395  13.222   8.613   6.835 -0.2004 -0.4613  0.0287
 1167ERGO    R116396  13.314   8.711   7.084  0.0905 -0.2408 -0.1591
 1167ERGO    R216397  13.209   8.626   7.325  0.1057  0.2487  0.0280
 1167ERGO    R316398  13.469   8.570   7.382  0.0626 -0.0502 -0.0520
 1167ERGO    R416399  13.348   8.630   7.641  0.2386  0.2382 -0.0291
 1167ERGO    R516400  13.526   8.722   7.557  0.3257 -0.0270 -0.1516
 1167ERGO    C116401  13.673   8.579   7.879  0.2755 -0.0484 -0.1375
 1167ERGO    C216402  13.793   8.729   8.211 -0.3376 -0.2641  0.1066
 1168ERGO   ROH16403   7.530   1.075   9.551  0.1908 -0.2050 -0.2014
 1168ERGO    R116404   7.510   1.225   9.312 -0.0391 -0.0731 -0.1009
 1168ERGO    R216405   7.648   1.158   9.081 -0.0231  0.2307 -0.1721
 1168ERGO    R316406   7.401   1.164   8.970 -0.0574  0.0274 -0.1164
 1168ERGO    R416407   7.582   1.121   8.745 -0.0483  0.2196 -0.1678
 1168ERGO    R516408   7.431   1.277   8.762 -0.1916  0.0926 -0.1108
 1168ERGO    C116409   7.310   1.105   8.444 -0.0951  0.0223 -0.1131
 1168ERGO    C216410   7.320   0.942   8.203  0.1959  0.0233  0.3121
 1169ERGO   ROH16411  17.196   0.106  10.062 -0.0571  0.0483 -0.0090
 1169ERGO    R116412  17.120   0.185   9.801 -0.0065  0.0348 -0.0282
 1169ERGO    R216413  17.293   0.315   9.630  0.0832 -0.1315 -0.0658
 1169ERGO    R316414  17.227   0.112   9.461 -0.0647 -0.1297 -0.0120
 1169ERGO    R416415  17.278   0.341   9.285  0.1993 -0.2330 -0.0793
 1169ERGO    R516416  17.098   0.218   9.289  0.0786 -0.0642 -0.0820
 1169ERGO    C116417  17.207   0.166   8.927  0.1282 -0.2902 -0.0365
 1169ERGO    C216418  17.073   0.177   8.498 -0.2609  0.0256  0.0854
 1170ERGO   ROH16419   6.791   3.794   6.323 -0.1813 -0.0531 -0.1757
 1170ERGO    R116420   6.767   3.893   6.587  0.0237 -0.0021 -0.1764
 1170ERGO    R216421   6.522   3.941   6.707  0.1216  0.3608 -0.1252
 1170ERGO    R316422   6.622   3.777   6.900 -0.0728  0.2272 -0.1325
 1170ERGO    R416423   6.433   3.950   7.041 -0.1633  0.1889 -0.1908
 1170ERGO    R516424   6.642   3.917   7.093 -0.2072  0.1176 -0.0323
 1170ERGO    C116425   6.475   3.802   7.416 -0.5116 -0.0366 -0.2359
 1170ERGO    C216426   6.453   3.671   7.723 -0.3930 -0.0459  0.0181
 1171ERGO   ROH16427  13.212  11.572  10.075  0.0351  0.1796 -0.0577
 1171ERGO    R116428  13.074  11.676   9.852  0.0794  0.4332  0.0283
 1171ERGO    R216429  13.184  11.866   9.683  0.4153  0.0859 -0.1662
 1171ERGO    R316430  13.122  11.684   9.491 -0.2363  0.1353 -0.0243
 1171ERGO    R416431  13.150  11.938   9.347  0.2954 -0.0009 -0.1723
 1171ERGO    R516432  12.978  11.803   9.341 -0.0711  0.4330  0.0501
 1171ERGO    C116433  13.071  11.809   8.971 -0.3861 -0.0050 -0.0427
 1171ERGO    C216434  13.256  11.741   8.649 -0.1370  0.0398  0.1111
 1172ERGO   ROH16435   8.166   4.812   6.505  0.0847  0.0326 -0.0648
 1172ERGO    R116436   8.319   4.647   6.677 -0.0233 -0.1349 -0.1265
 1172ERGO    R216437   8.467   4.748   6.887  0.2589 -0.2816 -0.2501
 1172ERGO    R316438   8.324   4.569   7.032  0.1068 -0.0506 -0.1090
 1172ERGO    R416439   8.545   4.648   7.208  0.2594 -0.2043 -0.2259
 1172ERGO    R516440   8.490   4.444   7.152  0.0127 -0.1746 -0.1044
 1172ERGO    C116441   8.457   4.421   7.532  0.1168  0.0576 -0.0795
 1172ERGO    C216442   8.259   4.262   7.698 -0.0674 -0.4423 -0.3559
 1173ERGO   ROH16443   5.333   6.271   6.523  0.0399  0.3712 -0.0698
 1173ERGO    R116444   5.274   6.197   6.789 -0.0713  0.1864 -0.1448
 1173ERGO    R216445   5.343   6.352   7.006 -0.0360 -0.0310  0.0007
 1173ERGO    R316446   5.078   6.333   7.065 -0.0632  0.0737 -0.0821
 1173ERGO    R416447   5.194   6.473   7.294 -0.0635 -0.0307 -0.0132
 1173ERGO    R516448   5.072   6.293   7.301 -0.1479  0.0203 -0.0913
 1173ERGO    C116449   4.859   6.525   7.516 -0.1050  0.0677 -0.0991
 1173ERGO    C216450   4.768   6.693   7.769 -0.1355 -0.2727 -0.0843
 1174ERGO   ROH16451  15.442  10.195   6.212  0.1663 -0.0110  0.0138
 1174ERGO    R116452  15.465  10.329   6.460  0.2092 -0.1347  0.0763
 1174ERGO    R216453  15.246  10.402   6.611  0.2299 -0.0177  0.0420
 1174ERGO    R316454  15.374  10.262   6.806  0.0596 -0.2036  0.0258
 1174ERGO    R416455  15.144  10.385   6.941  0.0818 -0.1065 -0.0063
 1174ERGO    R516456  15.353  10.400   7.001  0.0754 -0.2786  0.0854
 1174ERGO    C116457  15.206  10.243   7.316 -0.1643 -0.3328 -0.0496
 1174ERGO    C216458  15.176  10.288   7.631  0.0419 -0.4643  0.2212
 1175ERGO   ROH16459  14.137  11.326  10.185 -0.0819  0.0963 -0.0626
 1175ERGO    R116460  13.975  11.341   9.954  0.0607  0.0941 -0.1631
 1175ERGO    R216461  14.063  11.453   9.717  0.2625 -0.0570 -0.1567
 1175ERGO    R316462  13.988  11.214   9.613  0.1821 -0.0553 -0.1051
 1175ERGO    R416463  13.984  11.398   9.385 -0.0494 -0.0259 -0.0906
 1175ERGO    R516464  13.821  11.269   9.451  0.0184 -0.0480  0.0570
 1175ERGO    C116465  13.867  11.140   9.095 -0.3064 -0.0061 -0.0037
 1175ERGO    C216466  13.928  11.086   8.821  0.2659  0.0197 -0.1898
 1176ERGO   ROH16467  15.880   4.787   6.064 -0.1418 -0.1935  0.0825
 1176ERGO    R116468  15.842   4.902   6.320 -0.2898 -0.1088  0.0239
 1176ERGO    R216469  15.635   4.827   6.488 -0.1715 -0.3254  0.0799
 1176ERGO    R316470  15.836   4.784   6.665 -0.0878  0.0652  0.0882
 1176ERGO    R416471  15.592   4.732   6.817  0.0007 -0.4861  0.0575
 1176ERGO    R516472  15.753   4.868   6.872 -0.2873 -0.1513  0.0984
 1176ERGO    C116473  15.757   4.636   7.175  0.1794 -0.2130  0.0521
 1176ERGO    C216474  15.587   4.385   7.344 -0.4604  0.0077  0.3915
 1177ERGO   ROH16475  13.543   2.633  10.049  0.2425 -0.0427 -0.0428
 1177ERGO    R116476  13.429   2.601   9.791  0.1589  0.0302 -0.0157
 1177ERGO    R216477  13.418   2.806   9.606  0.3103  0.0193 -0.0374
 1177ERGO    R316478  13.544   2.626   9.447  0.1121 -0.1173 -0.0426
 1177ERGO    R416479  13.437   2.826   9.262  0.2840 -0.0216 -0.0412
 1177ERGO    R516480  13.405   2.611   9.252  0.0699  0.0068 -0.0231
 1177ERGO    C116481  13.566   2.668   8.912  0.0827 -0.1737 -0.0485
 1177ERGO    C216482  13.636   2.675   8.632  0.0783 -0.0576 -0.0005
 1178ERGO   ROH16483  13.421   3.900   9.678 -0.0001 -0.1721 -0.0414
 1178ERGO    R116484  13.388   3.760   9.434 -0.0119 -0.0873 -0.0912
 1178ERGO    R216485  13.181   3.814   9.258  0.0088  0.0187 -0.0997
 1178ERGO    R316486  13.384   3.843   9.080  0.0386  0.0341 -0.0605
 1178ERGO    R416487  13.145   3.814   8.915  0.0824  0.1278 -0.1066
 1178ERGO    R516488  13.327   3.696   8.900  0.0531  0.1067 -0.1124
 1178ERGO    C116489  13.314   3.841   8.547  0.1531  0.2057 -0.0736
 1178ERGO    C216490  13.275   4.025   8.298 -0.0852  0.0275 -0.0488
 1179ERGO   ROH16491  15.586  13.454   6.579  0.0485  0.0366  0.0872
 1179ERGO    R116492  15.575  13.629   6.802 -0.0767  0.0930  0.0399
 1179ERGO    R216493  15.340  13.742   6.891 -0.1875 -0.1494  0.0893
 1179ERGO    R316494  15.413  13.632   7.128  0.0283 -0.0041  0.0911
 1179ERGO    R416495  15.258  13.869   7.202  0.1079  0.0303  0.0960
 1179ERGO    R516496  15.459  13.819   7.270  0.1628  0.0717 -0.0605
 1179ERGO    C116497  15.280  13.839   7.606  0.4826  0.2714  0.1016
 1179ERGO    C216498  14.896  13.789   7.834  0.0595  0.0034  0.2627
 1180ERGO   ROH16499   1.433  18.209   9.670 -0.2105 -0.0505 -0.1771
 1180ERGO    R116500   1.545  18.300   9.427 -0.3072  0.0856 -0.1720
 1180ERGO    R216501   1.630  18.128   9.228 -0.0867  0.1849 -0.1690
 1180ERGO    R316502   1.463  18.276   9.073 -0.2625 -0.0156 -0.1754
 1180ERGO    R416503   1.595  18.094   8.886 -0.0424  0.1378 -0.1687
 1180ERGO    R516504   1.585  18.311   8.870 -0.3006  0.1266 -0.1734
 1180ERGO    C116505   1.419  18.214   8.541 -0.1817 -0.0775 -0.1745
 1180ERGO    C216506   1.437  18.227   8.253  0.1235  0.0358  0.2406
 1181ERGO   ROH16507   6.326   6.054   6.737 -0.1468  0.1764 -0.1572
 1181ERGO    R116508   6.303   5.989   7.012 -0.2470 -0.1764 -0.2429
 1181ERGO    R216509   6.319   6.180   7.211  0.1832 -0.4862  0.0370
 1181ERGO    R316510   6.079   6.076   7.285 -0.0384 -0.0933 -0.0956
 1181ERGO    R416511   6.190   6.187   7.532  0.0667 -0.3740 -0.0111
 1181ERGO    R516512   6.118   5.984   7.503 -0.2835 -0.2440 -0.1109
 1181ERGO    C116513   5.890   6.092   7.788 -0.2093  0.0602 -0.1636
 1181ERGO    C216514   5.725   6.346   8.057  0.0560 -0.0145  0.0362
 1182ERGO   ROH16515  14.507   3.223   6.122 -0.2136  0.0226 -0.0695
 1182ERGO    R116516  14.478   3.036   6.332 -0.3577 -0.0321 -0.1360
 1182ERGO    R216517  14.566   3.086   6.590 -0.0614 -0.2965 -0.1760
 1182ERGO    R316518  14.309   3.024   6.655 -0.1224  0.1048 -0.0063
 1182ERGO    R416519  14.464   2.967   6.898 -0.0321 -0.2572 -0.1513
 1182ERGO    R516520  14.329   2.830   6.795 -0.3428  0.0108 -0.1063
 1182ERGO    C116521  14.165   2.840   7.139 -0.0724  0.1425  0.0224
 1182ERGO    C216522  14.080   2.824   7.581 -0.0660 -0.1849 -0.3036
 1183ERGO   ROH16523   1.395   8.496   6.331  0.2788 -0.0645  0.0055
 1183ERGO    R116524   1.358   8.494   6.612  0.1161 -0.0030 -0.0148
 1183ERGO    R216525   1.548   8.393   6.786 -0.0393 -0.0779  0.1077
 1183ERGO    R316526   1.526   8.638   6.901  0.0261 -0.0496  0.0624
 1183ERGO    R416527   1.648   8.469   7.107 -0.0770 -0.0673  0.1175
 1183ERGO    R516528   1.469   8.592   7.129 -0.0402  0.0043  0.0600
 1183ERGO    C116529   1.686   8.744   7.403 -0.0376 -0.0347  0.0808
 1183ERGO    C216530   1.602   8.887   7.684 -0.0426  0.2715 -0.0410
 1184ERGO   ROH16531   3.343   0.546   6.221  0.0980 -0.1998 -0.1791
 1184ERGO    R116532   3.116   0.432   6.346  0.1304 -0.1641 -0.0877
 1184ERGO    R216533   3.134   0.284   6.579  0.1675  0.0597  0.0526
 1184ERGO    R316534   2.948   0.463   6.668  0.0968  0.0771 -0.1258
 1184ERGO    R416535   2.932   0.239   6.857  0.0738  0.1865  0.0066
 1184ERGO    R516536   2.767   0.327   6.745  0.0959  0.0850 -0.1105
 1184ERGO    C116537   2.641   0.380   7.101 -0.0472  0.2767 -0.1877
 1184ERGO    C216538   2.369   0.312   7.445 -0.0725 -0.1517 -0.1310
 1185ERGO   ROH16539   4.367  14.247   6.307 -0.0036 -0.1895 -0.0227
 1185ERGO    R116540   4.094  14.216   6.373 -0.0274 -0.1659 -0.1058
 1185ERGO    R216541   4.001  14.008   6.529 -0.0772 -0.0900 -0.0265
 1185ERGO    R316542   3.894  14.209   6.677 -0.1358 -0.0128 -0.1735
 1185ERGO    R416543   3.760  13.967   6.773 -0.0335  0.0171  0.0344
 1185ERGO    R516544   3.664  14.149   6.702 -0.1086 -0.0774 -0.0983
 1185ERGO    C116545   3.519  14.131   7.054 -0.0631  0.1518 -0.0681
 1185ERGO    C216546   3.544  14.101   7.431 -0.1428  0.1207 -0.0001
 1186ERGO   ROH16547  11.854  17.193   6.378  0.0552 -0.0277  0.0519
 1186ERGO    R116548  12.033  17.326   6.553  0.0750 -0.0853  0.0751
 1186ERGO    R216549  11.963  17.554   6.692  0.1496 -0.0293  0.0191
 1186ERGO    R316550  12.044  17.408   6.907  0.0260 -0.0319  0.0650
 1186ERGO    R416551  12.059  17.686   6.997 -0.0105 -0.0277  0.0702
 1186ERGO    R516552  12.219  17.538   7.005 -0.0200 -0.0366  0.1583
 1186ERGO    C116553  12.192  17.626   7.375 -0.2197 -0.0291  0.1430
 1186ERGO    C216554  12.129  17.843   7.704  0.0293  0.0327  0.2569
 1187ERGO   ROH16555  12.648   7.777   6.848 -0.2039  0.0998 -0.1857
 1187ERGO    R116556  12.484   7.952   6.999 -0.1890 -0.0217 -0.0267
 1187ERGO    R216557  12.420   7.904   7.264  0.1899 -0.0160  0.0700
 1187ERGO    R316558  12.519   8.155   7.299 -0.0106  0.0942 -0.1239
 1187ERGO    R416559  12.276   8.147   7.463  0.2230 -0.1271  0.2307
 1187ERGO    R516560  12.324   8.294   7.310 -0.1449 -0.1022  0.1253
 1187ERGO    C116561  12.285   8.523   7.613  0.0539 -0.0882  0.1423
 1187ERGO    C216562  12.361   8.746   7.846 -0.0928  0.1113  0.0737
 1188ERGO   ROH16563  12.801  16.240   6.385 -0.2247  0.3123 -0.0351
 1188ERGO    R116564  12.812  16.167   6.658 -0.3428  0.0792 -0.0899
 1188ERGO    R216565  13.012  16.255   6.828 -0.2272 -0.3305 -0.0018
 1188ERGO    R316566  12.802  16.341   6.978 -0.1232 -0.1550  0.0474
 1188ERGO    R416567  13.016  16.296   7.171 -0.0771 -0.1965 -0.0181
 1188ERGO    R516568  12.816  16.213   7.179 -0.1193 -0.0820  0.0923
 1188ERGO    C116569  12.821  16.400   7.512  0.1078  0.0461  0.0188
 1188ERGO    C216570  12.690  16.473   7.903 -0.4362 -0.1292 -0.0004
 1189ERGO   ROH16571   3.826   9.734  10.210  0.1379 -0.0818 -0.1685
 1189ERGO    R116572   3.860   9.888   9.974 -0.1141  0.0699 -0.1093
 1189ERGO    R216573   4.037   9.817   9.774 -0.0200  0.4218 -0.1520
 1189ERGO    R316574   3.817   9.835   9.617 -0.0634  0.1526 -0.1293
 1189ERGO    R416575   4.038   9.786   9.430 -0.0339  0.2587 -0.1386
 1189ERGO    R516576   3.894   9.949   9.420 -0.1852  0.1328 -0.1947
 1189ERGO    C116577   3.831   9.786   9.081 -0.0827 -0.0889 -0.1093
 1189ERGO    C216578   3.805   9.726   8.759 -0.1975 -0.1219 -0.0451
 1190ERGO   ROH16579  11.884  16.203   6.325 -0.0855  0.2063  0.0470
 1190ERGO    R116580  11.974  16.203   6.593 -0.1310  0.2367  0.0626
 1190ERGO    R216581  11.807  16.258   6.806 -0.2787 -0.1834  0.0643
 1190ERGO    R316582  11.898  16.018   6.897  0.1550 -0.0694 -0.0448
 1190ERGO    R416583  11.821  16.166   7.139 -0.1209 -0.3096  0.0240
 1190ERGO    R516584  12.014  16.072   7.100  0.0575  0.0526 -0.0184
 1190ERGO    C116585  11.913  15.887   7.418  0.3781 -0.2760 -0.1018
 1190ERGO    C216586  11.652  15.769   7.630  0.4245 -0.0061 -0.1880
 1191ERGO   ROH16587  14.372  14.298   6.362 -0.1343 -0.0987  0.0548
 1191ERGO    R116588  14.308  14.306   6.637  0.0185 -0.1029  0.0908
 1191ERGO    R216589  14.430  14.142   6.824  0.2499  0.0215  0.0460
 1191ERGO    R316590  14.483  14.378   6.948  0.1425  0.0815 -0.0195
 1191ERGO    R416591  14.460  14.184   7.166  0.1233  0.1470  0.0433
 1191ERGO    R516592  14.351  14.372   7.148  0.0747  0.1132 -0.0599
 1191ERGO    C116593  14.527  14.430   7.481 -0.0514  0.2764 -0.0196
 1191ERGO    C216594  14.658  14.306   7.820 -0.1902  0.0975  0.1176
 1192ERGO   ROH16595  15.733   5.848   6.105  0.1886  0.2717 -0.0004
 1192ERGO    R116596  15.860   5.741   6.334  0.1142  0.1634 -0.0096
 1192ERGO    R216597  16.115   5.815   6.410  0.0749  0.1512  0.1247
 1192ERGO    R316598  15.994   5.870   6.647 -0.0171  0.0094  0.1128
 1192ERGO    R416599  16.270   5.800   6.719  0.0937  0.4162  0.1303
 1192ERGO    R516600  16.088   5.712   6.801  0.2128  0.1599  0.1368
 1192ERGO    C116601  16.246   5.844   7.121  0.0180  0.4373  0.1224
 1192ERGO    C216602  16.566   5.916   7.307 -0.0514  0.1094  0.0889
 1193ERGO   ROH16603   1.701   5.041   5.978 -0.1790  0.2913 -0.0325
 1193ERGO    R116604   1.592   5.064   6.238 -0.2328  0.1872 -0.0445
 1193ERGO    R216605   1.732   4.993   6.466 -0.2977  0.0430 -0.0428
 1193ERGO    R316606   1.670   5.246   6.543 -0.2581  0.0198  0.0621
 1193ERGO    R416607   1.693   5.095   6.794 -0.2000 -0.0619  0.0012
 1193ERGO    R516608   1.524   5.217   6.730 -0.2061 -0.0299  0.0917
 1193ERGO    C116609   1.612   5.392   7.058 -0.1059 -0.1448  0.1254
 1193ERGO    C216610   1.494   5.480   7.355 -0.1653  0.1439 -0.2194
 1194ERGO   ROH16611   3.974   2.989   9.874 -0.1830  0.0391 -0.0072
 1194ERGO    R116612   4.107   2.977   9.625 -0.1518  0.0225  0.0100
 1194ERGO    R216613   4.006   2.837   9.409 -0.0633 -0.0966  0.0434
 1194ERGO    R316614   4.036   3.076   9.282 -0.1657 -0.1221 -0.0295
 1194ERGO    R416615   4.020   2.878   9.066  0.0310 -0.2079  0.0334
 1194ERGO    R516616   4.177   3.027   9.095 -0.0700 -0.1012  0.0372
 1194ERGO    C116617   4.056   3.126   8.747 -0.0102 -0.2966 -0.0408
 1194ERGO    C216618   4.037   3.092   8.442 -0.1629 -0.1398  0.0202
 1195ERGO   ROH16619  10.802  14.601   6.666  0.1519 -0.0424 -0.2205
 1195ERGO    R116620  10.979  14.598   6.887 -0.0219  0.1290 -0.0747
 1195ERGO    R216621  10.894  14.645   7.146 -0.2973 -0.0404 -0.1242
 1195ERGO    R316622  11.014  14.406   7.194 -0.0340  0.0962 -0.0958
 1195ERGO    R416623  10.844  14.452   7.428 -0.0804 -0.0734 -0.1083
 1195ERGO    R516624  11.057  14.408   7.430 -0.0361  0.1625 -0.1008
 1195ERGO    C116625  10.929  14.115   7.638  0.2927  0.0354 -0.0725
 1195ERGO    C216626  10.646  14.089   7.892  0.1421  0.0624 -0.2319
 1196ERGO   ROH16627   3.060  12.550   6.231 -0.1843 -0.0829  0.1353
 1196ERGO    R116628   2.905  12.441   6.441 -0.1607 -0.1827  0.1033
 1196ERGO    R216629   2.934  12.180   6.528 -0.1424 -0.2270 -0.0126
 1196ERGO    R316630   2.968  12.299   6.770 -0.1190 -0.3262  0.0317
 1196ERGO    R416631   2.945  12.013   6.830  0.0061 -0.3495 -0.0852
 1196ERGO    R516632   2.827  12.174   6.918 -0.0251 -0.4385  0.0186
 1196ERGO    C116633   2.983  12.028   7.233  0.1145 -0.5140 -0.0859
 1196ERGO    C216634   3.100  12.055   7.555 -0.2311 -0.0563 -0.0200
 1197ERGO   ROH16635  15.751   3.883   9.770 -0.2370 -0.2089 -0.0341
 1197ERGO    R116636  15.653   4.073   9.584 -0.3235 -0.2469 -0.0269
 1197ERGO    R216637  15.820   4.244   9.444 -0.4144 -0.0259  0.1344
 1197ERGO    R316638  15.691   4.139   9.229 -0.1765 -0.0849  0.0161
 1197ERGO    R416639  15.799   4.395   9.134 -0.3716  0.0675  0.1762
 1197ERGO    R516640  15.592   4.329   9.121 -0.3035 -0.1418  0.0246
 1197ERGO    C116641  15.666   4.386   8.751 -0.1232  0.0665  0.0896
 1197ERGO    C216642  15.758   4.475   8.488 -0.3730  0.1162  0.3058
 1198ERGO   ROH16643   8.574   6.342   6.238 -0.4137  0.3432  0.0530
 1198ERGO    R116644   8.596   6.377   6.518 -0.1410  0.1134  0.0630
 1198ERGO    R216645   8.375   6.388   6.685  0.0147  0.1849  0.2559
 1198ERGO    R316646   8.504   6.188   6.815 -0.0491 -0.0286  0.0043
 1198ERGO    R416647   8.325   6.303   7.016 -0.0055 -0.2055  0.1594
 1198ERGO    R516648   8.540   6.273   7.036 -0.0090 -0.3076  0.1150
 1198ERGO    C116649   8.418   6.065   7.331 -0.0771 -0.6333 -0.1331
 1198ERGO    C216650   8.434   6.091   7.667  0.0016 -0.1571 -0.0069
 1199ERGO   ROH16651   8.508  10.739   6.914  0.1778  0.2205  0.1890
 1199ERGO    R116652   8.360  10.619   7.123  0.2820  0.1068  0.1987
 1199ERGO    R216653   8.376  10.705   7.385  0.0697  0.2640  0.1627
 1199ERGO    R316654   8.106  10.724   7.362  0.0440 -0.1428  0.0615
 1199ERGO    R416655   8.154  10.694   7.649  0.0093  0.2108  0.1095
 1199ERGO    R516656   8.021  10.572   7.526  0.2138 -0.1039  0.1883
 1199ERGO    C116657   7.770  10.705   7.781 -0.0500 -0.2021 -0.0166
 1199ERGO    C216658   7.749  10.828   8.078  0.0639  0.0227 -0.0324
 1200ERGO   ROH16659   2.764  15.140   6.265  0.1450  0.2242 -0.1035
 1200ERGO    R116660   2.879  15.036   6.502  0.0511  0.0916 -0.1145
 1200ERGO    R216661   3.139  15.090   6.577  0.0618 -0.0495 -0.0417
 1200ERGO    R316662   3.022  15.172   6.808  0.0497 -0.0754 -0.0390
 1200ERGO    R416663   3.308  15.170   6.868  0.0462 -0.0445 -0.0343
 1200ERGO    R516664   3.151  15.070   6.981  0.0577 -0.0679 -0.0424
 1200ERGO    C116665   3.296  15.294   7.254  0.0257 -0.0658 -0.0276
 1200ERGO    C216666   3.128  15.458   7.525 -0.0348 -0.0045 -0.5031
 1201ERGO   ROH16667  16.236  11.784   9.713  0.2290 -0.0801  0.1281
 1201ERGO    R116668  16.331  11.835   9.451  0.1936 -0.0121  0.1296
 1201ERGO    R216669  16.483  11.652   9.309  0.0878 -0.0128  0.0273
 1201ERGO    R316670  16.290  11.686   9.121  0.0664  0.1401  0.0740
 1201ERGO    R416671  16.528  11.614   8.969 -0.0731 -0.3031  0.0339
 1201ERGO    R516672  16.403  11.788   8.937  0.1585 -0.1360 -0.0337
 1201ERGO    C116673  16.374  11.624   8.594 -0.1869 -0.3287  0.0816
 1201ERGO    C216674  16.401  11.557   8.252  0.1902  0.0723 -0.1341
 1202ERGO   ROH16675  12.915   4.016   6.288  0.0836 -0.2144  0.0137
 1202ERGO    R116676  12.774   4.113   6.513  0.0574 -0.3511  0.0574
 1202ERGO    R216677  12.795   3.996   6.763  0.3338 -0.2698  0.0793
 1202ERGO    R316678  12.860   4.248   6.840  0.0336 -0.1599 -0.0150
 1202ERGO    R416679  12.818   4.102   7.091  0.3166 -0.1443  0.0399
 1202ERGO    R516680  12.722   4.289   7.032  0.0507 -0.2845  0.0220
 1202ERGO    C116681  12.892   4.401   7.355  0.0248  0.0320 -0.0716
 1202ERGO    C216682  12.812   4.647   7.676 -0.0006 -0.1785 -0.0567
 1203ERGO   ROH16683   8.278  12.631   9.971  0.1282 -0.3634 -0.0985
 1203ERGO    R116684   8.311  12.535   9.706 -0.1544 -0.4040 -0.1212
 1203ERGO    R216685   8.097  12.492   9.536 -0.3052  0.1692 -0.0988
 1203ERGO    R316686   8.237  12.656   9.371  0.0962 -0.1474 -0.0872
 1203ERGO    R416687   8.118  12.456   9.193 -0.3107  0.0940 -0.0916
 1203ERGO    R516688   8.329  12.509   9.206 -0.1876 -0.3675 -0.0545
 1203ERGO    C116689   8.262  12.588   8.838  0.0631 -0.2471 -0.0765
 1203ERGO    C216690   8.160  12.512   8.475  0.1013  0.0618 -0.1642
 1204ERGO   ROH16691  13.229  11.099   6.463 -0.1443  0.1216  0.0259
 1204ERGO    R116692  13.187  11.174   6.733 -0.1443  0.2614 -0.0127
 1204ERGO    R216693  12.948  11.277   6.824 -0.2864 -0.0870  0.0163
 1204ERGO    R316694  12.966  11.075   7.004  0.1564  0.0796  0.1733
 1204ERGO    R416695  12.793  11.274   7.133 -0.2584 -0.1693  0.0301
 1204ERGO    R516696  12.974  11.185   7.217 -0.0541  0.2689  0.0889
 1204ERGO    C116697  12.720  11.082   7.482  0.1736 -0.0609  0.1854
 1204ERGO    C216698  12.579  11.096   7.766  0.1963  0.0813  0.1074
 1205ERGO   ROH16699   8.503   8.482   6.378 -0.0216  0.2334 -0.0230
 1205ERGO    R116700   8.630   8.557   6.619  0.0653 -0.0375  0.0188
 1205ERGO    R216701   8.504   8.707   6.814  0.3048  0.2003 -0.0041
 1205ERGO    R316702   8.576   8.501   6.975 -0.1453  0.0344 -0.0004
 1205ERGO    R416703   8.477   8.706   7.158  0.0381  0.1461 -0.0229
 1205ERGO    R516704   8.670   8.606   7.168 -0.1231 -0.1660  0.1004
 1205ERGO    C116705   8.529   8.512   7.510 -0.5397 -0.0413 -0.0305
 1205ERGO    C216706   8.234   8.463   7.685 -0.0978 -0.1970  0.0612
 1206ERGO   ROH16707  17.527  11.268   9.742  0.1192  0.1719 -0.0516
 1206ERGO    R116708  17.416  11.134   9.519  0.2144  0.0575 -0.0306
 1206ERGO    R216709  17.211  11.243   9.368  0.0961 -0.1380 -0.0084
 1206ERGO    R316710  17.384  11.197   9.162  0.1113  0.0096 -0.0308
 1206ERGO    R416711  17.128  11.259   9.033  0.0211 -0.2671  0.0023
 1206ERGO    R516712  17.252  11.083   8.998  0.1973 -0.1492  0.0060
 1206ERGO    C116713  17.241  11.226   8.645 -0.0083 -0.2036 -0.0124
 1206ERGO    C216714  17.234  11.393   8.261 -0.0993  0.2032  0.0329
 1207ERGO   ROH16715  13.677   1.741  10.045 -0.1177  0.1789 -0.1527
 1207ERGO    R116716  13.634   1.590   9.809  0.0171  0.0671 -0.1073
 1207ERGO    R216717  13.483   1.684   9.598 -0.0391 -0.1179 -0.1513
 1207ERGO    R316718  13.707   1.627   9.455  0.0176  0.0067 -0.1139
 1207ERGO    R416719  13.494   1.644   9.255  0.0233 -0.1814 -0.1419
 1207ERGO    R516720  13.631   1.478   9.283  0.1367 -0.0823 -0.0918
 1207ERGO    C116721  13.710   1.567   8.921  0.1128 -0.1014 -0.1014
 1207ERGO    C216722  13.695   1.637   8.600 -0.2557 -0.0225  0.1068
 1208ERGO   ROH16723   6.623  14.755   6.661 -0.0733  0.0368  0.2410
 1208ERGO    R116724   6.606  14.640   6.919  0.0172 -0.0237  0.2203
 1208ERGO    R216725   6.658  14.373   6.968  0.0418 -0.0314  0.1401
 1208ERGO    R316726   6.833  14.474   7.150  0.0996 -0.0709  0.1076
 1208ERGO    R416727   6.812  14.189   7.216  0.0600 -0.0750  0.0970
 1208ERGO    R516728   6.782  14.356   7.353  0.1189 -0.0736  0.1133
 1208ERGO    C116729   7.066  14.176   7.532  0.1248 -0.1375  0.0413
 1208ERGO    C216730   7.210  14.002   7.826  0.3101  0.1990 -0.0627
 1209ERGO   ROH16731   2.990  13.954   6.203 -0.2621  0.0259 -0.1179
 1209ERGO    R116732   2.796  13.870   6.391 -0.1866  0.0615 -0.0211
 1209ERGO    R216733   2.709  13.609   6.409 -0.2326  0.0718  0.0207
 1209ERGO    R316734   2.781  13.636   6.669 -0.0904  0.0604 -0.0191
 1209ERGO    R416735   2.643  13.378   6.658 -0.1826  0.1149  0.0719
 1209ERGO    R516736   2.598  13.543   6.792 -0.0540  0.1336  0.0826
 1209ERGO    C116737   2.673  13.269   7.047 -0.0199  0.1292  0.0643
 1209ERGO    C216738   2.897  13.220   7.349  0.0929  0.0300  0.1410
 1210ERGO   ROH16739  15.088   9.708  10.002  0.1418  0.0240  0.0523
 1210ERGO    R116740  15.024   9.516   9.804 -0.1737  0.1204  0.0542
 1210ERGO    R216741  14.859   9.573   9.589  0.0652  0.4519 -0.0550
 1210ERGO    R316742  15.070   9.482   9.444 -0.0394 -0.0457  0.0871
 1210ERGO    R416743  14.866   9.546   9.245  0.2201  0.3770 -0.0465
 1210ERGO    R516744  14.971   9.357   9.266 -0.2103  0.1409  0.0516
 1210ERGO    C116745  15.068   9.445   8.908  0.2121 -0.1339  0.0920
 1210ERGO    C216746  15.049   9.525   8.493  0.0060  0.2108 -0.1414
 1211ERGO   ROH16747  15.651  10.504   9.743  0.1288 -0.2183  0.1278
 1211ERGO    R116748  15.671  10.326   9.524  0.1444 -0.1602  0.0823
 1211ERGO    R216749  15.473  10.304   9.332  0.1272 -0.1610  0.1029
 1211ERGO    R316750  15.678  10.354   9.161  0.0931 -0.0716  0.0870
 1211ERGO    R416751  15.441  10.333   8.989  0.0961 -0.2675  0.0962
 1211ERGO    R516752  15.627  10.222   8.967  0.1704 -0.1553  0.1204
 1211ERGO    C116753  15.614  10.397   8.629  0.0460 -0.2455  0.0775
 1211ERGO    C216754  15.618  10.347   8.349 -0.1590  0.1676 -0.1626
 1212ERGO   ROH16755   1.145   6.474   6.167 -0.0586 -0.0454  0.0115
 1212ERGO    R116756   1.173   6.655   6.383 -0.0112 -0.0250 -0.0123
 1212ERGO    R216757   1.019   6.639   6.612  0.0028  0.0294 -0.0009
 1212ERGO    R316758   1.261   6.634   6.735  0.0103  0.0024 -0.0156
 1212ERGO    R416759   1.077   6.741   6.937 -0.0129 -0.1997  0.0759
 1212ERGO    R516760   1.263   6.832   6.870 -0.0397 -0.0963  0.1351
 1212ERGO    C116761   1.338   6.796   7.242 -0.0151 -0.3585  0.1070
 1212ERGO    C216762   1.434   6.746   7.546 -0.1925 -0.1787 -0.1950
 1213ERGO   ROH16763   0.796   4.582   6.262  0.1041  0.2029 -0.0547
 1213ERGO    R116764   0.695   4.536   6.522 -0.1160  0.1581 -0.1461
 1213ERGO    R216765   0.858   4.521   6.746 -0.2678 -0.1993 -0.0516
 1213ERGO    R316766   0.691   4.714   6.840 -0.0807 -0.0449 -0.0299
 1213ERGO    R416767   0.911   4.706   7.032 -0.0808 -0.2757 -0.0355
 1213ERGO    R516768   0.699   4.689   7.077 -0.0986 -0.0750 -0.0324
 1213ERGO    C116769   0.785   4.995   7.288  0.2038 -0.1752 -0.0057
 1213ERGO    C216770   0.823   5.395   7.286  0.1870 -0.0925  0.0845
 1214ERGO   ROH16771  15.608  17.060   6.039  0.0577  0.0342 -0.0552
 1214ERGO    R116772  15.579  17.033   6.319  0.1826  0.0453 -0.0404
 1214ERGO    R216773  15.523  16.791   6.441  0.0526  0.0822 -0.0230
 1214ERGO    R316774  15.745  16.851   6.586  0.1778 -0.1004 -0.1364
 1214ERGO    R416775  15.602  16.654   6.748  0.0121  0.1396  0.0132
 1214ERGO    R516776  15.670  16.850   6.813  0.2616  0.0952 -0.1065
 1214ERGO    C116777  15.856  16.629   7.063  0.1060  0.0019 -0.0722
 1214ERGO    C216778  15.900  16.570   7.489  0.1217 -0.2042  0.0761
 1215ERGO   ROH16779   3.504  10.762  10.158  0.1204 -0.3224  0.1345
 1215ERGO    R116780   3.438  10.590   9.944  0.0293 -0.1722  0.0401
 1215ERGO    R216781   3.244  10.652   9.757  0.0979  0.0556  0.0410
 1215ERGO    R316782   3.445  10.605   9.580  0.0914  0.0014  0.0478
 1215ERGO    R416783   3.202  10.608   9.417  0.0993  0.0751  0.0384
 1215ERGO    R516784   3.352  10.450   9.423  0.0533  0.0319  0.0407
 1215ERGO    C116785   3.366  10.539   9.053  0.0941  0.0356  0.0432
 1215ERGO    C216786   3.332  10.590   8.701 -0.1569 -0.2412 -0.4059
 1216ERGO   ROH16787   6.398  16.859   5.838  0.0702  0.2646 -0.1960
 1216ERGO    R116788   6.417  16.803   6.115  0.2393  0.2929 -0.2002
 1216ERGO    R216789   6.528  16.981   6.295 -0.0305  0.4979 -0.2228
 1216ERGO    R316790   6.291  16.950   6.423  0.0483  0.0675 -0.1701
 1216ERGO    R416791   6.470  17.058   6.627 -0.0550  0.1904 -0.1535
 1216ERGO    R516792   6.350  16.877   6.643  0.2121  0.0054 -0.2372
 1216ERGO    C116793   6.213  17.073   6.940  0.0048 -0.3930 -0.0637
 1216ERGO    C216794   6.129  17.077   7.263 -0.2705 -0.0162 -0.0273
 1217ERGO   ROH16795  13.866   7.120   6.538 -0.0129 -0.0892 -0.0080
 1217ERGO    R116796  13.841   7.076   6.817 -0.0041 -0.0503 -0.0007
 1217ERGO    R216797  13.823   6.822   6.926 -0.2184 -0.0313  0.0170
 1217ERGO    R316798  14.033   6.908   7.076 -0.1102 -0.2148 -0.0268
 1217ERGO    R416799  13.925   6.680   7.224 -0.4208  0.0143  0.1094
 1217ERGO    R516800  13.960   6.880   7.302 -0.1607  0.0191 -0.0118
 1217ERGO    C116801  14.181   6.677   7.538 -0.4369 -0.1315  0.1221
 1217ERGO    C216802  14.317   6.482   7.745 -0.0054  0.1607 -0.1041
 1218ERGO   ROH16803   0.750  10.639   6.129  0.0491 -0.5031  0.0429
 1218ERGO    R116804   0.761  10.791   6.368  0.0079 -0.3027 -0.0814
 1218ERGO    R216805   0.707  10.683   6.617  0.0486 -0.1156  0.0108
 1218ERGO    R316806   0.952  10.785   6.677  0.0187  0.0119 -0.0787
 1218ERGO    R416807   0.808  10.782   6.932  0.1415 -0.1402 -0.0109
 1218ERGO    R516808   0.907  10.953   6.842 -0.0016 -0.0576 -0.0134
 1218ERGO    C116809   1.096  10.935   7.173  0.1675 -0.0351 -0.1075
 1218ERGO    C216810   1.377  10.993   7.297  0.2622 -0.1929 -0.1877
 1219ERGO   ROH16811  16.666  14.546   9.817  0.2115  0.3148 -0.0650
 1219ERGO    R116812  16.629  14.703   9.584  0.4591  0.1451 -0.2244
 1219ERGO    R216813  16.759  14.650   9.347  0.1111 -0.5295 -0.2915
 1219ERGO    R316814  16.507  14.650   9.246 -0.0002  0.0652 -0.0522
 1219ERGO    R416815  16.682  14.664   9.010 -0.1710 -0.6122 -0.2323
 1219ERGO    R516816  16.518  14.800   9.059  0.2331 -0.1190 -0.1872
 1219ERGO    C116817  16.400  14.672   8.719 -0.4397 -0.1018  0.0270
 1219ERGO    C216818  16.402  14.791   8.398  0.2338 -0.0976 -0.0417
 1220ERGO   ROH16819  16.966  13.119   9.766 -0.0432 -0.1180 -0.0316
 1220ERGO    R116820  16.791  13.096   9.544 -0.0142 -0.1566 -0.0502
 1220ERGO    R216821  16.776  13.289   9.346 -0.0209 -0.1695 -0.0621
 1220ERGO    R316822  16.824  13.077   9.182  0.0301 -0.1712 -0.0451
 1220ERGO    R416823  16.771  13.301   9.001  0.0882 -0.1766 -0.0647
 1220ERGO    R516824  16.672  13.107   9.000  0.0886 -0.1749 -0.0937
 1220ERGO    C116825  16.814  13.110   8.646  0.1997 -0.1823 -0.0504
 1220ERGO    C216826  16.781  13.229   8.356  0.3498  0.1041  0.0665
 1221ERGO   ROH16827   3.819   5.537  10.032  0.0655  0.0314  0.0382
 1221ERGO    R116828   3.851   5.690   9.795  0.0224 -0.0198  0.0002
 1221ERGO    R216829   4.078   5.676   9.639  0.0763  0.0963  0.0754
 1221ERGO    R316830   3.900   5.622   9.441  0.1754 -0.0945  0.0333
 1221ERGO    R416831   4.137   5.723   9.302  0.0908  0.2181  0.0933
 1221ERGO    R516832   3.933   5.797   9.282 -0.0034 -0.0241  0.0657
 1221ERGO    C116833   4.003   5.700   8.920  0.1923  0.1100  0.0643
 1221ERGO    C216834   3.923   5.718   8.632  0.2071 -0.1150 -0.3693
 1222ERGO   ROH16835  16.334  16.827   9.804 -0.2284 -0.2700 -0.0860
 1222ERGO    R116836  16.417  16.780   9.537 -0.0664 -0.1098 -0.0665
 1222ERGO    R216837  16.251  16.665   9.348  0.1196 -0.2001 -0.1797
 1222ERGO    R316838  16.313  16.888   9.206 -0.0178 -0.0960 -0.0770
 1222ERGO    R416839  16.255  16.686   9.003  0.0491 -0.0211 -0.1702
 1222ERGO    R516840  16.434  16.807   9.017 -0.0102  0.0625 -0.1404
 1222ERGO    C116841  16.314  16.908   8.669 -0.1207  0.1810 -0.0681
 1222ERGO    C216842  16.260  17.047   8.345 -0.1417 -0.0687  0.2905
 1223ERGO   ROH16843   0.437   3.544   9.742 -0.1514  0.3573  0.1828
 1223ERGO    R116844   0.520   3.471   9.481 -0.0392  0.2520  0.2468
 1223ERGO    R216845   0.341   3.391   9.284  0.0596  0.0163  0.2484
 1223ERGO    R316846   0.461   3.589   9.142 -0.0338  0.0092  0.1591
 1223ERGO    R416847   0.345   3.413   8.940 -0.0848 -0.0519  0.2419
 1223ERGO    R516848   0.552   3.479   8.951 -0.0923 -0.0125  0.1441
 1223ERGO    C116849   0.459   3.612   8.605 -0.2566 -0.0983  0.1543
 1223ERGO    C216850   0.587   3.612   8.438 -0.0322  0.4220  0.2798
 1224ERGO   ROH16851  16.636  15.828   6.266  0.1744  0.2304  0.0036
 1224ERGO    R116852  16.748  15.795   6.524 -0.0318  0.0977  0.0784
 1224ERGO    R216853  16.620  15.655   6.725 -0.1459 -0.0980 -0.1289
 1224ERGO    R316854  16.854  15.516   6.732 -0.0919 -0.0044 -0.0253
 1224ERGO    R416855  16.731  15.468   6.994 -0.1643 -0.0079 -0.0576
 1224ERGO    R516856  16.932  15.543   6.957 -0.1797  0.0666 -0.0014
 1224ERGO    C116857  17.014  15.229   7.157 -0.1243  0.1324  0.0813
 1224ERGO    C216858  17.349  14.989   7.181 -0.0552 -0.2847  0.0478
 1225ERGO   ROH16859  10.150   4.860   9.846  0.1016  0.2951  0.2047
 1225ERGO    R116860  10.248   4.968   9.604  0.2899  0.0751  0.1780
 1225ERGO    R216861  10.435   4.838   9.447 -0.0105 -0.3414  0.1438
 1225ERGO    R316862  10.248   4.873   9.253  0.0151  0.0469  0.1837
 1225ERGO    R416863  10.500   4.839   9.108 -0.0464 -0.2059  0.1376
 1225ERGO    R516864  10.359   5.003   9.086  0.1779  0.0053  0.2597
 1225ERGO    C116865  10.362   4.872   8.728 -0.0434  0.2375  0.1715
 1225ERGO    C216866  10.255   4.950   8.292  0.0172 -0.3626  0.0036
 1226ERGO   ROH16867  11.673  18.156   6.290 -0.1550  0.0584  0.0178
 1226ERGO    R116868  11.565  18.164   6.551 -0.1008  0.2776  0.0361
 1226ERGO    R216869  11.662  18.007   6.757 -0.3759  0.0780  0.0206
 1226ERGO    R316870  11.685  18.246   6.885  0.1247  0.0433  0.0153
 1226ERGO    R416871  11.692  18.045   7.099 -0.4015  0.0270  0.0285
 1226ERGO    R516872  11.558  18.217   7.086 -0.0131  0.3380 -0.0247
 1226ERGO    C116873  11.731  18.291   7.419  0.0536 -0.0355  0.0283
 1226ERGO    C216874  11.895  18.470   7.727  0.4765 -0.2043  0.1590
 1227ERGO   ROH16875  14.316  17.890   6.287  0.0861 -0.0698  0.1570
 1227ERGO    R116876  14.435  17.799   6.527  0.0183 -0.0255  0.2074
 1227ERGO    R216877  14.700  17.846   6.588  0.0746 -0.2519  0.1447
 1227ERGO    R316878  14.595  17.950   6.816  0.2029  0.0147  0.0859
 1227ERGO    R416879  14.839  17.814   6.903  0.0864 -0.1541  0.1501
 1227ERGO    R516880  14.639  17.785   6.983  0.0681  0.0932  0.2008
 1227ERGO    C116881  14.822  17.894   7.300  0.2136  0.1532  0.0979
 1227ERGO    C216882  14.732  17.949   7.597  0.1106 -0.0638  0.2190
 1228ERGO   ROH16883   1.748  12.609   6.105 -0.5290  0.1046  0.2949
 1228ERGO    R116884   1.743  12.445   6.336 -0.3614  0.0672  0.2761
 1228ERGO    R216885   1.972  12.366   6.469 -0.2563  0.0705  0.1236
 1228ERGO    R316886   1.846  12.474   6.684 -0.1388  0.0346  0.2096
 1228ERGO    R416887   1.984  12.238   6.789 -0.2385 -0.0536  0.0733
 1228ERGO    R516888   1.772  12.285   6.811 -0.1943  0.0348  0.1561
 1228ERGO    C116889   1.872  12.266   7.178 -0.1177 -0.1597  0.1247
 1228ERGO    C216890   1.805  12.101   7.452 -0.1421  0.0652  0.0108
 1229ERGO   ROH16891   4.900  12.419   6.470 -0.0742  0.2755  0.1683
 1229ERGO    R116892   5.124  12.418   6.642 -0.0913  0.1635  0.1918
 1229ERGO    R216893   5.254  12.649   6.717  0.0900  0.0926  0.1128
 1229ERGO    R316894   5.208  12.556   6.968 -0.0163  0.2291  0.1438
 1229ERGO    R416895   5.441  12.734   6.995  0.3063 -0.1754  0.0544
 1229ERGO    R516896   5.427  12.526   7.061 -0.0459 -0.1387  0.1017
 1229ERGO    C116897   5.506  12.698   7.393  0.3325 -0.2034  0.0495
 1229ERGO    C216898   5.640  12.726   7.739 -0.1656  0.0949 -0.2426
 1230ERGO   ROH16899   4.850   9.312   9.980  0.1768  0.1237 -0.0949
 1230ERGO    R116900   4.796   9.320   9.703  0.1777  0.2894 -0.0913
 1230ERGO    R216901   4.955   9.458   9.524  0.4662 -0.0084 -0.0742
 1230ERGO    R316902   4.964   9.217   9.397 -0.0470 -0.0156 -0.1170
 1230ERGO    R416903   5.025   9.414   9.188  0.3956 -0.1024 -0.0768
 1230ERGO    R516904   4.870   9.261   9.181  0.0568  0.2285 -0.1154
 1230ERGO    C116905   5.074   9.163   8.874 -0.1272 -0.1639 -0.1185
 1230ERGO    C216906   5.124   9.263   8.642 -0.2032  0.0362  0.1409
 1231ERGO   ROH16907   2.554   2.664   6.187  0.3201  0.0177  0.0924
 1231ERGO    R116908   2.541   2.655   6.469  0.2378 -0.0396  0.0870
 1231ERGO    R216909   2.765   2.681   6.629  0.2002 -0.1365  0.1556
 1231ERGO    R316910   2.620   2.879   6.745  0.2229 -0.1206  0.1575
 1231ERGO    R416911   2.837   2.826   6.935  0.3485  0.0127  0.0518
 1231ERGO    R516912   2.623   2.827   6.979  0.3743 -0.0188  0.1788
 1231ERGO    C116913   2.743   3.097   7.221  0.4562  0.1146 -0.0070
 1231ERGO    C216914   3.006   3.281   7.443 -0.2342 -0.0433  0.2374
 1232ERGO   ROH16915   2.398   1.146   9.687 -0.0774  0.1530  0.1118
 1232ERGO    R116916   2.358   1.046   9.426 -0.0230  0.0674  0.1349
 1232ERGO    R216917   2.285   1.208   9.214 -0.0788 -0.0149  0.0848
 1232ERGO    R316918   2.504   1.099   9.097 -0.0252  0.0432  0.1317
 1232ERGO    R416919   2.375   1.253   8.883 -0.0282 -0.0254  0.0974
 1232ERGO    R516920   2.431   1.043   8.876  0.0377 -0.0024  0.1271
 1232ERGO    C116921   2.633   1.176   8.581  0.0515  0.0231  0.1487
 1232ERGO    C216922   2.792   1.181   8.218 -0.0523 -0.0080 -0.2927
 1233ERGO   ROH16923   8.806   5.209   5.995  0.1431 -0.0696 -0.2714
 1233ERGO    R116924   8.983   5.345   6.169 -0.1472  0.0077 -0.0262
 1233ERGO    R216925   8.928   5.383   6.437 -0.3491 -0.3731  0.0008
 1233ERGO    R316926   9.170   5.264   6.471 -0.1864 -0.0553 -0.0214
 1233ERGO    R416927   9.101   5.370   6.736 -0.3517 -0.2712  0.0065
 1233ERGO    R516928   9.285   5.408   6.624 -0.3945  0.0287  0.0483
 1233ERGO    C116929   9.430   5.252   6.941 -0.2004  0.0864 -0.0110
 1233ERGO    C216930   9.574   5.191   7.297 -0.3127 -0.0362 -0.2364
 1234ERGO   ROH16931   0.249   9.992   6.062  0.0454 -0.0042 -0.0051
 1234ERGO    R116932   0.251   9.872   6.318  0.1439  0.2297  0.1089
 1234ERGO    R216933   0.144   9.995   6.541 -0.0933  0.2940 -0.0278
 1234ERGO    R316934   0.002   9.764   6.561  0.2199  0.1080  0.1301
 1234ERGO    R416935  -0.078   9.920   6.796 -0.1451  0.2374 -0.0895
 1234ERGO    R516936  -0.002   9.716   6.795  0.1443  0.3459  0.1738
 1234ERGO    C116937  -0.340   9.660   6.962  0.1190  0.0299  0.0228
 1234ERGO    C216938  -0.622   9.565   7.011  0.1498 -0.2467  0.0679
 1235ERGO   ROH16939  14.104   8.488   6.348 -0.0569  0.1027 -0.0210
 1235ERGO    R116940  14.143   8.525   6.626 -0.1932 -0.0716  0.0232
 1235ERGO    R216941  14.153   8.315   6.804  0.1228 -0.2182 -0.1605
 1235ERGO    R316942  14.391   8.426   6.873 -0.0808  0.1362 -0.0036
 1235ERGO    R416943  14.307   8.275   7.111  0.2153 -0.4158 -0.2307
 1235ERGO    R516944  14.364   8.486   7.104 -0.1890 -0.2826  0.1009
 1235ERGO    C116945  14.621   8.357   7.354  0.0781 -0.1982 -0.1242
 1235ERGO    C216946  14.685   8.451   7.653 -0.0294 -0.0040  0.0683
 1236ERGO   ROH16947   8.847  15.161   6.465 -0.0668  0.1366  0.0297
 1236ERGO    R116948   8.729  15.179   6.722 -0.0128  0.0440  0.0616
 1236ERGO    R216949   8.847  15.073   6.948  0.0917  0.0642  0.0182
 1236ERGO    R316950   8.815  15.326   7.043 -0.0013  0.0364  0.0616
 1236ERGO    R416951   8.910  15.171   7.273 -0.0998  0.0000  0.0756
 1236ERGO    R516952   8.731  15.296   7.265 -0.1156 -0.0288  0.0094
 1236ERGO    C116953   8.916  15.466   7.552 -0.2986 -0.0637  0.1498
 1236ERGO    C216954   9.002  15.597   7.918 -0.2202  0.1705 -0.0126
 1237ERGO   ROH16955   8.996   9.036   6.255 -0.1427 -0.2311 -0.1678
 1237ERGO    R116956   8.891   9.109   6.508 -0.0281 -0.1224 -0.1525
 1237ERGO    R216957   8.873   8.932   6.719 -0.0198 -0.0531 -0.1023
 1237ERGO    R316958   9.013   9.124   6.850  0.0922 -0.0689 -0.1950
 1237ERGO    R416959   8.955   8.923   7.055  0.1347 -0.0390 -0.1379
 1237ERGO    R516960   8.911   9.136   7.066  0.1914 -0.0196 -0.1446
 1237ERGO    C116961   9.135   9.099   7.373  0.3299 -0.0455 -0.2456
 1237ERGO    C216962   9.227   9.287   7.621 -0.2778  0.4254  0.2937
 1238ERGO   ROH16963  15.141  11.419   9.956 -0.0689 -0.0401  0.1283
 1238ERGO    R116964  14.972  11.393   9.730  0.0250  0.0987  0.0405
 1238ERGO    R216965  14.996  11.554   9.506  0.3356  0.0173  0.0113
 1238ERGO    R316966  15.013  11.315   9.377  0.1338 -0.0366  0.0821
 1238ERGO    R416967  14.961  11.510   9.165  0.1420 -0.0768  0.0424
 1238ERGO    R516968  14.847  11.329   9.205  0.0559  0.0010  0.1592
 1238ERGO    C116969  14.955  11.260   8.846 -0.1601 -0.1820  0.1270
 1238ERGO    C216970  15.043  11.173   8.481 -0.2132  0.0422  0.1684
 1239ERGO   ROH16971   2.846   8.032   6.301 -0.1804  0.2072  0.0117
 1239ERGO    R116972   2.863   7.990   6.580 -0.0748  0.1405 -0.0052
 1239ERGO    R216973   2.752   8.164   6.764 -0.1488  0.0066  0.0706
 1239ERGO    R316974   2.630   7.938   6.855  0.0368 -0.1058  0.0481
 1239ERGO    R416975   2.563   8.143   7.053  0.0085 -0.2100  0.1616
 1239ERGO    R516976   2.653   7.949   7.093  0.1532 -0.1751  0.0451
 1239ERGO    C116977   2.338   7.919   7.306  0.2743 -0.4418  0.1936
 1239ERGO    C216978   2.230   7.952   7.668 -0.0425  0.3083  0.0929
 1240ERGO   ROH16979   1.532   2.009   9.721  0.1880  0.2496 -0.0157
 1240ERGO    R116980   1.514   1.868   9.476  0.3305  0.1620  0.0234
 1240ERGO    R216981   1.331   1.933   9.280  0.2255 -0.1129  0.0296
 1240ERGO    R316982   1.552   1.945   9.122  0.1923  0.1161 -0.0028
 1240ERGO    R416983   1.326   1.948   8.935  0.1523 -0.2946  0.0215
 1240ERGO    R516984   1.496   1.811   8.932  0.3487 -0.0638  0.0714
 1240ERGO    C116985   1.530   1.968   8.586  0.0785 -0.1854 -0.0136
 1240ERGO    C216986   1.316   2.059   8.344 -0.0895 -0.0192  0.4219
 1241ERGO   ROH16987   9.984  11.277   6.310  0.1549  0.2616 -0.1464
 1241ERGO    R116988   9.997  11.343   6.585  0.1552  0.3119 -0.1589
 1241ERGO    R216989  10.067  11.159   6.780 -0.1151  0.2737 -0.0964
 1241ERGO    R316990  10.252  11.347   6.844  0.0899  0.0733 -0.0876
 1241ERGO    R416991  10.258  11.158   7.068 -0.3372  0.2126  0.0536
 1241ERGO    R516992  10.231  11.374   7.081 -0.0608  0.2648 -0.1190
 1241ERGO    C116993  10.543  11.334   7.296 -0.2739 -0.0112  0.1491
 1241ERGO    C216994  10.681  11.322   7.648  0.0107  0.1729  0.1791
 1242ERGO   ROH16995   6.608  11.151   6.733 -0.0246  0.0644  0.0749
 1242ERGO    R116996   6.548  11.404   6.846 -0.2436  0.0231  0.0551
 1242ERGO    R216997   6.352  11.438   7.038 -0.0362 -0.1963  0.3148
 1242ERGO    R316998   6.554  11.553   7.178 -0.0037  0.1608 -0.0093
 1242ERGO    R416999   6.310  11.641   7.314  0.0449 -0.1945  0.3259
 1242ERGO    R517000   6.470  11.769   7.238 -0.2612  0.0453  0.0563
 1242ERGO    C117001   6.476  11.868   7.606  0.1226  0.1416  0.0282
 1242ERGO    C217002   6.243  11.879   7.977 -0.1975  0.2331  0.0530
 1243ERGO   ROH17003   0.734   2.741   6.108  0.0464 -0.2240  0.0001
 1243ERGO    R117004   0.848   2.652   6.351  0.0561 -0.1809  0.0109
 1243ERGO    R217005   1.117   2.678   6.408  0.0543 -0.1604 -0.0004
 1243ERGO    R317006   1.025   2.802   6.631  0.0565 -0.1305 -0.0155
 1243ERGO    R417007   1.223   2.609   6.730  0.0590 -0.1218  0.0068
 1243ERGO    R517008   1.016   2.629   6.796  0.0575 -0.1120  0.0066
 1243ERGO    C117009   1.198   2.686   7.127  0.0639 -0.0713 -0.0032
 1243ERGO    C217010   1.496   2.537   7.340  0.1273 -0.0846  0.1436
 1244ERGO   ROH17011   6.083   2.300   9.792 -0.1055  0.1027  0.0212
 1244ERGO    R117012   5.957   2.392   9.555 -0.0859 -0.0098 -0.0347
 1244ERGO    R217013   6.061   2.598   9.401 -0.1842  0.0659 -0.0094
 1244ERGO    R317014   6.043   2.413   9.202  0.0390  0.0335 -0.0008
 1244ERGO    R417015   5.965   2.665   9.076  0.0935 -0.0110 -0.1096
 1244ERGO    R517016   5.852   2.479   9.076  0.1391 -0.0342 -0.1859
 1244ERGO    C117017   5.892   2.530   8.700  0.4646 -0.0861 -0.1598
 1244ERGO    C217018   6.032   2.525   8.463  0.2059 -0.0585  0.1131
 1245ERGO   ROH17019  11.664  12.230   9.974 -0.2116 -0.2614  0.1142
 1245ERGO    R117020  11.601  12.127   9.718 -0.2129 -0.1699  0.0775
 1245ERGO    R217021  11.342  12.068   9.640 -0.2378  0.0558 -0.0176
 1245ERGO    R317022  11.402  12.233   9.433 -0.0329  0.0399  0.0271
 1245ERGO    R417023  11.230  12.027   9.316 -0.2559  0.2596 -0.0385
 1245ERGO    R517024  11.427  12.087   9.245 -0.1808  0.0553 -0.0056
 1245ERGO    C117025  11.222  12.158   8.932 -0.0741  0.3633 -0.0088
 1245ERGO    C217026  11.335  12.115   8.585 -0.0281 -0.1630  0.1497
 1246ERGO   ROH17027   8.733   0.985   9.486 -0.5532 -0.1072  0.0543
 1246ERGO    R117028   8.804   0.859   9.243 -0.1657  0.0862  0.0597
 1246ERGO    R217029   8.620   0.807   9.043  0.0571 -0.1655 -0.0850
 1246ERGO    R317030   8.797   0.944   8.889 -0.0627  0.1879  0.0814
 1246ERGO    R417031   8.590   0.856   8.702  0.3987 -0.4617 -0.1634
 1246ERGO    R517032   8.805   0.823   8.683  0.5279  0.0610  0.1579
 1246ERGO    C117033   8.739   1.013   8.359  0.4850 -0.3025 -0.0530
 1246ERGO    C217034   8.791   1.082   7.982  0.1343  0.2112 -0.0356
 1247ERGO   ROH17035  13.253   9.630   6.508 -0.0303 -0.1109 -0.0917
 1247ERGO    R117036  13.034   9.629   6.687  0.1808  0.0681  0.1756
 1247ERGO    R217037  12.836   9.436   6.678 -0.2107  0.4671  0.1269
 1247ERGO    R317038  12.901   9.405   6.940  0.0487 -0.0420  0.0152
 1247ERGO    R417039  12.628   9.301   6.919 -0.3180  0.7529  0.1992
 1247ERGO    R517040  12.698   9.453   7.058  0.3048  0.4042  0.3208
 1247ERGO    C117041  12.567   9.193   7.305 -0.1368  0.4414  0.1363
 1247ERGO    C217042  12.592   9.155   7.626 -0.1608 -0.0204 -0.1934
 1248ERGO   ROH17043   0.718   1.088   6.362 -0.0177 -0.0717 -0.1939
 1248ERGO    R117044   0.676   0.931   6.594 -0.0322 -0.0013 -0.1481
 1248ERGO    R217045   0.872   0.892   6.784 -0.0244  0.0073 -0.1538
 1248ERGO    R317046   0.680   0.984   6.954  0.0095  0.0940 -0.1623
 1248ERGO    R417047   0.901   0.903   7.129 -0.1290 -0.2440 -0.1354
 1248ERGO    R517048   0.693   0.838   7.143 -0.2024 -0.0440 -0.2498
 1248ERGO    C117049   0.737   0.995   7.488 -0.1580 -0.3091 -0.1325
 1248ERGO    C217050   0.743   0.902   7.884 -0.1548  0.1636  0.0102
 1249ERGO   ROH17051   5.352   4.606  10.061 -0.1371  0.0079 -0.1810
 1249ERGO    R117052   5.474   4.789   9.883  0.0129 -0.0321 -0.1215
 1249ERGO    R217053   5.703   4.728   9.741 -0.0293 -0.1709 -0.1358
 1249ERGO    R317054   5.552   4.801   9.528  0.0294  0.0153 -0.1158
 1249ERGO    R417055   5.819   4.753   9.417  0.0184 -0.0456 -0.1093
 1249ERGO    R517056   5.698   4.933   9.393  0.1046  0.0218 -0.0264
 1249ERGO    C117057   5.743   4.836   9.027  0.1012  0.2021 -0.0752
 1249ERGO    C217058   5.683   4.871   8.697  0.1333 -0.0022  0.3459
 1250ERGO   ROH17059  12.097   0.637   5.963  0.1127 -0.0609 -0.0248
 1250ERGO    R117060  12.153   0.747   6.217  0.1271 -0.0302 -0.0390
 1250ERGO    R217061  12.023   0.665   6.447 -0.0402  0.1660 -0.0475
 1250ERGO    R317062  12.276   0.624   6.537 -0.1066 -0.0524  0.0406
 1250ERGO    R417063  12.120   0.679   6.778 -0.1570 -0.1178 -0.0002
 1250ERGO    R517064  12.302   0.781   6.716 -0.0741 -0.1965  0.1518
 1250ERGO    C117065  12.414   0.649   7.056 -0.2875 -0.4880  0.1101
 1250ERGO    C217066  12.494   0.456   7.378  0.0237  0.3167 -0.1746
 1251ERGO   ROH17067   1.716   6.673  10.257 -0.0535 -0.1155 -0.1201
 1251ERGO    R117068   1.855   6.727  10.016  0.0172  0.0233 -0.0505
 1251ERGO    R217069   1.909   6.531   9.829  0.2396  0.0892 -0.0639
 1251ERGO    R317070   1.785   6.704   9.660  0.1890  0.0320 -0.0846
 1251ERGO    R417071   1.955   6.539   9.487  0.2272  0.0626 -0.0658
 1251ERGO    R517072   1.952   6.757   9.497  0.1666  0.0592 -0.0945
 1251ERGO    C117073   1.866   6.707   9.129  0.1725 -0.0065 -0.0863
 1251ERGO    C217074   1.873   6.593   8.795  0.1603  0.2750 -0.1774
 1252ERGO   ROH17075   1.762  14.394  10.102  0.1742  0.1138 -0.0864
 1252ERGO    R117076   1.743  14.296   9.837  0.1847  0.0496 -0.0634
 1252ERGO    R217077   1.502  14.265   9.706  0.1877 -0.0116 -0.0546
 1252ERGO    R317078   1.621  14.420   9.517  0.1667 -0.0404 -0.0915
 1252ERGO    R417079   1.487  14.206   9.366  0.1965 -0.0946 -0.0407
 1252ERGO    R517080   1.698  14.263   9.353  0.1885 -0.0690 -0.0541
 1252ERGO    C117081   1.591  14.317   8.990  0.1818 -0.1701 -0.0674
 1252ERGO    C217082   1.583  14.322   8.697 -0.3523  0.0886 -0.0831
 1253ERGO   ROH17083  16.710   2.461   9.857  0.0116  0.1840  0.0054
 1253ERGO    R117084  16.852   2.435   9.614  0.0679  0.1164  0.0453
 1253ERGO    R217085  16.855   2.201   9.468  0.0680  0.0887  0.0905
 1253ERGO    R317086  16.770   2.363   9.267  0.1426  0.0640  0.0381
 1253ERGO    R417087  16.874   2.124   9.131 -0.0769 -0.0812  0.1195
 1253ERGO    R517088  16.931   2.331   9.092  0.0750 -0.1418  0.0102
 1253ERGO    C117089  16.805   2.231   8.747 -0.0911 -0.2034  0.0874
 1253ERGO    C217090  16.750   2.214   8.432 -0.1679 -0.0019 -0.1589
 1254ERGO   ROH17091  12.398   1.231   9.890 -0.2220 -0.1471 -0.0976
 1254ERGO    R117092  12.412   1.118   9.631 -0.0134 -0.1273 -0.0984
 1254ERGO    R217093  12.228   1.176   9.433 -0.0449 -0.3562 -0.1469
 1254ERGO    R317094  12.450   1.240   9.291 -0.0854 -0.0672 -0.0836
 1254ERGO    R417095  12.247   1.179   9.088  0.0796 -0.4154 -0.1400
 1254ERGO    R517096  12.446   1.091   9.104  0.2029 -0.1202 -0.0476
 1254ERGO    C117097  12.467   1.240   8.753  0.1140 -0.1785 -0.0765
 1254ERGO    C217098  12.446   1.233   8.485 -0.3228  0.4035 -0.2016
 1255ERGO   ROH17099  15.914  10.914   9.668  0.1887  0.0230 -0.0674
 1255ERGO    R117100  15.915  10.770   9.425  0.0354  0.0294 -0.0724
 1255ERGO    R217101  15.715  10.795   9.236 -0.0125  0.1390 -0.0071
 1255ERGO    R317102  15.923  10.850   9.070 -0.0366  0.0355 -0.0729
 1255ERGO    R417103  15.721  10.727   8.897 -0.1051  0.0279  0.0127
 1255ERGO    R517104  15.928  10.665   8.918 -0.1153 -0.0153 -0.0146
 1255ERGO    C117105  15.920  10.739   8.544 -0.1818 -0.1341 -0.0376
 1255ERGO    C217106  15.839  10.799   8.213 -0.0759 -0.0983  0.2840
 1256ERGO   ROH17107   5.692   5.007   6.511  0.0938  0.0652 -0.0103
 1256ERGO    R117108   5.691   5.166   6.745 -0.1385 -0.0081  0.0394
 1256ERGO    R217109   5.618   5.066   6.992  0.0242 -0.1989  0.0067
 1256ERGO    R317110   5.861   5.164   7.067 -0.1176  0.1520  0.0323
 1256ERGO    R417111   5.756   5.034   7.308  0.2138 -0.4003 -0.0933
 1256ERGO    R517112   5.828   5.239   7.292 -0.1722 -0.2264  0.1621
 1256ERGO    C117113   6.064   5.107   7.561  0.1912 -0.1882 -0.1275
 1256ERGO    C217114   6.144   4.908   7.768  0.0923 -0.2368  0.2598
 1257ERGO   ROH17115  10.915   2.539   9.788  0.0442  0.2084 -0.0201
 1257ERGO    R117116  10.798   2.446   9.547 -0.0233  0.2050  0.0142
 1257ERGO    R217117  10.716   2.617   9.346  0.1866  0.1894 -0.0859
 1257ERGO    R317118  10.877   2.462   9.192  0.0423 -0.0670  0.0139
 1257ERGO    R417119  10.721   2.620   9.001  0.4650  0.2553 -0.0844
 1257ERGO    R517120  10.741   2.403   9.004  0.0806  0.2108 -0.1079
 1257ERGO    C117121  10.875   2.476   8.655  0.4918  0.0530  0.0103
 1257ERGO    C217122  10.941   2.379   8.318 -0.0333  0.1028 -0.0709
 1258ERGO   ROH17123   6.108   7.701   6.891  0.0067 -0.1768 -0.1442
 1258ERGO    R117124   6.328   7.621   7.050  0.1694 -0.1343 -0.3441
 1258ERGO    R217125   6.306   7.434   7.252  0.2617  0.2550  0.0432
 1258ERGO    R317126   6.508   7.312   7.117 -0.0856 -0.2277 -0.0684
 1258ERGO    R417127   6.504   7.180   7.378  0.1259  0.2082  0.1648
 1258ERGO    R517128   6.676   7.273   7.283  0.1134 -0.1621 -0.2502
 1258ERGO    C117129   6.808   6.918   7.325 -0.2793 -0.2722  0.1308
 1258ERGO    C217130   6.905   6.656   7.548  0.1366  0.0633 -0.0604
 1259ERGO   ROH17131  15.963   6.809   6.074  0.1632  0.0648 -0.0142
 1259ERGO    R117132  16.080   6.713   6.314  0.0997  0.0237  0.0003
 1259ERGO    R217133  16.342   6.765   6.383  0.0929 -0.0224  0.0593
 1259ERGO    R317134  16.230   6.859   6.612  0.0601 -0.0287  0.0460
 1259ERGO    R417135  16.462   6.703   6.701 -0.0126 -0.1191  0.0809
 1259ERGO    R517136  16.256   6.679   6.769 -0.0390 -0.0663  0.0206
 1259ERGO    C117137  16.426   6.755   7.102 -0.1047 -0.1813  0.0809
 1259ERGO    C217138  16.639   6.780   7.238  0.1221  0.1125  0.1382
 1260ERGO   ROH17139   0.214  10.730   9.842  0.2907 -0.1055  0.0394
 1260ERGO    R117140   0.289  10.792   9.576  0.2047 -0.1049  0.0147
 1260ERGO    R217141   0.244  10.620   9.364  0.0925 -0.0846  0.0201
 1260ERGO    R317142   0.120  10.837   9.257  0.0945 -0.0538  0.0803
 1260ERGO    R417143   0.227  10.691   9.026  0.0621 -0.0045  0.0383
 1260ERGO    R517144   0.261  10.901   9.074  0.0780 -0.0189  0.0817
 1260ERGO    C117145   0.102  10.936   8.729  0.0462  0.0712  0.1054
 1260ERGO    C217146  -0.062  11.147   8.519 -0.0345 -0.0275 -0.4571
 1261ERGO   ROH17147   6.163  15.764   6.579  0.0543  0.1627 -0.4030
 1261ERGO    R117148   6.084  15.809   6.847  0.0636 -0.0324 -0.3655
 1261ERGO    R217149   6.256  15.910   7.038  0.0406 -0.0681 -0.3232
 1261ERGO    R317150   6.059  16.095   7.071 -0.0393 -0.1754 -0.1924
 1261ERGO    R417151   6.246  16.144   7.292 -0.0067 -0.1788 -0.2224
 1261ERGO    R517152   6.031  16.110   7.308  0.0153 -0.2878 -0.1793
 1261ERGO    C117153   6.055  16.454   7.470 -0.1093 -0.3437 -0.0409
 1261ERGO    C217154   6.007  16.802   7.655 -0.1269  0.1958  0.0159
 1262ERGO   ROH17155   5.977   3.265   6.555  0.0902 -0.0642  0.1383
 1262ERGO    R117156   6.103   3.173   6.791  0.0284 -0.0003  0.1966
 1262ERGO    R217157   6.033   3.265   7.042 -0.0034  0.1033  0.1489
 1262ERGO    R317158   6.001   3.000   7.095 -0.0595  0.1283  0.2419
 1262ERGO    R417159   6.041   3.124   7.358  0.4902  0.1505  0.1653
 1262ERGO    R517160   6.153   2.956   7.274  0.2497  0.0725 -0.0213
 1262ERGO    C117161   6.015   2.793   7.590  0.7250  0.2014  0.2621
 1262ERGO    C217162   5.949   2.583   7.876  0.0376 -0.2068 -0.1298
 1263ERGO   ROH17163  16.731   8.708   6.132  0.0581  0.0146  0.0004
 1263ERGO    R117164  16.696   8.609   6.395  0.0721  0.0072  0.0002
 1263ERGO    R217165  16.891   8.462   6.525  0.0939  0.0288 -0.0002
 1263ERGO    R317166  16.859   8.652   6.717  0.0696  0.0261 -0.0024
 1263ERGO    R417167  16.936   8.410   6.864  0.0623  0.0360  0.0046
 1263ERGO    R517168  16.761   8.535   6.902  0.0579  0.0275 -0.0117
 1263ERGO    C117169  16.933   8.558   7.241  0.0210  0.0376  0.0056
 1263ERGO    C217170  17.098   8.572   7.576 -0.2362 -0.1140  0.1515
 1264ERGO   ROH17171   3.116   6.206   6.348  0.1411  0.0297  0.0150
 1264ERGO    R117172   3.142   6.445   6.498 -0.1309  0.0715 -0.0004
 1264ERGO    R217173   2.990   6.497   6.722 -0.0875 -0.1554  0.0849
 1264ERGO    R317174   3.232   6.536   6.839 -0.0743  0.2049 -0.0504
 1264ERGO    R417175   3.042   6.531   7.062  0.0661 -0.2149  0.0679
 1264ERGO    R517176   3.188   6.688   7.019 -0.2216  0.0551  0.0418
 1264ERGO    C117177   3.301   6.588   7.369  0.1680  0.0886 -0.0690
 1264ERGO    C217178   3.244   6.488   7.592  0.1739 -0.0652  0.2396
 1265ERGO   ROH17179  15.871  13.838   6.417  0.0226 -0.0003 -0.0508
 1265ERGO    R117180  15.982  13.877   6.675 -0.0493  0.1427 -0.0408
 1265ERGO    R217181  15.890  14.071   6.849 -0.3532 -0.0080 -0.0269
 1265ERGO    R317182  15.865  13.861   7.019 -0.0478 -0.0672 -0.0490
 1265ERGO    R417183  15.839  14.097   7.189 -0.2452 -0.1222 -0.0012
 1265ERGO    R517184  15.977  13.931   7.218 -0.0450  0.0262 -0.0834
 1265ERGO    C117185  15.785  13.915   7.547  0.1043 -0.2445 -0.0070
 1265ERGO    C217186  15.791  13.896   7.829 -0.0961 -0.1585 -0.2243
 1266ERGO   ROH17187   1.437  15.693   6.310 -0.0563 -0.1021 -0.0316
 1266ERGO    R117188   1.533  15.634   6.570  0.0864 -0.0594 -0.0740
 1266ERGO    R217189   1.378  15.506   6.759  0.1587  0.0572  0.0613
 1266ERGO    R317190   1.588  15.335   6.769  0.1009 -0.0201 -0.0177
 1266ERGO    R417191   1.446  15.293   7.022  0.1756  0.0334  0.0384
 1266ERGO    R517192   1.658  15.339   6.999  0.1869 -0.0431 -0.0408
 1266ERGO    C117193   1.683  15.007   7.185  0.1312 -0.0529 -0.0492
 1266ERGO    C217194   1.644  14.802   7.419  0.0750  0.1832 -0.1669
 1267ERGO   ROH17195  10.651  16.282   6.360 -0.2379 -0.1178  0.2365
 1267ERGO    R117196  10.779  16.503   6.482 -0.2214 -0.0374  0.0784
 1267ERGO    R217197  10.640  16.703   6.612 -0.1953 -0.0626  0.1572
 1267ERGO    R317198  10.805  16.641   6.818  0.0084  0.0430  0.0276
 1267ERGO    R417199  10.673  16.889   6.901 -0.1019 -0.0629  0.1459
 1267ERGO    R517200  10.888  16.853   6.894 -0.0838  0.0925 -0.0205
 1267ERGO    C117201  10.848  16.939   7.263  0.1438  0.0361  0.0175
 1267ERGO    C217202  10.748  17.215   7.413  0.0715  0.1215  0.3888
 1268ERGO   ROH17203  12.585   5.234   9.754 -0.2529 -0.0888  0.0050
 1268ERGO    R117204  12.623   5.389   9.520 -0.3131  0.0854  0.1098
 1268ERGO    R217205  12.763   5.296   9.300 -0.1881  0.3280  0.0873
 1268ERGO    R317206  12.535   5.363   9.168 -0.2053  0.2369  0.0690
 1268ERGO    R417207  12.739   5.345   8.959 -0.2112  0.1393  0.0603
 1268ERGO    R517208  12.607   5.514   8.997 -0.2256  0.1529 -0.0197
 1268ERGO    C117209  12.512   5.437   8.637 -0.2407 -0.0561  0.0273
 1268ERGO    C217210  12.628   5.267   8.409  0.2805  0.0019 -0.0499
 1269ERGO   ROH17211  16.978   3.451   9.576  0.0093  0.0901  0.0798
 1269ERGO    R117212  16.795   3.352   9.384  0.0385 -0.0296  0.1135
 1269ERGO    R217213  16.705   3.505   9.172 -0.0972 -0.0901  0.1307
 1269ERGO    R317214  16.795   3.295   9.024  0.0099 -0.0340  0.1134
 1269ERGO    R417215  16.693   3.486   8.827  0.0955  0.0219  0.1161
 1269ERGO    R517216  16.637   3.276   8.845  0.1081  0.0063  0.0186
 1269ERGO    C117217  16.770   3.278   8.488  0.3080  0.1398  0.0915
 1269ERGO    C217218  16.827   3.388   8.151  0.3035 -0.1083 -0.1866
 1270ERGO   ROH17219   1.420  10.392   9.856  0.2831  0.1860 -0.1306
 1270ERGO    R117220   1.358  10.326   9.588  0.2429 -0.1531 -0.0431
 1270ERGO    R217221   1.329  10.517   9.390 -0.3807 -0.3423 -0.1634
 1270ERGO    R317222   1.516  10.365   9.262 -0.0874  0.0259 -0.1852
 1270ERGO    R417223   1.347  10.472   9.048 -0.3744 -0.3622 -0.1593
 1270ERGO    R517224   1.396  10.263   9.082  0.0798 -0.2602 -0.1364
 1270ERGO    C117225   1.533  10.305   8.729 -0.0953 -0.0282 -0.1773
 1270ERGO    C217226   1.396  10.278   8.395  0.1818  0.2026  0.1260
 1271ERGO   ROH17227   5.743   9.917  10.241 -0.0898  0.0225 -0.1665
 1271ERGO    R117228   5.756   9.773   9.997  0.0199 -0.0493 -0.1194
 1271ERGO    R217229   5.547   9.770   9.816  0.0895 -0.1271 -0.1988
 1271ERGO    R317230   5.739   9.854   9.643  0.1463 -0.1572 -0.1506
 1271ERGO    R417231   5.551   9.704   9.476  0.1204 -0.0556 -0.2124
 1271ERGO    R517232   5.766   9.672   9.490  0.1070 -0.1335 -0.1853
 1271ERGO    C117233   5.734   9.745   9.117  0.1916 -0.0421 -0.1750
 1271ERGO    C217234   5.698   9.985   8.801 -0.3060  0.3304 -0.0179
 1272ERGO   ROH17235  18.087   7.255   6.586 -0.0921 -0.1648 -0.0206
 1272ERGO    R117236  18.058   7.144   6.845  0.2644 -0.2848 -0.0237
 1272ERGO    R217237  18.271   7.105   7.016  0.4313  0.2549 -0.0762
 1272ERGO    R317238  18.119   7.251   7.187  0.0745 -0.1535 -0.0315
 1272ERGO    R417239  18.368   7.202   7.333  0.2139  0.4483 -0.0682
 1272ERGO    R517240  18.167   7.158   7.403  0.3258 -0.0729 -0.0565
 1272ERGO    C117241  18.282   7.395   7.678 -0.2477  0.1775 -0.0215
 1272ERGO    C217242  18.258   7.322   8.082 -0.1334  0.0362 -0.2188
 1273ERGO   ROH17243  18.027  17.864   9.863  0.0405  0.0454  0.0602
 1273ERGO    R117244  18.027  18.048   9.649  0.0240 -0.0149  0.0071
 1273ERGO    R217245  18.229  18.057   9.459  0.0429 -0.0266  0.0231
 1273ERGO    R317246  18.022  18.030   9.285  0.0648 -0.1210  0.0121
 1273ERGO    R417247  18.257  18.070   9.115  0.0454  0.0367  0.0262
 1273ERGO    R517248  18.072  18.184   9.109 -0.0185 -0.0693  0.0354
 1273ERGO    C117249  18.079  18.053   8.751  0.0675 -0.0152  0.0178
 1273ERGO    C217250  17.998  18.071   8.491 -0.0723 -0.1367 -0.0243
 1274ERGO   ROH17251   7.877   0.230   9.617 -0.1680  0.0160  0.1445
 1274ERGO    R117252   7.887   0.132   9.352  0.0955  0.0400  0.1435
 1274ERGO    R217253   7.681   0.172   9.170  0.1198 -0.2488  0.0547
 1274ERGO    R317254   7.880   0.276   9.017  0.0426  0.0457  0.1452
 1274ERGO    R417255   7.687   0.171   8.825  0.3565 -0.4249  0.0565
 1274ERGO    R517256   7.899   0.125   8.833  0.4509 -0.0284  0.2327
 1274ERGO    C117257   7.877   0.267   8.480  0.4218 -0.2509  0.1422
 1274ERGO    C217258   7.727   0.144   8.232  0.3834  0.2126 -0.0096
 1275ERGO   ROH17259   7.576  15.013   7.405  0.4686  0.1256 -0.1289
 1275ERGO    R117260   7.412  15.239   7.362  0.4322  0.0783 -0.2492
 1275ERGO    R217261   7.246  15.342   7.558 -0.0011 -0.1695 -0.4633
 1275ERGO    R317262   7.379  15.573   7.503 -0.0005 -0.0563 -0.0165
 1275ERGO    R417263   7.095  15.644   7.485  0.0046 -0.1352 -0.3321
 1275ERGO    R517264   7.247  15.678   7.333  0.2056  0.0930 -0.0821
 1275ERGO    C117265   7.131  16.036   7.391  0.0085 -0.0090  0.1638
 1275ERGO    C217266   7.083  16.397   7.392  0.2746  0.2020  0.2258
 1276ERGO   ROH17267  11.824  11.119  10.071  0.1840 -0.1258  0.0541
 1276ERGO    R117268  11.774  11.214   9.809  0.1968  0.0125  0.1025
 1276ERGO    R217269  11.960  11.360   9.666  0.2909 -0.1142  0.1036
 1276ERGO    R317270  11.919  11.168   9.478  0.0553 -0.0085  0.0409
 1276ERGO    R417271  11.920  11.419   9.328  0.3827  0.0518  0.1199
 1276ERGO    R517272  11.765  11.267   9.324  0.1826  0.2436  0.0636
 1276ERGO    C117273  11.859  11.273   8.955  0.2148  0.2478  0.0705
 1276ERGO    C217274  11.848  11.160   8.596 -0.3245  0.0281 -0.0227
 1277ERGO   ROH17275   1.518  16.689   6.321 -0.0139  0.2262 -0.0162
 1277ERGO    R117276   1.386  16.729   6.567 -0.1326  0.0068 -0.0424
 1277ERGO    R217277   1.311  16.520   6.731  0.2743 -0.1196 -0.0100
 1277ERGO    R317278   1.452  16.658   6.918 -0.0295  0.2161 -0.0179
 1277ERGO    R417279   1.245  16.518   7.071  0.2196 -0.1756 -0.0207
 1277ERGO    R517280   1.287  16.732   7.075 -0.2122 -0.0788 -0.0627
 1277ERGO    C117281   1.338  16.646   7.443 -0.0974  0.1068 -0.0342
 1277ERGO    C217282   1.454  16.803   7.817 -0.4191  0.1300  0.2543
 1278ERGO   ROH17283   7.399   5.784  10.211  0.0057 -0.0272 -0.0168
 1278ERGO    R117284   7.296   5.964  10.019  0.0600  0.0484  0.0239
 1278ERGO    R217285   7.454   6.147   9.885  0.1453 -0.0749 -0.0498
 1278ERGO    R317286   7.347   6.030   9.665 -0.0407 -0.0013  0.0005
 1278ERGO    R417287   7.542   6.222   9.559  0.1979 -0.2921 -0.0877
 1278ERGO    R517288   7.331   6.208   9.505  0.1712 -0.0303 -0.0521
 1278ERGO    C117289   7.491   6.157   9.163  0.0540 -0.3496 -0.0623
 1278ERGO    C217290   7.552   6.202   8.809  0.0011 -0.1753 -0.1725
 1279ERGO   ROH17291   0.291  18.030   6.199  0.0476  0.1015 -0.0880
 1279ERGO    R117292   0.325  17.978   6.476  0.0432  0.0677 -0.0935
 1279ERGO    R217293   0.415  17.735   6.572  0.0670  0.0641 -0.1231
 1279ERGO    R317294   0.601  17.889   6.696  0.0453  0.0684 -0.0959
 1279ERGO    R417295   0.591  17.644   6.855  0.0773  0.0402 -0.1374
 1279ERGO    R517296   0.568  17.847   6.929  0.0494  0.0247 -0.1033
 1279ERGO    C117297   0.869  17.735   7.136  0.0629  0.0305 -0.1201
 1279ERGO    C217298   1.058  17.690   7.454 -0.0318  0.0291  0.0817
 1280ERGO   ROH17299   4.721   5.367   6.785 -0.2259 -0.1604  0.0326
 1280ERGO    R117300   4.671   5.263   7.043  0.1177 -0.1841  0.0951
 1280ERGO    R217301   4.858   5.270   7.246  0.2064  0.2931  0.0104
 1280ERGO    R317302   4.657   5.392   7.383 -0.0043 -0.0858  0.0525
 1280ERGO    R417303   4.851   5.317   7.588  0.0806  0.1020  0.0350
 1280ERGO    R517304   4.639   5.268   7.586  0.1545 -0.2227 -0.0175
 1280ERGO    C117305   4.658   5.459   7.916 -0.1906 -0.3650  0.0889
 1280ERGO    C217306   4.758   5.641   8.097  0.3458 -0.2379 -0.1554
 1281ERGO   ROH17307  13.383   6.341   6.621  0.0091 -0.0782 -0.1420
 1281ERGO    R117308  13.205   6.346   6.841  0.0609  0.0880 -0.1023
 1281ERGO    R217309  13.020   6.146   6.888 -0.0222  0.1915  0.0155
 1281ERGO    R317310  13.138   6.137   7.132  0.0291  0.2284 -0.0076
 1281ERGO    R417311  12.898   5.971   7.160  0.0567  0.1977  0.0552
 1281ERGO    R517312  12.955   6.139   7.287  0.0597  0.2167  0.0295
 1281ERGO    C117313  12.938   5.862   7.548  0.1506  0.2361  0.0566
 1281ERGO    C217314  12.860   5.646   7.717 -0.0558 -0.2803  0.3098
 1282ERGO   ROH17315  10.496   2.392   5.933 -0.1800 -0.1010 -0.0723
 1282ERGO    R117316  10.467   2.225   6.160 -0.1401 -0.1642 -0.1136
 1282ERGO    R217317  10.682   2.149   6.318 -0.1172 -0.1775 -0.1507
 1282ERGO    R317318  10.529   2.252   6.517 -0.1151 -0.2492 -0.1114
 1282ERGO    R417319  10.679   2.036   6.644  0.0007 -0.1928 -0.1546
 1282ERGO    R517320  10.464   2.063   6.647 -0.0092 -0.2812 -0.1049
 1282ERGO    C117321  10.535   2.068   7.022  0.0714 -0.2691 -0.1198
 1282ERGO    C217322  10.514   2.363   7.365  0.3297 -0.0575  0.0377
 1283ERGO   ROH17323   7.159   4.085  10.066 -0.1410  0.0250 -0.0995
 1283ERGO    R117324   6.980   4.183   9.869 -0.0580  0.1801 -0.1020
 1283ERGO    R217325   7.043   4.396   9.703  0.2045  0.0171 -0.2344
 1283ERGO    R317326   6.981   4.219   9.507 -0.0950 -0.0082 -0.1187
 1283ERGO    R417327   6.995   4.477   9.371  0.1055 -0.1020 -0.2482
 1283ERGO    R517328   6.829   4.337   9.366 -0.0428  0.0781 -0.0907
 1283ERGO    C117329   6.908   4.359   8.993 -0.2334 -0.1950 -0.1479
 1283ERGO    C217330   6.896   4.385   8.673 -0.0311 -0.0593  0.0196
 1284ERGO   ROH17331   6.282   0.122   6.234  0.1044 -0.0515  0.1423
 1284ERGO    R117332   6.262   0.120   6.517  0.0087  0.1059  0.1397
 1284ERGO    R217333   6.442  -0.015   6.678 -0.2240 -0.0769  0.2661
 1284ERGO    R317334   6.468   0.228   6.796  0.0741 -0.0505  0.1498
 1284ERGO    R417335   6.606   0.043   6.977 -0.1692 -0.1259  0.2440
 1284ERGO    R517336   6.448   0.183   7.030  0.0062  0.0952  0.1672
 1284ERGO    C117337   6.725   0.305   7.262  0.1425 -0.1295  0.1220
 1284ERGO    C217338   7.041   0.323   7.369 -0.3354 -0.0296  0.1073
 1285ERGO   ROH17339   0.458  12.261   9.744 -0.3322  0.0903  0.0577
 1285ERGO    R117340   0.553  12.182   9.489 -0.2410  0.0715  0.0972
 1285ERGO    R217341   0.384  12.118   9.281 -0.1669  0.1370  0.0171
 1285ERGO    R317342   0.527  12.307   9.148 -0.0439  0.0959  0.0897
 1285ERGO    R417343   0.427  12.127   8.938  0.0474  0.0976  0.0419
 1285ERGO    R517344   0.635  12.185   8.971  0.0408  0.0569  0.1664
 1285ERGO    C117345   0.588  12.309   8.614  0.2876  0.0360  0.1245
 1285ERGO    C217346   0.616  12.296   8.247  0.2322 -0.0501 -0.2079
 1286ERGO   ROH17347   3.420   4.444   9.748 -0.1000  0.0736 -0.2063
 1286ERGO    R117348   3.383   4.663   9.573  0.0156  0.1106 -0.1868
 1286ERGO    R217349   3.572   4.737   9.385  0.0822  0.0654 -0.1433
 1286ERGO    R317350   3.364   4.713   9.213  0.1053  0.1608 -0.1840
 1286ERGO    R417351   3.584   4.816   9.049  0.1927  0.0103 -0.1522
 1286ERGO    R517352   3.385   4.902   9.067  0.2408  0.1255 -0.2069
 1286ERGO    C117353   3.395   4.839   8.691  0.2786  0.0678 -0.1954
 1286ERGO    C217354   3.488   4.842   8.349 -0.0529  0.2355  0.0645
 1287ERGO   ROH17355  10.800   3.900   6.229  0.1096  0.1353  0.0153
 1287ERGO    R117356  10.911   3.933   6.487  0.0831  0.1225  0.0281
 1287ERGO    R217357  11.006   4.175   6.579 -0.0819  0.1555  0.1114
 1287ERGO    R317358  10.836   4.127   6.786 -0.0537 -0.0289  0.0941
 1287ERGO    R417359  11.083   4.220   6.913 -0.0786 -0.0109  0.1338
 1287ERGO    R517360  10.975   4.035   6.957 -0.0087 -0.0789  0.0326
 1287ERGO    C117361  10.968   4.200   7.301 -0.0500 -0.2809  0.1306
 1287ERGO    C217362  10.874   4.316   7.655  0.0235 -0.0838 -0.1553
 1288ERGO   ROH17363   7.394  18.307   6.145 -0.1140 -0.0882  0.0101
 1288ERGO    R117364   7.391  18.408   6.410 -0.1836 -0.2369  0.0669
 1288ERGO    R217365   7.436  18.248   6.631  0.1701 -0.2889 -0.0372
 1288ERGO    R317366   7.627  18.433   6.686 -0.1149  0.0065 -0.0116
 1288ERGO    R417367   7.575  18.301   6.942  0.2205 -0.2448 -0.0668
 1288ERGO    R517368   7.569  18.516   6.903 -0.1613 -0.2240  0.0662
 1288ERGO    C117369   7.836  18.506   7.175 -0.0177  0.0584 -0.0600
 1288ERGO    C217370   7.983  18.641   7.448  0.2929  0.0409  0.1149
 1289ERGO   ROH17371  17.579  17.560   6.248 -0.0713  0.1426 -0.3343
 1289ERGO    R117372  17.485  17.319   6.364  0.0643  0.1096 -0.2922
 1289ERGO    R217373  17.244  17.303   6.498  0.1720  0.0458 -0.1101
 1289ERGO    R317374  17.196  17.102   6.322  0.0738  0.0561 -0.0977
 1289ERGO    R417375  16.976  17.085   6.514  0.1196  0.1138 -0.0340
 1289ERGO    R517376  17.110  16.924   6.456  0.0652  0.0780 -0.0706
 1289ERGO    C117377  16.775  16.769   6.357 -0.0034  0.1635  0.0220
 1289ERGO    C217378  16.462  16.600   6.211  0.0823 -0.1603 -0.0392
 1290ERGO   ROH17379   7.813   2.117   5.901 -0.0241  0.1386 -0.0713
 1290ERGO    R117380   7.754   2.009   6.156 -0.0329  0.1498 -0.0699
 1290ERGO    R217381   7.933   2.019   6.366 -0.0155  0.0946 -0.0901
 1290ERGO    R317382   7.724   2.134   6.496  0.0294  0.1473 -0.0614
 1290ERGO    R417383   7.853   1.966   6.698  0.0853  0.1869 -0.0494
 1290ERGO    R517384   7.642   1.963   6.642  0.0621  0.1861  0.0108
 1290ERGO    C117385   7.610   2.044   7.013  0.1861  0.2901  0.0012
 1290ERGO    C217386   7.485   2.087   7.223  0.0835  0.0652 -0.0278
 1291ERGO   ROH17387   2.081  14.264   6.333 -0.0084  0.2383  0.0781
 1291ERGO    R117388   2.099  14.315   6.611 -0.1361  0.2820  0.0798
 1291ERGO    R217389   1.915  14.473   6.745 -0.2916  0.1756  0.0045
 1291ERGO    R317390   1.892  14.254   6.905 -0.1955  0.1743  0.0151
 1291ERGO    R417391   1.798  14.476   7.070 -0.2100  0.1494  0.0334
 1291ERGO    R517392   1.953  14.332   7.123 -0.1620  0.1919 -0.0030
 1291ERGO    C117393   1.708  14.273   7.409 -0.0722  0.1331  0.0602
 1291ERGO    C217394   1.688  14.346   7.721  0.1109 -0.0218 -0.2004
 1292ERGO   ROH17395  12.774   3.619   9.824  0.0410  0.0010  0.0698
 1292ERGO    R117396  12.805   3.470   9.586  0.1081 -0.0549  0.1133
 1292ERGO    R217397  12.638   3.500   9.368  0.0659 -0.2260  0.1209
 1292ERGO    R317398  12.871   3.542   9.236  0.0272 -0.1236  0.0837
 1292ERGO    R417399  12.679   3.471   9.026 -0.0077 -0.0723  0.0981
 1292ERGO    R517400  12.872   3.377   9.062  0.0196 -0.0501  0.0130
 1292ERGO    C117401  12.923   3.494   8.703 -0.0869  0.1133  0.0499
 1292ERGO    C217402  13.033   3.304   8.452 -0.0143 -0.0387 -0.2485
 1293ERGO   ROH17403  15.653   2.122   6.261  0.1723  0.0435  0.1338
 1293ERGO    R117404  15.463   2.016   6.442  0.0654  0.1824  0.1050
 1293ERGO    R217405  15.521   1.804   6.610 -0.1556  0.0477  0.0125
 1293ERGO    R317406  15.437   1.976   6.803  0.0513  0.0676  0.0935
 1293ERGO    R417407  15.402   1.710   6.921 -0.2008  0.0469 -0.0045
 1293ERGO    R517408  15.250   1.866   6.905 -0.0507  0.2155  0.0787
 1293ERGO    C117409  15.254   1.817   7.283 -0.0328  0.0652  0.0618
 1293ERGO    C217410  15.188   1.974   7.581  0.0963  0.2589 -0.2891
 1294ERGO   ROH17411  16.507   2.322   6.263 -0.1110 -0.1524  0.0006
 1294ERGO    R117412  16.590   2.210   6.509 -0.0683 -0.0888  0.0151
 1294ERGO    R217413  16.824   2.285   6.635 -0.0860 -0.0007 -0.0068
 1294ERGO    R317414  16.658   2.331   6.846 -0.0893 -0.0161 -0.0059
 1294ERGO    R417415  16.927   2.397   6.946 -0.0780 -0.0799  0.0192
 1294ERGO    R517416  16.784   2.259   7.037 -0.1070 -0.0767 -0.0147
 1294ERGO    C117417  16.831   2.506   7.324 -0.0764 -0.1404  0.0353
 1294ERGO    C217418  17.010   2.642   7.588  0.0899 -0.0996 -0.0453
 1295ERGO   ROH17419  17.794  13.797   9.589  0.2277  0.0363  0.0210
 1295ERGO    R117420  17.765  13.649   9.349 -0.0570  0.0062  0.0700
 1295ERGO    R217421  17.581  13.717   9.154  0.0022  0.2402  0.0892
 1295ERGO    R317422  17.800  13.715   8.992 -0.0288 -0.1523  0.0437
 1295ERGO    R417423  17.572  13.741   8.809 -0.0266  0.1081  0.0804
 1295ERGO    R517424  17.730  13.591   8.800 -0.2497 -0.1318  0.1099
 1295ERGO    C117425  17.772  13.753   8.457 -0.0724 -0.3373  0.0326
 1295ERGO    C217426  17.642  13.731   8.144  0.2406  0.1003  0.0517
 1296ERGO   ROH17427   5.121   6.727   6.838 -0.1895  0.0523 -0.0853
 1296ERGO    R117428   4.972   6.793   7.070 -0.3417  0.0906 -0.1938
 1296ERGO    R217429   5.086   6.914   7.291 -0.4454 -0.0464 -0.0681
 1296ERGO    R317430   4.887   7.096   7.252 -0.2938  0.0996 -0.1849
 1296ERGO    R417431   4.993   7.156   7.519 -0.3308  0.0931 -0.1658
 1296ERGO    R517432   4.785   7.118   7.467 -0.3474  0.2401 -0.2219
 1296ERGO    C117433   4.753   7.468   7.616 -0.1216  0.3114 -0.3324
 1296ERGO    C217434   4.905   7.789   7.783 -0.0953  0.2962 -0.1358
 1297ERGO   ROH17435   4.021   1.945   9.910 -0.0495  0.1118  0.1489
 1297ERGO    R117436   4.129   2.020   9.660 -0.0670  0.0557  0.1258
 1297ERGO    R217437   4.153   1.843   9.449 -0.2023  0.0443  0.1260
 1297ERGO    R317438   4.013   2.034   9.315 -0.1337  0.1132  0.1491
 1297ERGO    R417439   4.163   1.891   9.107 -0.1923  0.0698  0.1287
 1297ERGO    R517440   4.163   2.106   9.142 -0.1068  0.0708  0.1503
 1297ERGO    C117441   4.038   2.098   8.782 -0.1220  0.1493  0.1519
 1297ERGO    C217442   4.044   2.180   8.454  0.1036  0.1163 -0.0159
 1298ERGO   ROH17443   8.436  11.515   6.737 -0.2471 -0.2445  0.0457
 1298ERGO    R117444   8.606  11.585   6.953 -0.2645  0.0634 -0.0366
 1298ERGO    R217445   8.509  11.657   7.201 -0.2782 -0.0726 -0.0022
 1298ERGO    R317446   8.674  11.460   7.288  0.0966  0.2082 -0.0511
 1298ERGO    R417447   8.625  11.626   7.525 -0.3593 -0.0265  0.0319
 1298ERGO    R517448   8.820  11.568   7.444 -0.1943  0.4215  0.0816
 1298ERGO    C117449   8.849  11.422   7.795 -0.0546  0.2639  0.0058
 1298ERGO    C217450   8.862  11.351   8.126 -0.2778  0.2514  0.1100
 1299ERGO   ROH17451   2.186   0.588   9.931 -0.0717  0.0547  0.1022
 1299ERGO    R117452   2.302   0.642   9.679 -0.0675  0.1095  0.1156
 1299ERGO    R217453   2.368   0.442   9.500  0.1406  0.1326  0.1634
 1299ERGO    R317454   2.213   0.587   9.330  0.0474 -0.0301  0.1078
 1299ERGO    R417455   2.418   0.466   9.159  0.1037  0.0097  0.1492
 1299ERGO    R517456   2.368   0.678   9.171 -0.0150 -0.0131  0.0577
 1299ERGO    C117457   2.301   0.616   8.800 -0.0052 -0.2146  0.0888
 1299ERGO    C217458   2.316   0.399   8.470  0.2631 -0.1980  0.0621
 1300ERGO   ROH17459   3.516   2.836   9.824 -0.3038  0.1078  0.0704
 1300ERGO    R117460   3.621   2.897   9.568 -0.1214 -0.1774  0.0742
 1300ERGO    R217461   3.534   2.771   9.338 -0.3419 -0.0614  0.0925
 1300ERGO    R317462   3.492   3.026   9.253  0.2070  0.0149  0.0147
 1300ERGO    R417463   3.511   2.867   9.007 -0.4070 -0.1580  0.0676
 1300ERGO    R517464   3.627   3.045   9.056  0.0839 -0.4097 -0.1206
 1300ERGO    C117465   3.459   3.162   8.735  0.0704 -0.1426 -0.0197
 1300ERGO    C217466   3.565   3.096   8.398  0.2093  0.1476 -0.1017
 1301ERGO   ROH17467   6.148  10.921  10.263  0.0966 -0.2525 -0.1212
 1301ERGO    R117468   6.290  10.876  10.023  0.0770 -0.0846 -0.1638
 1301ERGO    R217469   6.208  10.692   9.834  0.1544 -0.0656 -0.2028
 1301ERGO    R317470   6.222  10.905   9.666 -0.0042 -0.0061 -0.1455
 1301ERGO    R417471   6.168  10.676   9.491  0.1868 -0.0277 -0.2094
 1301ERGO    R517472   6.331  10.820   9.471  0.0836  0.1166 -0.1618
 1301ERGO    C117473   6.158  10.867   9.134  0.0566  0.0500 -0.1594
 1301ERGO    C217474   6.168  10.714   8.760  0.0833  0.0640 -0.1536
 1302ERGO   ROH17475   0.929   7.586   6.250 -0.0955  0.1431  0.0663
 1302ERGO    R117476   0.819   7.701   6.484 -0.0933 -0.0788  0.1792
 1302ERGO    R217477   0.702   7.952   6.485  0.1721  0.0491  0.4782
 1302ERGO    R317478   0.492   7.817   6.592 -0.0301  0.1107  0.1728
 1302ERGO    R417479   0.443   8.097   6.662  0.1264  0.0907  0.3788
 1302ERGO    R517480   0.448   7.929   6.799 -0.1255 -0.0406  0.2372
 1302ERGO    C117481   0.095   8.055   6.865 -0.0900  0.1726  0.0342
 1302ERGO    C217482  -0.154   8.200   7.164 -0.0046  0.0714 -0.0034
 1303ERGO   ROH17483  14.470   3.344  10.109 -0.0016  0.0296 -0.0169
 1303ERGO    R117484  14.407   3.184   9.884 -0.0268  0.0328 -0.0115
 1303ERGO    R217485  14.231   3.267   9.687  0.0514  0.0895 -0.0553
 1303ERGO    R317486  14.440   3.212   9.523  0.0596 -0.0233 -0.0090
 1303ERGO    R417487  14.211   3.239   9.343  0.0893 -0.0134 -0.0501
 1303ERGO    R517488  14.348   3.071   9.353  0.0406 -0.0516  0.0227
 1303ERGO    C117489  14.397   3.172   8.989  0.1190 -0.1791 -0.0034
 1303ERGO    C217490  14.488   3.179   8.664  0.1138 -0.1976 -0.2235
 1304ERGO   ROH17491  14.224  12.638  10.389 -0.1207 -0.1414  0.0211
 1304ERGO    R117492  14.311  12.761  10.149 -0.0909 -0.0507  0.0785
 1304ERGO    R217493  14.518  12.659   9.996 -0.0868 -0.0032  0.0579
 1304ERGO    R317494  14.332  12.668   9.798 -0.0663  0.0909  0.0411
 1304ERGO    R417495  14.587  12.707   9.661  0.0033 -0.3448  0.0231
 1304ERGO    R517496  14.412  12.835   9.648  0.1668 -0.1212 -0.0823
 1304ERGO    C117497  14.452  12.743   9.280  0.0750 -0.4552 -0.0129
 1304ERGO    C217498  14.463  12.760   8.948 -0.0187 -0.0075 -0.0605
 1305ERGO   ROH17499   7.723   1.041   6.121  0.0590 -0.0812  0.0451
 1305ERGO    R117500   7.875   0.977   6.351  0.1822  0.0279 -0.0058
 1305ERGO    R217501   8.044   1.159   6.473 -0.1107  0.2342  0.0914
 1305ERGO    R317502   7.899   1.095   6.694  0.0084 -0.1443  0.0689
 1305ERGO    R417503   8.141   1.222   6.799 -0.1830  0.2181  0.1169
 1305ERGO    R517504   8.062   1.027   6.855  0.1493  0.0384  0.0131
 1305ERGO    C117505   8.062   1.199   7.196 -0.1133 -0.1466  0.1105
 1305ERGO    C217506   7.933   1.268   7.592  0.2283 -0.0157 -0.0021
 1306ERGO   ROH17507   1.095  14.696   6.345 -0.1897 -0.0167  0.1242
 1306ERGO    R117508   0.934  14.538   6.515 -0.1292 -0.0046  0.1952
 1306ERGO    R217509   1.037  14.392   6.726 -0.0387 -0.0695  0.1128
 1306ERGO    R317510   0.852  14.530   6.869  0.0834 -0.0417  0.2437
 1306ERGO    R417511   0.953  14.327   7.055 -0.1292 -0.3373  0.0373
 1306ERGO    R517512   0.744  14.363   7.003 -0.0887 -0.0804  0.0571
 1306ERGO    C117513   0.729  14.417   7.380 -0.0672 -0.4672  0.1161
 1306ERGO    C217514   0.760  14.605   7.650 -0.2051 -0.0478  0.0348
 1307ERGO   ROH17515  13.071  13.487   6.248 -0.2763 -0.0144 -0.0418
 1307ERGO    R117516  12.944  13.458   6.500 -0.5013  0.1043 -0.1414
 1307ERGO    R217517  13.056  13.552   6.735 -0.4386 -0.2844 -0.0188
 1307ERGO    R317518  12.817  13.681   6.759 -0.1861  0.2271 -0.0844
 1307ERGO    R417519  12.930  13.682   7.029 -0.3031 -0.1537 -0.0153
 1307ERGO    R517520  12.733  13.610   6.971 -0.4473  0.2951 -0.1553
 1307ERGO    C117521  12.633  13.878   7.223  0.0128  0.4025 -0.0750
 1307ERGO    C217522  12.537  13.865   7.503 -0.2657 -0.2809  0.2716
 1308ERGO   ROH17523  14.522   9.473   6.245 -0.1631  0.0985  0.0956
 1308ERGO    R117524  14.627   9.501   6.507  0.0661 -0.0223  0.0200
 1308ERGO    R217525  14.506   9.658   6.700  0.3178  0.0147  0.1539
 1308ERGO    R317526  14.516   9.429   6.846  0.2917 -0.0232  0.0957
 1308ERGO    R417527  14.428   9.634   7.036  0.4306 -0.0358  0.1765
 1308ERGO    R517528  14.597   9.498   7.060  0.3933 -0.1006  0.0834
 1308ERGO    C117529  14.392   9.405   7.368  0.4718 -0.1008  0.1349
 1308ERGO    C217530  14.319   9.377   7.680  0.3173 -0.3892 -0.0237
 1309ERGO   ROH17531   1.927   1.765   7.574  0.1296  0.2510 -0.0428
 1309ERGO    R117532   1.961   1.541   7.744  0.1130  0.2955  0.0200
 1309ERGO    R217533   1.824   1.303   7.706  0.0542  0.3117  0.1184
 1309ERGO    R317534   2.074   1.197   7.708  0.0321  0.2599  0.1035
 1309ERGO    R417535   1.895   0.967   7.745 -0.0132  0.2974  0.1168
 1309ERGO    R517536   2.063   1.023   7.873  0.0063  0.2637  0.1053
 1309ERGO    C117537   2.171   0.672   7.771 -0.0733  0.2405  0.1017
 1309ERGO    C217538   2.138   0.317   7.968 -0.0895  0.0978  0.3699
 1310ERGO   ROH17539   1.361   0.904   9.552 -0.0141 -0.0997 -0.0011
 1310ERGO    R117540   1.321   0.820   9.285 -0.0584 -0.0808 -0.0008
 1310ERGO    R217541   1.189   0.975   9.098 -0.0027 -0.0243  0.0048
 1310ERGO    R317542   1.417   0.937   8.954 -0.0225 -0.1154 -0.0023
 1310ERGO    R417543   1.205   0.958   8.753 -0.0243 -0.0726  0.0064
 1310ERGO    R517544   1.349   0.796   8.772 -0.0758 -0.1161  0.0188
 1310ERGO    C117545   1.427   0.911   8.417 -0.0554 -0.1862  0.0006
 1310ERGO    C217546   1.341   1.010   8.095 -0.0664 -0.1237 -0.0468
 1311ERGO   ROH17547  16.952   4.983   6.098 -0.0909 -0.1252  0.1458
 1311ERGO    R117548  16.837   4.914   6.347  0.0566 -0.0868  0.2256
 1311ERGO    R217549  16.975   4.773   6.541  0.1688 -0.0681  0.1633
 1311ERGO    R317550  16.907   4.984   6.698  0.2737 -0.0424  0.1745
 1311ERGO    R417551  16.964   4.767   6.886  0.0065 -0.1259  0.1575
 1311ERGO    R517552  16.782   4.887   6.877  0.1109  0.0271  0.0987
 1311ERGO    C117553  16.893   4.962   7.234  0.0106 -0.1354  0.1646
 1311ERGO    C217554  17.050   5.095   7.443  0.0886  0.1621  0.0607
 1312ERGO   ROH17555  17.464   7.929   6.298 -0.1112  0.0327 -0.0061
 1312ERGO    R117556  17.248   7.974   6.475 -0.1407 -0.0076 -0.0318
 1312ERGO    R217557  17.045   7.789   6.512 -0.0818 -0.0681 -0.0153
 1312ERGO    R317558  17.113   7.815   6.774 -0.1127  0.0016 -0.0140
 1312ERGO    R417559  16.857   7.673   6.778 -0.0229 -0.1674 -0.0166
 1312ERGO    R517560  16.905   7.856   6.885 -0.1480 -0.1235 -0.0306
 1312ERGO    C117561  16.811   7.630   7.178 -0.0177 -0.1599 -0.0162
 1312ERGO    C217562  16.913   7.491   7.510  0.1257 -0.1577 -0.1368
 1313ERGO   ROH17563   5.712   4.920  10.276  0.0518  0.1361 -0.1005
 1313ERGO    R117564   5.737   5.132  10.090 -0.0042  0.1379 -0.1052
 1313ERGO    R217565   5.963   5.169   9.935 -0.0158  0.1937 -0.1032
 1313ERGO    R317566   5.784   5.165   9.731 -0.0119  0.1443 -0.1067
 1313ERGO    R417567   6.029   5.276   9.613 -0.1097  0.4567 -0.0380
 1313ERGO    R517568   5.830   5.365   9.607 -0.2015  0.2697  0.0164
 1313ERGO    C117569   5.899   5.334   9.234 -0.1607  0.5635 -0.0032
 1313ERGO    C217570   5.997   5.279   8.945  0.1752 -0.0405 -0.3715
 1314ERGO   ROH17571   8.930  11.522  10.098 -0.0987 -0.0327  0.0250
 1314ERGO    R117572   8.780  11.625   9.881  0.0758  0.0317 -0.0667
 1314ERGO    R217573   8.893  11.785   9.685  0.3078 -0.1778 -0.1082
 1314ERGO    R317574   8.787  11.597   9.518  0.1539 -0.1418 -0.0530
 1314ERGO    R417575   8.816  11.837   9.352  0.0282 -0.1122 -0.0365
 1314ERGO    R517576   8.635  11.720   9.380  0.0428 -0.1060  0.0973
 1314ERGO    C117577   8.673  11.691   9.001 -0.2790 -0.0402  0.0571
 1314ERGO    C217578   8.791  11.738   8.674  0.1488  0.0888 -0.0590
 1315ERGO   ROH17579   0.243   6.230   6.141 -0.1105  0.1682  0.0381
 1315ERGO    R117580   0.144   6.138   6.390 -0.0902 -0.1918 -0.0799
 1315ERGO    R217581   0.255   5.922   6.523  0.3950  0.0526 -0.0563
 1315ERGO    R317582   0.274   6.101   6.727 -0.2804  0.0571  0.0226
 1315ERGO    R417583   0.333   5.841   6.850  0.3205  0.1664 -0.0111
 1315ERGO    R517584   0.183   5.985   6.916 -0.1444 -0.2536 -0.0988
 1315ERGO    C117585   0.395   5.961   7.232 -0.3570  0.2368  0.0892
 1315ERGO    C217586   0.634   5.923   7.450 -0.1099  0.2076 -0.2047
 1316ERGO   ROH17587   0.334   1.306   9.513  0.0514 -0.3284 -0.0026
 1316ERGO    R117588   0.218   1.204   9.275  0.0761 -0.1930 -0.0736
 1316ERGO    R217589   0.254   1.323   9.029  0.0792 -0.0358  0.0025
 1316ERGO    R317590   0.337   1.074   8.957  0.1079  0.0161 -0.1486
 1316ERGO    R417591   0.320   1.223   8.705 -0.0033  0.1398 -0.0700
 1316ERGO    R517592   0.225   1.032   8.749  0.0500  0.0971 -0.1347
 1316ERGO    C117593   0.437   0.932   8.448 -0.0244  0.2908 -0.2540
 1316ERGO    C217594   0.336   0.798   8.075 -0.0662 -0.1182  0.1138
 1317ERGO   ROH17595   5.575  14.919   9.971  0.2173  0.2149 -0.0250
 1317ERGO    R117596   5.540  15.072   9.736  0.2044  0.1229 -0.0834
 1317ERGO    R217597   5.722  15.068   9.528  0.1158 -0.0794 -0.1609
 1317ERGO    R317598   5.504  15.004   9.380  0.0154 -0.0270 -0.0372
 1317ERGO    R417599   5.712  15.064   9.183 -0.0645 -0.1351 -0.1560
 1317ERGO    R517600   5.513  15.153   9.192 -0.0285 -0.0625 -0.0678
 1317ERGO    C117601   5.501  15.001   8.842 -0.2638 -0.1184 -0.0370
 1317ERGO    C217602   5.476  14.991   8.441  0.1118  0.0008  0.2876
 1318ERGO   ROH17603   7.973   2.272   9.574 -0.0836 -0.0452  0.0759
 1318ERGO    R117604   7.984   2.102   9.348 -0.2368  0.0479 -0.0028
 1318ERGO    R217605   7.828   2.143   9.124 -0.0223  0.4457 -0.0895
 1318ERGO    R317606   8.067   2.137   8.995  0.0612  0.0863  0.0679
 1318ERGO    R417607   7.871   2.195   8.785  0.2458  0.0228 -0.1286
 1318ERGO    R517608   8.019   2.035   8.784  0.1092 -0.1140  0.1506
 1318ERGO    C117609   8.121   2.221   8.467  0.4803 -0.5607 -0.0034
 1318ERGO    C217610   8.108   2.236   8.159 -0.2270  0.0547  0.0808
 1319ERGO   ROH17611   6.805   3.054   9.814  0.0523 -0.2196 -0.1218
 1319ERGO    R117612   6.896   3.036   9.546  0.0057 -0.2999 -0.1321
 1319ERGO    R217613   6.766   2.886   9.354 -0.2474 -0.0530 -0.1578
 1319ERGO    R317614   6.768   3.120   9.217  0.1103 -0.0167 -0.1030
 1319ERGO    R417615   6.746   2.913   9.010 -0.2803  0.0624 -0.1482
 1319ERGO    R517616   6.895   3.072   9.019 -0.0098 -0.1818 -0.1420
 1319ERGO    C117617   6.736   3.148   8.681  0.0363  0.1636 -0.0912
 1319ERGO    C217618   6.699   3.206   8.208  0.1291 -0.2346 -0.1637
 1320ERGO   ROH17619   6.660  13.201   6.318  0.0819  0.3016 -0.2032
 1320ERGO    R117620   6.734  13.099   6.571 -0.1945  0.1429 -0.1832
 1320ERGO    R217621   6.983  13.142   6.682 -0.2183 -0.1553 -0.0024
 1320ERGO    R317622   6.837  13.236   6.892 -0.2606 -0.0652 -0.0713
 1320ERGO    R417623   7.089  13.146   7.011 -0.2678  0.0309  0.0129
 1320ERGO    R517624   6.889  13.086   7.072 -0.2675  0.0360  0.0149
 1320ERGO    C117625   7.014  13.236   7.399 -0.3363  0.2241 -0.0428
 1320ERGO    C217626   7.187  13.232   7.685  0.3731  0.1033  0.0557
 1321ERGO   ROH17627   4.189  17.457   6.241 -0.3331 -0.3161 -0.0129
 1321ERGO    R117628   4.069  17.423   6.494 -0.1247 -0.1848  0.1072
 1321ERGO    R217629   4.216  17.408   6.728  0.0667 -0.0143  0.0029
 1321ERGO    R317630   4.050  17.610   6.806  0.0911  0.0028  0.0092
 1321ERGO    R417631   4.193  17.533   7.050 -0.0387 -0.1298  0.0405
 1321ERGO    R517632   3.977  17.546   7.025 -0.0224 -0.0586 -0.0477
 1321ERGO    C117633   4.025  17.794   7.310 -0.0772 -0.1811  0.0684
 1321ERGO    C217634   4.095  17.982   7.664  0.0306 -0.1216 -0.0339
 1322ERGO   ROH17635   2.255  11.045   9.997  0.0918 -0.0284 -0.1336
 1322ERGO    R117636   2.219  11.178   9.750  0.1249 -0.0138 -0.1317
 1322ERGO    R217637   2.349  11.101   9.519 -0.0654 -0.1880 -0.1894
 1322ERGO    R317638   2.097  11.091   9.418 -0.1288  0.0810 -0.0646
 1322ERGO    R417639   2.268  11.142   9.185 -0.1490 -0.4603 -0.2046
 1322ERGO    R517640   2.095  11.259   9.247  0.0569 -0.1164 -0.2632
 1322ERGO    C117641   1.985  11.157   8.896 -0.2573 -0.3664 -0.0962
 1322ERGO    C217642   1.850  11.123   8.548  0.0698  0.0735 -0.2315
 1323ERGO   ROH17643   0.695   0.530   6.268 -0.0444 -0.0844  0.1162
 1323ERGO    R117644   0.809   0.559   6.526 -0.0484 -0.0596  0.1167
 1323ERGO    R217645   0.682   0.473   6.756 -0.0556 -0.0414  0.1300
 1323ERGO    R317646   0.914   0.338   6.795 -0.0555 -0.0376  0.1333
 1323ERGO    R417647   0.820   0.405   7.064  0.0717  0.1405  0.1141
 1323ERGO    R517648   1.017   0.448   6.981  0.0339  0.0631  0.0145
 1323ERGO    C117649   1.119   0.237   7.281  0.1459  0.2500  0.1080
 1323ERGO    C217650   1.391   0.195   7.563  0.0080  0.2138  0.0603
 1324ERGO   ROH17651   3.676   1.536   6.642  0.0202 -0.1193  0.0084
 1324ERGO    R117652   3.849   1.559   6.865  0.0176 -0.1540  0.0154
 1324ERGO    R217653   3.990   1.790   6.922  0.0558 -0.1730  0.0294
 1324ERGO    R317654   3.869   1.764   7.164  0.0372 -0.1653  0.0196
 1324ERGO    R417655   4.121   1.900   7.222 -0.0584 -0.0098  0.0204
 1324ERGO    R517656   4.048   1.718   7.316  0.0332 -0.0165  0.0630
 1324ERGO    C117657   4.085   1.939   7.625 -0.1424  0.0924  0.0059
 1324ERGO    C217658   4.023   2.034   7.936 -0.3348 -0.0339 -0.0276
 1325ERGO   ROH17659  13.536  12.091   6.556 -0.1493 -0.0689  0.1414
 1325ERGO    R117660  13.474  12.056   6.830 -0.3016 -0.1661  0.0956
 1325ERGO    R217661  13.486  12.263   7.013 -0.1233 -0.2924  0.2303
 1325ERGO    R317662  13.229  12.190   7.064 -0.2366 -0.0156  0.0788
 1325ERGO    R417663  13.320  12.323   7.310 -0.0982 -0.4568  0.2787
 1325ERGO    R517664  13.232  12.124   7.295 -0.3676 -0.3252 -0.0028
 1325ERGO    C117665  12.982  12.290   7.531 -0.1899 -0.2927  0.1646
 1325ERGO    C217666  12.778  12.386   7.820 -0.0069  0.0110  0.0031
 1326ERGO   ROH17667   1.262   2.761   9.610  0.1171  0.2121  0.0200
 1326ERGO    R117668   1.196   2.836   9.345  0.0367  0.1620  0.0247
 1326ERGO    R217669   1.319   3.047   9.215 -0.0079  0.1462 -0.0515
 1326ERGO    R317670   1.369   2.859   9.026 -0.0554  0.1109 -0.0279
 1326ERGO    R417671   1.343   3.110   8.876 -0.3045  0.0430 -0.0943
 1326ERGO    R517672   1.234   2.925   8.839 -0.2342 -0.0258  0.0533
 1326ERGO    C117673   1.404   2.970   8.501 -0.5219 -0.0502 -0.0970
 1326ERGO    C217674   1.502   2.939   8.176 -0.0107 -0.0536  0.0472
 1327ERGO   ROH17675   5.982  10.258   7.002  0.1062 -0.0459  0.2441
 1327ERGO    R117676   6.028  10.504   7.134 -0.1229 -0.0377  0.3157
 1327ERGO    R217677   5.954  10.549   7.395  0.0063 -0.2522  0.3957
 1327ERGO    R317678   6.215  10.617   7.425 -0.0553  0.0779  0.2270
 1327ERGO    R417679   6.082  10.719   7.667  0.0163 -0.3213  0.4342
 1327ERGO    R517680   6.208  10.834   7.530 -0.2578 -0.0240  0.4257
 1327ERGO    C117681   6.403  10.882   7.854 -0.0357 -0.0517  0.2981
 1327ERGO    C217682   6.550  11.055   8.147  0.0950  0.0474  0.5188
 1328ERGO   ROH17683   4.291   0.455   6.057 -0.0464  0.2153 -0.1027
 1328ERGO    R117684   4.307   0.289   6.286  0.1501  0.2384 -0.0978
 1328ERGO    R217685   4.418   0.376   6.525 -0.0274  0.4082 -0.0722
 1328ERGO    R317686   4.178   0.296   6.627  0.0623  0.0525 -0.1266
 1328ERGO    R417687   4.371   0.241   6.840  0.1084  0.2403 -0.1229
 1328ERGO    R517688   4.230   0.100   6.753  0.3073  0.0773 -0.1856
 1328ERGO    C117689   4.120   0.088   7.118  0.2717 -0.1914 -0.2037
 1328ERGO    C217690   4.126   0.123   7.450 -0.0868  0.2290  0.0973
 1329ERGO   ROH17691   3.854   1.106   9.776  0.1302 -0.1555 -0.1060
 1329ERGO    R117692   3.689   1.034   9.557 -0.0263  0.2021 -0.1146
 1329ERGO    R217693   3.639   1.205   9.347  0.4158  0.3023 -0.1583
 1329ERGO    R317694   3.730   0.997   9.197 -0.0604  0.0408 -0.1005
 1329ERGO    R417695   3.641   1.198   9.001  0.7764  0.3734 -0.1607
 1329ERGO    R517696   3.579   0.989   9.011  0.1089  0.5523 -0.2708
 1329ERGO    C117697   3.727   0.998   8.660  0.5392  0.1693 -0.1077
 1329ERGO    C217698   3.658   0.853   8.288 -0.0100 -0.0895  0.5150
 1330ERGO   ROH17699  18.322   3.159   6.380  0.1182  0.0126  0.1330
 1330ERGO    R117700  18.449   3.056   6.611  0.0237 -0.2596  0.0665
 1330ERGO    R217701  18.424   3.173   6.860  0.4879 -0.1311  0.0554
 1330ERGO    R317702  18.346   2.924   6.934 -0.0930  0.0697  0.1698
 1330ERGO    R417703  18.432   3.052   7.184  0.7110 -0.1495  0.0451
 1330ERGO    R517704  18.502   2.861   7.105  0.0487 -0.3662 -0.0963
 1330ERGO    C117705  18.363   2.748   7.442  0.2958  0.0283  0.1466
 1330ERGO    C217706  18.412   2.745   7.784  0.3913 -0.0916 -0.0454
 1331ERGO   ROH17707   5.174  10.798   6.677 -0.2649 -0.0964  0.0141
 1331ERGO    R117708   5.178  10.826   6.958 -0.1988 -0.1544  0.0203
 1331ERGO    R217709   4.972  10.946   7.099 -0.0435  0.0712  0.0688
 1331ERGO    R317710   4.975  10.713   7.238 -0.3088  0.0360  0.0176
 1331ERGO    R417711   4.851  10.906   7.420  0.0994  0.1858  0.1373
 1331ERGO    R517712   5.022  10.778   7.463 -0.0657 -0.0829  0.0015
 1331ERGO    C117713   4.783  10.664   7.738 -0.0665  0.2196  0.1291
 1331ERGO    C217714   4.560  10.527   7.966 -0.2529  0.0714  0.2195
 1332ERGO   ROH17715   7.977   8.361  10.241  0.0322  0.0025  0.1730
 1332ERGO    R117716   8.037   8.496  10.000 -0.2177  0.0063  0.1095
 1332ERGO    R217717   8.286   8.486   9.880 -0.1888  0.4006  0.1063
 1332ERGO    R317718   8.142   8.404   9.664 -0.0597  0.0390  0.1519
 1332ERGO    R417719   8.380   8.532   9.551 -0.3368  0.4819  0.0754
 1332ERGO    R517720   8.173   8.578   9.503 -0.4384  0.0479  0.0886
 1332ERGO    C117721   8.301   8.483   9.156 -0.3018  0.1897  0.1001
 1332ERGO    C217722   8.282   8.523   8.762  0.2418 -0.2768 -0.1965
 1333ERGO   ROH17723   4.855   2.456   9.870 -0.0838  0.0135  0.0192
 1333ERGO    R117724   4.957   2.553   9.625 -0.1552  0.0788  0.0154
 1333ERGO    R217725   5.026   2.385   9.416  0.0168  0.1162  0.0434
 1333ERGO    R317726   4.857   2.544   9.275 -0.1219 -0.0582  0.0077
 1333ERGO    R417727   5.000   2.392   9.071  0.1299  0.1299  0.0343
 1333ERGO    R517728   4.981   2.608   9.081 -0.1240  0.1120  0.0587
 1333ERGO    C117729   4.826   2.546   8.739  0.0656 -0.0260 -0.0045
 1333ERGO    C217730   4.769   2.666   8.462 -0.2210 -0.2408 -0.3513
 1334ERGO   ROH17731  14.333  16.074   6.502 -0.1101  0.2065 -0.1656
 1334ERGO    R117732  14.202  16.285   6.638  0.0415  0.1856  0.0155
 1334ERGO    R217733  14.067  16.248   6.876 -0.0000  0.0741 -0.0269
 1334ERGO    R317734  14.230  16.447   6.963  0.1457 -0.1232  0.1648
 1334ERGO    R417735  13.989  16.470   7.128  0.0453  0.0596  0.0003
 1334ERGO    R517736  14.081  16.629   7.010  0.2947  0.0130  0.1236
 1334ERGO    C117737  14.097  16.787   7.357  0.2084 -0.1341  0.1961
 1334ERGO    C217738  14.266  17.034   7.599 -0.2990  0.0492  0.2302
 1335ERGO   ROH17739   6.204   2.492   6.037 -0.1057 -0.0571 -0.1458
 1335ERGO    R117740   6.181   2.256   6.191 -0.0322 -0.0558 -0.1327
 1335ERGO    R217741   6.375   2.176   6.371  0.0424 -0.0410 -0.2061
 1335ERGO    R317742   6.165   2.171   6.544  0.1092 -0.0510 -0.1245
 1335ERGO    R417743   6.362   1.989   6.662  0.2207  0.0658 -0.1278
 1335ERGO    R517744   6.154   1.944   6.618  0.2198 -0.0276 -0.0316
 1335ERGO    C117745   6.159   1.876   6.993  0.3872  0.1187 -0.0055
 1335ERGO    C217746   6.145   1.666   7.237  0.2375  0.2341  0.1067
 1336ERGO   ROH17747   2.291  10.471   8.123  0.0523 -0.0740 -0.0142
 1336ERGO    R117748   2.545  10.591   8.094  0.0456 -0.0733 -0.0875
 1336ERGO    R217749   2.641  10.681   7.851 -0.0635  0.0255 -0.1040
 1336ERGO    R317750   2.675  10.913   7.987  0.0018 -0.0356 -0.0186
 1336ERGO    R417751   2.837  10.945   7.745  0.0179  0.0120  0.0160
 1336ERGO    R517752   2.904  10.971   7.951  0.0131 -0.0848  0.0201
 1336ERGO    C117753   2.983  11.317   7.812  0.1266 -0.0530  0.1662
 1336ERGO    C217754   3.153  11.528   7.715  0.1349  0.1530  0.0447
 1337ERGO   ROH17755   2.166   3.006   9.729  0.0889 -0.0733  0.1056
 1337ERGO    R117756   2.304   3.109   9.505  0.1546 -0.0365  0.1635
 1337ERGO    R217757   2.448   2.948   9.332  0.1646 -0.0123  0.1555
 1337ERGO    R317758   2.291   3.066   9.144  0.2286  0.0628  0.1474
 1337ERGO    R417759   2.505   2.934   8.991 -0.0321 -0.3774  0.1320
 1337ERGO    R517760   2.446   3.144   8.978  0.2617 -0.2935 -0.0034
 1337ERGO    C117761   2.390   3.037   8.616 -0.0864 -0.5195  0.1108
 1337ERGO    C217762   2.469   3.004   8.260  0.0992  0.1517  0.0178
 1338ERGO   ROH17763  17.289  12.150   9.744  0.1531  0.2622  0.0721
 1338ERGO    R117764  17.193  12.114   9.480  0.2221 -0.0765  0.0874
 1338ERGO    R217765  17.159  12.324   9.304 -0.3152 -0.2086  0.0094
 1338ERGO    R317766  17.316  12.173   9.143  0.0676  0.1161  0.0638
 1338ERGO    R417767  17.189  12.364   8.962 -0.2634 -0.1471  0.0214
 1338ERGO    R517768  17.189  12.148   8.941  0.1959 -0.1495  0.0157
 1338ERGO    C117769  17.354  12.245   8.612  0.1263  0.1935  0.0792
 1338ERGO    C217770  17.323  12.445   8.433  0.2002  0.1120  0.2719
 1339ERGO   ROH17771   9.679  13.314   6.571 -0.0681 -0.1128 -0.1030
 1339ERGO    R117772   9.859  13.206   6.761  0.0380  0.0084 -0.1336
 1339ERGO    R217773  10.018  13.365   6.922 -0.1743  0.1240 -0.0343
 1339ERGO    R317774   9.902  13.223   7.122 -0.0307 -0.1179 -0.1190
 1339ERGO    R417775  10.134  13.352   7.247 -0.2110  0.1192 -0.0211
 1339ERGO    R517776  10.087  13.139   7.250  0.0560  0.0542 -0.1287
 1339ERGO    C117777  10.093  13.210   7.624 -0.0975 -0.1108 -0.0929
 1339ERGO    C217778  10.030  13.231   7.915 -0.1032  0.1019  0.1849
 1340ERGO   ROH17779  14.417   0.504  10.146  0.3412  0.1200  0.0056
 1340ERGO    R117780  14.387   0.351   9.909  0.2607  0.0901  0.0339
 1340ERGO    R217781  14.184   0.398   9.728  0.1290 -0.0044  0.1475
 1340ERGO    R317782  14.390   0.417   9.551  0.0208  0.0692  0.0282
 1340ERGO    R417783  14.155   0.367   9.385 -0.0446 -0.0248  0.1636
 1340ERGO    R517784  14.340   0.254   9.384 -0.0061  0.0497  0.0612
 1340ERGO    C117785  14.331   0.367   9.020 -0.2474  0.0323  0.0608
 1340ERGO    C217786  14.290   0.427   8.702  0.0176 -0.2097 -0.0517
 1341ERGO   ROH17787  17.513  13.002   6.681 -0.1920 -0.0097  0.3167
 1341ERGO    R117788  17.717  13.025   6.875 -0.1716 -0.1344  0.3109
 1341ERGO    R217789  17.762  12.832   7.067 -0.0891 -0.3060  0.1262
 1341ERGO    R317790  18.015  12.838   6.969 -0.1055 -0.1407  0.0920
 1341ERGO    R417791  18.042  12.728   7.240 -0.0156 -0.2836  0.0208
 1341ERGO    R517792  18.150  12.899   7.158 -0.1024 -0.1916  0.1037
 1341ERGO    C117793  18.444  12.673   7.248  0.0116 -0.1155 -0.0727
 1341ERGO    C217794  18.834  12.636   7.377  0.1666  0.2529  0.1287
 1342ERGO   ROH17795   5.884   9.288  10.078 -0.2078 -0.1837 -0.0394
 1342ERGO    R117796   5.928   9.389   9.817 -0.0489 -0.0839  0.0236
 1342ERGO    R217797   6.153   9.328   9.669 -0.0764 -0.2384  0.0356
 1342ERGO    R317798   5.971   9.250   9.483 -0.1248  0.0503 -0.0415
 1342ERGO    R417799   6.219   9.292   9.332  0.0048 -0.3429  0.0623
 1342ERGO    R517800   6.024   9.381   9.290  0.1623 -0.0336 -0.0206
 1342ERGO    C117801   6.085   9.199   8.961  0.0067 -0.1329  0.0053
 1342ERGO    C217802   6.169   9.133   8.584  0.0084  0.0714 -0.0588
 1343ERGO   ROH17803  10.908   8.590   6.663  0.0689  0.1550  0.0730
 1343ERGO    R117804  10.804   8.611   6.926  0.0286  0.0269  0.0689
 1343ERGO    R217805  10.898   8.459   7.136  0.1808  0.1108  0.0660
 1343ERGO    R317806  10.932   8.701   7.254 -0.0843  0.1434  0.0810
 1343ERGO    R417807  10.883   8.517   7.476  0.1346  0.0763  0.0697
 1343ERGO    R517808  10.776   8.702   7.435 -0.0748 -0.0413  0.0890
 1343ERGO    C117809  10.906   8.779   7.785 -0.1413  0.0867  0.0859
 1343ERGO    C217810  10.936   8.707   8.089  0.0679 -0.1412 -0.2250
 1344ERGO   ROH17811  11.771  11.725   6.814 -0.1797  0.0493  0.1761
 1344ERGO    R117812  11.918  11.756   7.053 -0.1107 -0.0776  0.1500
 1344ERGO    R217813  11.845  11.933   7.252  0.0970  0.0145  0.1445
 1344ERGO    R317814  11.857  11.712   7.409 -0.0992  0.0147  0.1639
 1344ERGO    R417815  11.902  11.937   7.593  0.0492 -0.0040  0.1534
 1344ERGO    R517816  12.030  11.762   7.568 -0.0822 -0.1074  0.1862
 1344ERGO    C117817  11.946  11.732   7.939 -0.1630 -0.0145  0.1769
 1344ERGO    C217818  11.834  11.544   8.210 -0.0050 -0.2049 -0.0802
 1345W        W17819   6.183  16.513   0.287 -0.1425  0.5545 -0.1269
 1346W        W17820  14.817   9.498   2.431  0.1310 -0.1599 -0.2015
 1347W        W17821  17.345   9.330   3.116  0.2605  0.1436  0.0456
 1348W        W17822  13.842  11.896  10.824  0.2726  0.1122  0.1392
 1349W        W17823  15.953   6.775  11.841 -0.0983 -0.0199 -0.0142
 1350W        W17824   1.520  10.668   3.320 -0.0818 -0.1686 -0.0718
 1351W        W17825   1.253   2.363   2.909 -0.0100  0.3074 -0.1177
 1352W        W17826  13.781   4.173  13.643 -0.0688  0.0079  0.0245
 1353W        W17827  17.369  15.123  13.755 -0.5045 -0.0366 -0.1597
 1354W        W17828   5.208   2.569  15.248  0.0715 -0.1583 -0.2382
 1355W        W17829   6.005   7.899  11.830 -0.2752 -0.0445 -0.0652
 1356W        W17830   8.058   5.867  12.465  0.0726  0.3662 -0.1333
 1357W        W17831   9.801  18.120  11.616 -0.0759  0.0146  0.4248
 1358W        W17832   1.320   9.966  11.699 -0.4173 -0.0630  0.1245
 1359W        W17833   1.804  16.350  15.517  0.0330 -0.0816  0.0789
 1360W        W17834   1.397  14.100   5.043  0.0983 -0.0631 -0.0190
 1361W        W17835  12.361   4.965  12.665 -0.1200 -0.0737  0.1377
 1362W        W17836  14.753   4.819  14.787 -0.1338 -0.1979 -0.1471
 1363W        W17837   8.231  15.314   3.931 -0.1656 -0.0676  0.0318
 1364W        W17838   6.767   1.038   1.077  0.1511 -0.1533 -0.0598
 1365W        W17839   1.895   4.695  14.326 -0.1611  0.5845 -0.1119
 1366W        W17840   2.738   3.180  14.206  0.0900  0.0966  0.1851
 1367W        W17841  13.354   4.028  11.511 -0.0356  0.2813  0.0238
 1368W        W17842  11.120   7.164   2.138  0.0733  0.3952 -0.1701
 1369W        W17843   5.683   2.720   0.076  0.1081  0.1579 -0.3193
 1370W        W17844   6.253  18.178   5.509  0.1277 -0.2555 -0.1599
 1371W        W17845  17.531  18.235  15.712  0.0332  0.0032 -0.1985
 1372W        W17846   4.859   3.568   4.478  0.4552 -0.3484  0.1923
 1373W        W17847   8.413  12.334  13.482  0.0162  0.1288 -0.3864
 1374W        W17848   0.115   9.150  11.345  0.1117 -0.2602  0.1527
 1375W        W17849   1.613   2.168   3.518 -0.2382 -0.2271 -0.0728
 1376W        W17850   3.445  15.990   2.684  0.3624  0.0306  0.1729
 1377W        W17851   5.296   2.303   1.914  0.1429  0.1059  0.3795
 1378W        W17852  14.010   7.383  12.698 -0.1636 -0.1538 -0.3938
 1379W        W17853   5.592   3.255  15.515  0.0397 -0.0634  0.2357
 1380W        W17854   2.947   6.939  13.570  0.1769  0.1026 -0.0666
 1381W        W17855  10.850   8.296  12.093 -0.0210 -0.1107 -0.1663
 1382W        W17856   3.233  11.340  13.070 -0.0890 -0.0952 -0.3085
 1383W        W17857  16.174   4.921   5.075 -0.1585 -0.0561 -0.6181
 1384W        W17858  14.930  13.467   5.290 -0.2352  0.0954  0.1464
 1385W        W17859   4.960   4.431  15.282 -0.2664 -0.1489 -0.1172
 1386W        W17860   0.769   9.294   4.949  0.1088 -0.0189 -0.2309
 1387W        W17861   3.502   8.517   3.141 -0.1795  0.0315 -0.2591
 1388W        W17862  13.092   0.392   0.235  0.1582  0.0101 -0.1024
 1389W        W17863   8.013   2.534  13.941 -0.0340  0.0594 -0.1966
 1390W        W17864  10.331   2.008  14.742 -0.2427 -0.0888 -0.0503
 1391W        W17865   0.728   3.890   3.714 -0.2405 -0.3229  0.2540
 1392W        W17866   0.476   4.335   5.134 -0.1930 -0.0607  0.0590
 1393W        W17867   3.756   0.664  12.217  0.2639 -0.0000  0.1593
 1394W        W17868   6.194   7.436  10.777 -0.0119 -0.0789 -0.0226
 1395W        W17869  16.573  11.094  16.258 -0.2268  0.0332 -0.0324
 1396W        W17870  16.074  12.338   1.602  0.0507 -0.1940  0.1391
 1397W        W17871   8.821   5.624   5.167  0.1118 -0.0520 -0.0226
 1398W        W17872   5.414   4.280  12.345  0.0530 -0.0583  0.1209
 1399W        W17873   3.303   5.939  16.314  0.2253  0.1275  0.1245
 1400W        W17874   4.012  15.526   4.371  0.0679  0.2777  0.1644
 1401W        W17875  15.259  13.492   2.990  0.1424 -0.1308 -0.1590
 1402W        W17876  14.540  17.565   2.388 -0.2518  0.2146 -0.0057
 1403W        W17877  11.170   4.252   1.233 -0.3191  0.2474 -0.3901
 1404W        W17878  10.839  16.229  16.302  0.1130 -0.0498 -0.0105
 1405W        W17879   8.510   1.979  14.397  0.2730 -0.2983  0.1168
 1406W        W17880   0.496  17.471   0.368 -0.0857 -0.4700 -0.0953
 1407W        W17881   8.329   8.505  14.055 -0.0258 -0.1539  0.0523
 1408W        W17882   6.932   3.330  14.402 -0.4196 -0.1389  0.2693
 1409W        W17883  16.428   6.461   0.611  0.0919 -0.0107  0.0355
 1410W        W17884  13.499   8.635  16.086 -0.0361  0.0525  0.2973
 1411W        W17885  12.851  10.832  11.125 -0.0645 -0.2553  0.0222
 1412W        W17886  12.641   2.502   2.148  0.3119 -0.0022  0.0729
 1413W        W17887  15.297  17.078   4.711 -0.0316 -0.0757 -0.0983
 1414W        W17888   5.463   1.155  12.798  0.0250 -0.1271  0.2637
 1415W        W17889   4.055  12.277  15.070 -0.0376  0.1690 -0.3582
 1416W        W17890  13.647  17.311   3.741 -0.1452 -0.2538  0.1936
 1417W        W17891   9.596  16.850  12.636  0.0209  0.0828  0.1977
 1418W        W17892  17.871  11.121   1.576  0.3054  0.0028  0.0648
 1419W        W17893   1.206  17.283   3.885 -0.1143  0.0855 -0.1254
 1420W        W17894  17.452   7.062   2.387  0.1977  0.2231  0.3504
 1421W        W17895   9.347  11.101   2.779  0.0838  0.2411  0.2018
 1422W        W17896  12.284  11.715   0.626 -0.3251  0.0244 -0.0560
 1423W        W17897  17.887   1.541  13.423  0.1281  0.2506  0.0107
 1424W        W17898   7.153  13.839  13.226  0.1507 -0.2146 -0.2249
 1425W        W17899  14.173   4.782   1.113  0.0909  0.0477  0.1304
 1426W        W17900   1.003   7.048   5.879  0.0123  0.2528 -0.2697
 1427W        W17901   9.831   5.127   3.674 -0.1346  0.0484 -0.2304
 1428W        W17902   8.742   9.073   5.307 -0.1206  0.3710 -0.2949
 1429W        W17903   8.124   0.629   3.811  0.1235 -0.2642 -0.1473
 1430W        W17904  14.583  17.024   0.785  0.3441  0.2547  0.6386
 1431W        W17905   5.141  17.342   3.351 -0.1848  0.0056 -0.2290
 1432W        W17906  17.314   1.321   2.323 -0.0031  0.0172  0.3470
 1433W        W17907   1.377  14.979   0.629 -0.1955 -0.2246 -0.0708
 1434W        W17908  15.374   7.593  13.755 -0.1543 -0.4664  0.1614
 1435W        W17909   7.150   2.175  12.719 -0.0184  0.1385 -0.1138
 1436W        W17910   7.842   5.244  13.696 -0.0659  0.0993  0.0074
 1437W        W17911   1.323  10.672  12.280 -0.1062  0.0428 -0.1013
 1438W        W17912   6.958   3.779  13.108 -0.0630  0.1601  0.2376
 1439W        W17913   0.854  13.333   2.278  0.1469 -0.0241  0.1315
 1440W        W17914  10.431   5.433  13.292  0.0368  0.1188 -0.0099
 1441W        W17915   8.511   9.296   4.655 -0.1284 -0.1046 -0.1719
 1442W        W17916  11.824  10.977  15.879 -0.2104  0.2398 -0.0496
 1443W        W17917   6.441   4.871  16.251 -0.0645 -0.2014 -0.0391
 1444W        W17918  10.302  10.261  14.110  0.0237 -0.0074  0.1091
 1445W        W17919  15.653  16.364   2.735 -0.1736  0.2623 -0.0533
 1446W        W17920  12.633  16.657   1.505  0.0538 -0.1093 -0.0182
 1447W        W17921  15.285   6.020  15.204 -0.1966  0.0828 -0.0959
 1448W        W17922   5.652   4.074   3.142  0.0502  0.0528  0.5332
 1449W        W17923  13.448   5.291  15.093  0.0992  0.1138 -0.1765
 1450W        W17924  14.461  14.889   4.467 -0.0561 -0.1980 -0.1000
 1451W        W17925  15.385   5.702   1.484  0.3199  0.1417  0.0825
 1452W        W17926   7.342  17.563  12.703 -0.0098  0.1961  0.0145
 1453W        W17927   5.785  14.995   4.884 -0.0250  0.0294 -0.1938
 1454W        W17928   0.448  12.218  16.214  0.0878  0.3338 -0.1289
 1455W        W17929   2.419  12.210   4.209  0.1153 -0.0606  0.2545
 1456W        W17930   3.945  14.458  14.350 -0.0166 -0.0946 -0.2428
 1457W        W17931  17.784  16.195  12.464  0.0294 -0.1461  0.0054
 1458W        W17932  17.603   3.171  12.091  0.1147  0.2624  0.3760
 1459W        W17933   3.927  16.974  14.008  0.2854 -0.2244 -0.2648
 1460W        W17934  14.938  14.946  13.392  0.2611  0.0317  0.0145
 1461W        W17935   5.571   2.206   0.039 -0.1178  0.0359  0.0854
 1462W        W17936   8.195   6.680  14.354  0.0371 -0.1166  0.2747
 1463W        W17937  12.822   7.358   3.731 -0.2874  0.1108  0.0697
 1464W        W17938   5.124   3.303  11.536  0.1305  0.0352  0.1205
 1465W        W17939   6.304  13.658   4.738  0.4217  0.0945 -0.0662
 1466W        W17940   3.810   1.922  12.207  0.0086 -0.2320  0.0079
 1467W        W17941   9.683   7.939  15.208 -0.0142  0.0108  0.0259
 1468W        W17942   2.714   8.981  13.293  0.0832  0.1991 -0.0120
 1469W        W17943  10.528   7.785   2.605 -0.3334  0.1925  0.0567
 1470W        W17944  14.575  12.301  13.402  0.2351 -0.2509  0.0942
 1471W        W17945  10.298   1.611  14.438 -0.0788 -0.0825 -0.1462
 1472W        W17946  18.196   8.169   4.430 -0.0035 -0.2206  0.0388
 1473W        W17947  16.733  12.798  13.321 -0.0934  0.2531 -0.1118
 1474W        W17948  17.951  12.638  15.547  0.0866 -0.1943  0.0602
 1475W        W17949   1.303  15.964  14.693 -0.0023  0.2457  0.0064
 1476W        W17950   9.244  11.228  14.992 -0.3754 -0.0187 -0.0611
 1477W        W17951   8.741   6.308   0.380  0.0357  0.2163 -0.1107
 1478W        W17952  18.003   8.784   4.020 -0.2568  0.6837  0.0654
 1479W        W17953   1.307  11.304   0.143 -0.2561  0.1257  0.0702
 1480W        W17954   3.033   7.167   1.552  0.0347 -0.0270  0.1869
 1481W        W17955   2.806  11.591  13.366 -0.5197 -0.0047  0.2648
 1482W        W17956  10.998   9.529   2.275  0.2075 -0.0241  0.0649
 1483W        W17957  12.913   0.044   3.051  0.0824 -0.0253 -0.0093
 1484W        W17958  16.698  15.143  15.245  0.1000 -0.5602 -0.4622
 1485W        W17959  14.129   5.201   1.841  0.1983 -0.0539  0.2347
 1486W        W17960   3.998   3.273  14.205  0.2722  0.0226 -0.1508
 1487W        W17961  15.851   1.994  12.764  0.0637 -0.2343 -0.2823
 1488W        W17962   3.411   2.360  15.869 -0.1973  0.2960  0.0996
 1489W        W17963   7.083   3.979  12.694  0.0219  0.3078 -0.1935
 1490W        W17964  11.391  13.403   1.696 -0.0961  0.2139  0.2681
 1491W        W17965   1.843  16.360   5.104 -0.1185 -0.0128  0.2236
 1492W        W17966  11.793   7.069   0.841  0.0941 -0.3198 -0.1282
 1493W        W17967  13.192  12.854   4.930 -0.2192  0.0422 -0.0728
 1494W        W17968   2.981  15.212  11.668  0.0277  0.1674 -0.0497
 1495W        W17969  15.031   6.416  12.883 -0.2950 -0.2739  0.4077
 1496W        W17970  17.521  17.491   0.318  0.1390  0.1290 -0.1376
 1497W        W17971  17.727  12.486   4.841 -0.1022  0.0544 -0.1669
 1498W        W17972   3.113   4.659  11.028 -0.0054 -0.3871  0.1741
 1499W        W17973  13.217   2.494  14.176 -0.0015 -0.0451 -0.1626
 1500W        W17974   8.923  11.525   0.173 -0.1270 -0.1202  0.1584
 1501W        W17975   4.306  18.136   5.125 -0.1193  0.0573 -0.0120
 1502W        W17976  10.465  12.031   1.054 -0.1052  0.0260  0.0303
 1503W        W17977  14.440  11.555  15.891 -0.1916  0.1873 -0.2004
 1504W        W17978   7.309   2.036  11.860 -0.0733 -0.0525 -0.0829
 1505W        W17979   3.729   4.709   3.640  0.1094  0.4668  0.0449
 1506W        W17980   0.696  13.316   4.495 -0.1888 -0.0195 -0.0082
 1507W        W17981  16.845  16.089   1.276 -0.0416 -0.1609 -0.1629
 1508W        W17982   2.782  15.341  14.395  0.1203 -0.0210 -0.0411
 1509W        W17983   1.836  18.190  15.290 -0.1366  0.0943 -0.3025
 1510W        W17984  15.538   5.707   2.020 -0.3081 -0.2510  0.1361
 1511W        W17985  15.455   0.682  12.900  0.1145  0.1283 -0.3086
 1512W        W17986  13.640   9.999   2.263  0.3361 -0.0499  0.0025
 1513W        W17987  16.507   5.907  13.170 -0.2474 -0.1780  0.1392
 1514W        W17988  10.851  17.954   4.156  0.0895 -0.0297 -0.0418
 1515W        W17989   9.429   5.053   6.060 -0.0247 -0.2804  0.0938
 1516W        W17990  15.089   3.106   1.773  0.0092 -0.0862 -0.2639
 1517W        W17991   0.490   6.710   3.062  0.0650  0.3096 -0.3283
 1518W        W17992  10.253  16.311  13.091 -0.1484  0.0517 -0.2151
 1519W        W17993   0.086  16.723  13.419 -0.2072  0.0983 -0.2041
 1520W        W17994   7.944   8.929  14.099  0.0775 -0.0197  0.1606
 1521W        W17995   0.106   0.600   3.872 -0.0784 -0.0403  0.0645
 1522W        W17996  10.364  16.734  12.817  0.3715  0.1029  0.0502
 1523W        W17997  10.341  16.943  14.051 -0.0021  0.2294  0.2038
 1524W        W17998   5.276   9.426   5.556  0.2646 -0.1622 -0.1712
 1525W        W17999   1.791  15.059  10.810  0.0131 -0.0467  0.1237
 1526W        W18000  18.119   0.576   0.359  0.0605 -0.0707  0.1422
 1527W        W18001   6.836   1.879   3.246 -0.1469  0.3665 -0.3421
 1528W        W18002  18.202   8.945   4.553 -0.2393 -0.1598  0.2044
 1529W        W18003   2.508   0.504  13.338 -0.1864 -0.2279  0.1928
 1530W        W18004  17.684   1.322  12.959 -0.2604  0.0682  0.1169
 1531W        W18005  12.868   7.166   1.468  0.0046  0.0295  0.1766
 1532W        W18006   1.809  16.663  13.795  0.2854  0.2765  0.1552
 1533W        W18007  14.825   7.283  13.644 -0.3368  0.0263  0.1349
 1534W        W18008  15.897   0.031   4.768 -0.2025  0.2497 -0.2668
 1535W        W18009  11.308   4.605   5.095 -0.0297  0.0186 -0.3005
 1536W        W18010  11.015  17.732   0.268  0.0010 -0.0277 -0.2680
 1537W        W18011   7.362   8.276   5.156 -0.0918  0.1523  0.0108
 1538W        W18012   2.324   3.882  14.738 -0.0087  0.5364  0.2129
 1539W        W18013  18.043   6.656   1.915  0.0533 -0.0579  0.0473
 1540W        W18014  13.618   4.061   0.642 -0.1345 -0.1010 -0.1623
 1541W        W18015  14.391  15.254  13.443  0.0563  0.0002 -0.0699
 1542W        W18016  18.010  12.029   3.133 -0.1833 -0.1742  0.3064
 1543W        W18017   4.503   8.235   1.615 -0.0987 -0.0080  0.1459
 1544W        W18018   2.973   4.985  14.200  0.1648 -0.0661  0.0751
 1545W        W18019  16.130  11.568   6.094 -0.1061  0.0251 -0.3990
 1546W        W18020  13.233  13.303   0.596  0.3934 -0.0505 -0.1376
 1547W        W18021   8.502   3.991   0.344 -0.0664  0.0788  0.0428
 1548W        W18022   3.640  11.690  13.220  0.1232  0.1671 -0.0309
 1549W        W18023   2.004   4.290   4.186 -0.2025  0.3782  0.0586
 1550W        W18024   0.594  13.068  14.002  0.1632  0.1923 -0.0578
 1551W        W18025  17.253  13.253  14.615  0.0286  0.0286 -0.0573
 1552W        W18026   3.205  15.918   1.984  0.0943 -0.0877  0.1085
 1553W        W18027  12.974  15.662   3.985 -0.1372  0.1309  0.0676
 1554W        W18028  12.573   9.320   1.740  0.0350  0.0148 -0.1959
 1555W        W18029  10.396  13.678  13.532 -0.0320 -0.0173  0.0314
 1556W        W18030  14.020   6.479  16.239 -0.0290  0.3073  0.1929
 1557W        W18031  14.856  11.552   3.869 -0.2177 -0.0794 -0.0684
 1558W        W18032   2.660  10.502  13.238  0.2796 -0.0845  0.0879
 1559W        W18033   7.886   5.471  14.681 -0.2123  0.2171  0.2208
 1560W        W18034  17.152  14.091   2.701 -0.0907  0.0563  0.2018
 1561W        W18035   2.149   4.880  11.231  0.3565  0.0851 -0.1886
 1562W        W18036  18.099   0.721  15.482 -0.1396  0.2560  0.2618
 1563W        W18037   6.626   5.769   4.571  0.2042  0.2791 -0.0711
 1564W        W18038  14.422   4.771   1.615 -0.2584 -0.0828  0.0251
 1565W        W18039   9.886  13.176   4.903 -0.0751  0.1649  0.0802
 1566W        W18040  17.508   8.356  13.514 -0.0421  0.0544  0.1659
 1567W        W18041   7.413  12.662  15.884 -0.0240  0.0904 -0.0197
 1568W        W18042   9.226  15.322   4.059 -0.1123  0.0303 -0.5265
 1569W        W18043   0.704   0.331   3.006 -0.5154  0.1289 -0.0937
 1570W        W18044  17.390  10.899   1.462  0.0265 -0.2901 -0.0489
 1571W        W18045   9.183  15.799   4.123  0.0190  0.1514  0.1427
 1572W        W18046  11.343  18.064   0.916  0.2619  0.2659 -0.0202
 1573W        W18047   3.825   2.538   4.517  0.0116  0.0661 -0.0390
 1574W        W18048   4.058   0.307   2.161  0.0783  0.0341  0.1226
 1575W        W18049  14.629   3.681  14.055 -0.2586 -0.2860 -0.3009
 1576W        W18050   0.207  13.352   3.159 -0.1743  0.0188  0.1112
 1577W        W18051   3.275  16.246  15.429  0.1168 -0.0135  0.2801
 1578W        W18052   4.969   4.322   3.212  0.2524 -0.3223 -0.0359
 1579W        W18053   7.802   0.725  12.592  0.2380 -0.2553 -0.3052
 1580W        W18054   0.068   3.992  13.110 -0.1392 -0.1449 -0.0596
 1581W        W18055  15.643   2.219   4.167 -0.1406 -0.1337  0.0693
 1582W        W18056  13.085  13.389   1.970 -0.1508  0.1772 -0.0948
 1583W        W18057  16.018   1.696   3.088  0.0113  0.0953 -0.0121
 1584W        W18058  12.622   5.714   4.456 -0.2863 -0.1684 -0.0031
 1585W        W18059  11.614  11.788   5.094  0.0847 -0.0724 -0.0025
 1586W        W18060  16.455  15.177  11.526 -0.0447 -0.0992  0.1319
 1587W        W18061  14.174  16.380   0.105  0.2263  0.0910  0.0909
 1588W        W18062   1.041  17.045  15.703 -0.5024 -0.2345  0.3405
 1589W        W18063   2.604  11.947   2.791  0.3051  0.1067 -0.2962
 1590W        W18064   0.667  14.586   6.053  0.0966  0.3235 -0.1349
 1591W        W18065   7.580   4.549  14.830  0.0968 -0.1306 -0.1869
 1592W        W18066   1.786  17.696   0.364 -0.0668 -0.3572 -0.0831
 1593W        W18067   6.237  14.253   5.541 -0.1526  0.0564 -0.1497
 1594W        W18068   2.463   1.679   3.625 -0.0509  0.1713 -0.0369
 1595W        W18069   1.683   9.176   1.980  0.0705  0.0783 -0.1045
 1596W        W18070   5.745   9.981  14.816  0.3304 -0.1340  0.3124
 1597W        W18071  17.627   5.022   1.180  0.1227  0.3491 -0.0152
 1598W        W18072  14.279   2.167   0.645 -0.3564 -0.3267 -0.2201
 1599W        W18073  12.808  12.106   4.286  0.2179 -0.1205 -0.0967
 1600W        W18074   4.588  15.350  13.330 -0.0996  0.2200 -0.0361
 1601W        W18075  17.123   0.073  15.942  0.2212 -0.1095  0.1047
 1602W        W18076   9.427   3.125  13.751  0.1223 -0.0343 -0.1768
 1603W        W18077  16.523  17.605   4.942 -0.4607 -0.1189 -0.0790
 1604W        W18078   2.418   8.594   2.261  0.1583 -0.0375  0.1914
 1605W        W18079   6.693   1.249   0.177 -0.2839 -0.0635  0.0384
 1606W        W18080   0.708   2.144   0.135 -0.2266  0.2255 -0.2233
 1607W        W18081  16.251   2.556   5.023  0.3959 -0.1833 -0.0124
 1608W        W18082   1.236  14.820  13.840  0.2096 -0.1412  0.2636
 1609W        W18083   6.585   3.850  14.520 -0.1706  0.2722  0.2292
 1610W        W18084  14.853  13.035   2.580 -0.1305 -0.0084 -0.4723
 1611W        W18085  11.338   7.495  13.551  0.2234  0.0906 -0.1050
 1612W        W18086   1.291   4.449  12.719 -0.1126 -0.1110 -0.1046
 1613W        W18087   2.728  12.600   5.878  0.0746 -0.0980 -0.1715
 1614W        W18088  17.079   8.794   3.129  0.0918 -0.0012 -0.2604
 1615W        W18089   2.580   2.338  10.121 -0.0787  0.0646 -0.3283
 1616W        W18090  17.427   4.626  14.971  0.1508  0.1299 -0.2002
 1617W        W18091   9.462  15.998  12.875  0.1609  0.4439 -0.0425
 1618W        W18092   6.967   0.217   5.220 -0.0757  0.0039 -0.0251
 1619W        W18093   2.380  18.073   4.998  0.1309 -0.1768  0.0461
 1620W        W18094  12.124  12.159  15.104  0.0232 -0.0729 -0.0576
 1621W        W18095   2.969  10.639   1.956  0.2039  0.1876  0.2577
 1622W        W18096  10.800  17.173   3.307 -0.1049  0.0095  0.0082
 1623W        W18097   7.587  17.488  13.108  0.1384  0.3106  0.2323
 1624W        W18098  17.944   8.370   2.255  0.0596  0.0707 -0.0240
 1625W        W18099   5.100   4.953   4.127 -0.3732  0.1225 -0.0216
 1626W        W18100   2.308   4.565   2.392 -0.0015 -0.0982 -0.1630
 1627W        W18101   1.778   7.729   1.748 -0.1065  0.0230 -0.3467
 1628W        W18102   4.464   4.050  12.192  0.2323 -0.0722 -0.1248
 1629W        W18103   2.660   3.399  15.760 -0.0679 -0.6522  0.1886
 1630W        W18104  13.135   5.671  11.012  0.0527  0.0593  0.1200
 1631W        W18105   6.620  17.685   4.222  0.1809  0.1231  0.3531
 1632W        W18106  11.523  13.927   1.274  0.0727 -0.2046  0.0073
 1633W        W18107  12.019   6.080   0.043 -0.1803 -0.2356 -0.0777
 1634W        W18108  13.035   7.321   0.990 -0.0632  0.0774  0.1295
 1635W        W18109   0.286  13.002   4.831 -0.2646 -0.1292  0.2479
 1636W        W18110  15.176   5.428   4.026  0.1041 -0.0501  0.0203
 1637W        W18111   3.307  10.339  15.658  0.2284  0.2827  0.0826
 1638W        W18112  15.704  17.857   1.730  0.1748 -0.0501  0.1664
 1639W        W18113  13.074   8.602  13.445 -0.3197 -0.1327 -0.1609
 1640W        W18114   1.583   7.719   3.264  0.0075  0.0571 -0.0989
 1641W        W18115  12.723   9.497  15.752 -0.0886  0.1929  0.1477
 1642W        W18116  15.797   4.468  12.173 -0.0283  0.0724 -0.2678
 1643W        W18117   3.449  17.684  15.108  0.0828 -0.2216 -0.1211
 1644W        W18118  17.954  17.672   1.432 -0.0434  0.1420 -0.1872
 1645W        W18119   2.183   3.550   5.720  0.3960 -0.0165 -0.2292
 1646W        W18120  13.910   5.924   4.114 -0.0036  0.0427  0.3165
 1647W        W18121  17.358   8.185  15.153 -0.0427  0.4201  0.0547
 1648W        W18122  14.683   2.764   1.711 -0.0844 -0.3608  0.2368
 1649W        W18123   9.972   0.635   5.379 -0.3091 -0.0946 -0.2370
 1650W        W18124   7.403   4.756   0.849  0.0358 -0.0663 -0.1122
 1651W        W18125  10.338   2.640   5.475  0.0741 -0.0114  0.0301
 1652W        W18126   5.326   8.204  15.012  0.3196 -0.0549  0.0278
 1653W        W18127  12.693  13.147   6.220  0.2397  0.0083  0.2516
 1654W        W18128  13.720   0.432   3.470  0.1410  0.1062  0.1384
 1655W        W18129  14.438  17.566   4.914  0.1271  0.3267 -0.0703
 1656W        W18130   5.010   7.502  16.056  0.0296 -0.0037 -0.1009
 1657W        W18131   2.670   7.951   0.423  0.2076 -0.0791 -0.3370
 1658W        W18132   2.858  18.217  16.189 -0.0786  0.1529  0.3131
 1659W        W18133   9.039   9.023   3.908 -0.3075  0.1825 -0.0545
 1660W        W18134   9.952  10.345  15.138 -0.0856  0.0015 -0.1715
 1661W        W18135   6.564  11.021   2.430 -0.0183 -0.1741  0.0971
 1662W        W18136   2.308  12.565   1.918  0.1777 -0.2826  0.2939
 1663W        W18137   4.248  13.890  14.668 -0.1428 -0.0877  0.2001
 1664W        W18138  15.256  11.807   3.703 -0.2524  0.1685 -0.3154
 1665W        W18139  16.787  14.558   0.868 -0.0903  0.3288  0.0770
 1666W        W18140   9.701  18.224  13.519 -0.0921  0.1340 -0.0448
 1667W        W18141  13.169  16.964   3.217 -0.3014  0.1417 -0.0570
 1668W        W18142   8.828  13.594   4.268  0.3221  0.1026 -0.1253
 1669W        W18143   6.132  10.302   2.472  0.3313  0.0778 -0.0569
 1670W        W18144  15.526  16.911  11.817 -0.1542  0.2059  0.0009
 1671W        W18145   6.711   6.701   5.684  0.1182  0.1686 -0.0251
 1672W        W18146   5.591  13.578   2.179  0.0140  0.3081  0.0023
 1673W        W18147   0.521   5.479   3.382  0.3083  0.2591  0.0537
 1674W        W18148   7.267  16.762   3.440 -0.1080  0.0651 -0.0495
 1675W        W18149   3.614   7.892   1.933 -0.1560  0.0757  0.2913
 1676W        W18150  11.264  12.428  15.961  0.1880 -0.0633 -0.0354
 1677W        W18151  12.877  16.240   4.822 -0.2062 -0.0119  0.0023
 1678W        W18152   4.046   5.553  15.827  0.0230 -0.1635  0.1246
 1679W        W18153  13.117   7.719   3.931 -0.0898  0.1063 -0.2068
 1680W        W18154   7.005   9.774  12.836  0.1919 -0.0373 -0.1558
 1681W        W18155  14.143   8.012   0.353 -0.1648  0.0642  0.1988
 1682W        W18156  17.750   7.963   1.972  0.0975  0.0062  0.3771
 1683W        W18157  11.285   6.864   4.911  0.1194  0.1244  0.0296
 1684W        W18158  10.390   0.708  15.335 -0.0015  0.0205  0.0794
 1685W        W18159  10.275  15.861  11.970 -0.3761 -0.4404  0.2847
 1686W        W18160   4.849   4.843   5.477  0.2843  0.1488  0.0157
 1687W        W18161   1.581  14.766   4.671  0.1604 -0.0612  0.1305
 1688W        W18162   5.171  14.547  13.093  0.0603 -0.0106  0.0988
 1689W        W18163   0.364   8.300  12.980 -0.3033  0.2501  0.1641
 1690W        W18164  17.858  14.899  11.276  0.0560 -0.2055 -0.1072
 1691W        W18165   6.244  17.351   2.630  0.0180  0.1170  0.1690
 1692W        W18166   5.099  16.710   2.600  0.0712  0.0274 -0.2357
 1693W        W18167  15.584   3.083   4.019 -0.1422  0.1030 -0.0921
 1694W        W18168  10.142   6.503  15.638  0.1239 -0.1387  0.0096
 1695W        W18169   9.460  10.028   1.502 -0.0159  0.0345  0.0547
 1696W        W18170  14.019   8.681  14.431  0.2081 -0.1114 -0.3335
 1697W        W18171  10.502  16.659   4.624 -0.0450  0.1306 -0.0942
 1698W        W18172  13.065  14.431   5.298 -0.0973  0.0872 -0.0804
 1699W        W18173   8.260   0.859  13.759  0.3050  0.0178  0.0273
 1700W        W18174   1.911   7.291  12.284  0.0166 -0.1946  0.3361
 1701W        W18175   7.739   2.268  11.020  0.0648  0.0914 -0.2274
 1702W        W18176   5.854   9.803  13.891 -0.3962  0.0403 -0.1356
 1703W        W18177  13.186   9.668   0.513  0.2017  0.0016  0.0167
 1704W        W18178   1.896  13.250   1.568  0.2855 -0.0519 -0.0154
 1705W        W18179  17.828  11.811  16.200  0.0489  0.0542 -0.1864
 1706W        W18180   9.298   3.294  10.966  0.1991  0.0964 -0.0393
 1707W        W18181  15.454   6.119   1.733  0.2133 -0.2848 -0.2300
 1708W        W18182  14.663  14.035  13.443 -0.1011  0.2452  0.0742
 1709W        W18183  10.396  11.508   3.664 -0.0768  0.3959 -0.0557
 1710W        W18184  10.272   8.031   1.288  0.0957  0.0359 -0.2421
 1711W        W18185  11.696   5.332   0.876 -0.0793 -0.1329  0.3104
 1712W        W18186  12.090   1.081   4.781 -0.0755 -0.2656  0.1765
 1713W        W18187   0.762  14.655   2.212 -0.1167 -0.1491 -0.0827
 1714W        W18188   4.964   1.054   5.411  0.2258  0.0098 -0.0726
 1715W        W18189  11.416   7.600   5.393  0.0213  0.1495  0.0734
 1716W        W18190  10.581  10.485  13.762 -0.2961  0.0458  0.0876
 1717W        W18191  13.583   1.598  13.898  0.0675 -0.0771 -0.2450
 1718W        W18192   2.886   4.211  16.268  0.0307 -0.0228  0.0576
 1719W        W18193  16.228   0.699  15.351  0.1339 -0.1559 -0.0379
 1720W        W18194  10.915   3.975  15.149 -0.0514 -0.1685 -0.3186
 1721W        W18195  16.886   8.207   3.526  0.0196  0.0157 -0.1724
 1722W        W18196   3.356   7.308  12.646 -0.0448 -0.1370  0.2129
 1723W        W18197   0.572   7.234  14.858 -0.0596  0.2687  0.1490
 1724W        W18198  13.220  13.614   0.240 -0.0193  0.0732  0.1914
 1725W        W18199  18.230  13.797   2.124 -0.2203  0.0104  0.0621
 1726W        W18200   6.941  16.877  11.093  0.2761  0.1372 -0.1740
 1727W        W18201  14.717   4.766   2.051 -0.3439 -0.1473 -0.3059
 1728W        W18202   7.840   3.814   3.664 -0.1216 -0.2704  0.3570
 1729W        W18203   4.865  10.325   4.044 -0.2366 -0.0107 -0.0632
 1730W        W18204  11.957   9.079  12.919 -0.4612 -0.0691  0.0649
 1731W        W18205  13.711   4.342  12.273  0.0040 -0.3741 -0.0855
 1732W        W18206  10.363   3.638  14.614 -0.0544  0.2997 -0.3944
 1733W        W18207   6.757  11.557  11.936 -0.2908 -0.2728  0.2553
 1734W        W18208   8.846  17.154  12.191  0.2603 -0.1866 -0.0567
 1735W        W18209  14.228  15.735   4.178 -0.2273  0.2114  0.0650
 1736W        W18210   7.313   0.749   3.621  0.0267  0.2227  0.0314
 1737W        W18211   0.830   3.386   4.690 -0.0606 -0.1212 -0.0063
 1738W        W18212   5.824   2.244  11.402 -0.0210 -0.1118  0.3807
 1739W        W18213   9.444  12.188  11.269 -0.0324 -0.0286 -0.0310
 1740W        W18214   0.697   5.884  12.179 -0.0333 -0.6284  0.2462
 1741W        W18215   9.865  12.124  13.686  0.0596 -0.0102  0.0548
 1742W        W18216   1.059  16.770   4.943 -0.1878 -0.0070 -0.1499
 1743W        W18217   9.303   2.633   0.966  0.0620  0.1050 -0.1133
 1744W        W18218  16.689  12.723   4.199 -0.0788 -0.2702 -0.0445
 1745W        W18219  13.353  13.702  13.210  0.0629 -0.0648 -0.0987
 1746W        W18220   9.330   5.175   5.019  0.0295 -0.1735  0.0022
 1747W        W18221   4.608   4.047   1.316 -0.4445  0.1369 -0.0991
 1748W        W18222  13.977  13.266   1.293 -0.1370 -0.0600 -0.1215
 1749W        W18223   7.725  14.190   1.865 -0.0104  0.1988  0.2198
 1750W        W18224   6.605  10.773   4.382 -0.3080  0.0530  0.1249
 1751W        W18225   7.136  10.731   0.283 -0.2720 -0.1564 -0.2412
 1752W        W18226   6.285   9.504   2.140  0.0878 -0.2311  0.1171
 1753W        W18227   3.612   4.706  14.354  0.1810 -0.2024 -0.1938
 1754W        W18228   4.721  12.336   0.971 -0.0802 -0.0576  0.0704
 1755W        W18229  16.471   8.958   2.255 -0.2070  0.0915 -0.1925
 1756W        W18230   6.154   8.870  13.570  0.0407  0.0524 -0.0723
 1757W        W18231   2.044   2.634   0.102 -0.0557 -0.0823  0.1046
 1758W        W18232   4.692   0.904   4.001  0.1809  0.3349 -0.0297
 1759W        W18233  11.980   0.824   2.300 -0.0120  0.1290 -0.0155
 1760W        W18234  13.954   7.003  12.216  0.2871  0.4902  0.2698
 1761W        W18235   0.528   4.018  15.194  0.1230  0.3372 -0.2376
 1762W        W18236   0.203  16.044  12.924  0.1835 -0.1294  0.3744
 1763W        W18237  13.554  11.769   6.208  0.3587  0.0468 -0.0578
 1764W        W18238  12.091   6.872   4.010  0.0675 -0.3137 -0.2704
 1765W        W18239  15.175   0.672   5.161 -0.1408  0.1909  0.5698
 1766W        W18240  12.813   6.103  10.786 -0.2268  0.1178 -0.2098
 1767W        W18241   4.487  18.274  11.938  0.0080 -0.3622 -0.1135
 1768W        W18242  12.562   0.984  12.908 -0.4802  0.2427 -0.0743
 1769W        W18243   0.194   5.255   4.830 -0.0478 -0.2416 -0.2809
 1770W        W18244  13.430   9.316   0.106 -0.0801 -0.1110  0.0118
 1771W        W18245   4.627  11.050  14.551 -0.1301 -0.0877 -0.2653
 1772W        W18246   6.029  16.209  11.722  0.1814  0.2983 -0.1620
 1773W        W18247   7.806   7.239  15.855  0.1266  0.0716 -0.0169
 1774W        W18248   7.808  13.183  14.226 -0.0633  0.0640  0.0092
 1775W        W18249   2.924  12.044  10.613  0.0027 -0.0203  0.2419
 1776W        W18250  11.786  13.021   0.913  0.0958  0.0607 -0.1205
 1777W        W18251   3.793   4.322   4.042  0.1658 -0.0628 -0.2260
 1778W        W18252  12.496  15.780  11.983 -0.1742  0.0683 -0.0817
 1779W        W18253   1.812  13.614   2.674  0.1342 -0.2446 -0.0148
 1780W        W18254   7.694   7.208  13.744 -0.0821  0.0485  0.0919
 1781W        W18255  13.537   2.540   3.147  0.1775  0.3838 -0.1477
 1782W        W18256   7.262   7.315  13.497  0.2093 -0.0891  0.1701
 1783W        W18257   1.110   4.867   1.058 -0.1549 -0.2868 -0.0094
 1784W        W18258   2.685   4.901   2.982  0.0378  0.0616 -0.1381
 1785W        W18259  13.417   3.841  11.059  0.1608  0.1100  0.0881
 1786W        W18260   4.789   2.280   3.891  0.3711  0.0943  0.0912
 1787W        W18261  17.618  17.772  12.766 -0.1986  0.2374  0.1166
 1788W        W18262   2.358   0.242   5.388 -0.5628 -0.2473 -0.0261
 1789W        W18263  11.972  15.518   2.808  0.1966 -0.1125 -0.0482
 1790W        W18264   8.220  14.542  14.715 -0.0702 -0.0236  0.1990
 1791W        W18265   7.542   9.319   5.111 -0.1467 -0.2039 -0.0468
 1792W        W18266   1.416   0.748  13.803  0.0773  0.0197  0.5023
 1793W        W18267   2.545   6.880   5.144 -0.3061 -0.5695  0.0833
 1794W        W18268  14.425  10.982   2.176  0.1634  0.0653  0.1891
 1795W        W18269  13.653   4.812   1.165  0.0814  0.1154 -0.0475
 1796W        W18270  17.579   1.795  11.235  0.1363  0.1227 -0.0476
 1797W        W18271  18.020  15.380   5.801 -0.0130  0.1449  0.1150
 1798W        W18272   7.200   4.312  15.103  0.1330 -0.6015  0.1194
 1799W        W18273   4.390   0.123  11.166  0.5470  0.0921 -0.1586
 1800W        W18274  12.454   9.025  14.563 -0.2431 -0.0372  0.1237
 1801W        W18275  13.128  13.963   3.251 -0.0966  0.0264  0.1084
 1802W        W18276   8.403  18.108  13.931  0.0220  0.3261  0.0981
 1803W        W18277  14.190   3.989   1.818 -0.0618  0.0655 -0.1673
 1804W        W18278  15.314  15.446  12.605 -0.3163 -0.2716  0.1096
 1805W        W18279  17.884   6.819   5.473  0.0580 -0.3986 -0.0958
 1806W        W18280  13.146  16.259   0.387 -0.2059 -0.2981  0.1948
 1807W        W18281  15.413   8.325  14.905 -0.0240  0.1541  0.1084
 1808W        W18282   1.818  14.247  16.163 -0.1956  0.4052  0.0050
 1809W        W18283   5.544  16.657  11.723  0.4819 -0.2557  0.0794
 1810W        W18284  18.096  12.519  11.294 -0.0851 -0.1311  0.0982
 1811W        W18285  11.313  17.172   4.932  0.0124 -0.0514  0.0589
 1812W        W18286   2.410  14.070  14.921 -0.0127 -0.3213 -0.5147
 1813W        W18287  18.101  10.944  15.787 -0.0518 -0.1124  0.2220
 1814W        W18288   5.264   4.206   5.090 -0.0169  0.1673 -0.1727
 1815W        W18289   0.664  12.654  15.535 -0.0831 -0.2358  0.2274
 1816W        W18290   4.116  17.669  12.368  0.1468  0.2520 -0.2581
 1817W        W18291  12.827  16.954   2.673  0.0229  0.0783 -0.1224
 1818W        W18292  15.464   1.233   3.822 -0.3327  0.2669  0.1578
 1819W        W18293  10.531   5.834  12.486 -0.1213  0.1582 -0.0184
 1820W        W18294  15.421   3.396  15.810  0.2581  0.1369  0.1492
 1821W        W18295   1.907  14.365   5.312 -0.1357  0.2409  0.0278
 1822W        W18296  14.244   5.735  16.014 -0.0434 -0.2531  0.1953
 1823W        W18297   5.997  17.030  13.037  0.3249 -0.1010  0.0762
 1824W        W18298  13.351  15.230  12.746  0.0679 -0.2239  0.0384
 1825W        W18299  17.727   8.321  12.798  0.0688 -0.2258 -0.0631
 1826W        W18300   7.977  14.116  12.982  0.2746  0.2715  0.0088
 1827W        W18301  10.558  12.568   2.286 -0.0636 -0.1636 -0.2470
 1828W        W18302   8.922  12.099   4.875  0.0360 -0.0202 -0.2593
 1829W        W18303   7.883   1.619   4.429  0.0035 -0.0721  0.2562
 1830W        W18304  12.295   4.621  14.638  0.0784 -0.0250 -0.0254
 1831W        W18305  15.560  16.838   0.941 -0.2314 -0.0058 -0.0870
 1832W        W18306  14.026   0.687  14.017  0.0934 -0.0333 -0.0676
 1833W        W18307   6.371  11.544   1.764 -0.0185 -0.4555  0.2492
 1834W        W18308   2.425  17.342   2.427  0.1362  0.1988  0.1658
 1835W        W18309   9.809   1.958  11.170  0.0056 -0.1672  0.1254
 1836W        W18310   7.580   4.601   0.395 -0.2864 -0.2846  0.2088
 1837W        W18311  14.846   1.395  15.094  0.3332 -0.1547 -0.0344
 1838W        W18312   3.920  17.265  15.705 -0.3519  0.0393 -0.1035
 1839W        W18313  10.509   1.450   2.024  0.0670 -0.2179  0.4198
 1840W        W18314   8.624  14.900  14.752  0.0963  0.1029  0.0800
 1841W        W18315   5.065   7.253  14.192  0.0451 -0.0936 -0.1143
 1842W        W18316   4.904  16.017  13.815  0.0266  0.0234 -0.1132
 1843W        W18317   9.336   8.268   5.088 -0.0446  0.0502 -0.1073
 1844W        W18318  12.980   2.310   5.508  0.1274  0.0236  0.0260
 1845W        W18319   5.311   3.144  16.203 -0.2928 -0.1214 -0.0019
 1846W        W18320   0.244  15.400  12.344  0.1023 -0.2721 -0.0723
 1847W        W18321   2.413   9.111   2.125 -0.1504  0.1790 -0.1071
 1848W        W18322  10.257   2.900   4.759 -0.1322 -0.0953 -0.2617
 1849W        W18323   3.372   1.908   0.672  0.4933  0.2189  0.1831
 1850W        W18324  13.345  16.922  15.358 -0.0876 -0.0027 -0.0733
 1851W        W18325  17.224   9.457  11.110 -0.2140 -0.1948  0.0465
 1852W        W18326  13.634   3.805   0.230 -0.1039  0.0101  0.1095
 1853W        W18327   5.545  14.790   2.943 -0.0091  0.1092 -0.1251
 1854W        W18328  16.275   1.465  11.363  0.0856  0.0102  0.0356
 1855W        W18329  17.965   6.726  14.932 -0.1866 -0.0570 -0.1048
 1856W        W18330   0.559  15.566   4.445 -0.1977  0.1297 -0.0948
 1857W        W18331  14.161   9.570  11.175  0.2322 -0.0502  0.1036
 1858W        W18332  14.111  11.998   0.578  0.0312  0.0561 -0.1437
 1859W        W18333   7.907   0.739  15.701  0.0075  0.0388  0.1052
 1860W        W18334  12.750   3.550  11.753 -0.0996  0.2549  0.0562
 1861W        W18335  18.189  18.201  14.573  0.1253  0.1586  0.1168
 1862W        W18336   5.221   3.006  15.707 -0.1472 -0.1362  0.1112
 1863W        W18337   2.622  13.528   4.022 -0.0354 -0.1178 -0.2311
 1864W        W18338   4.052  13.194   2.603 -0.0309 -0.0330 -0.1079
 1865W        W18339   9.712  10.974  13.513 -0.1270 -0.2114  0.2203
 1866W        W18340  14.263  18.282   4.623  0.0280 -0.3055  0.1445
 1867W        W18341  11.835  12.638   0.466 -0.4798 -0.3134 -0.1117
 1868W        W18342   5.063  12.430   2.098 -0.2301 -0.0473 -0.0029
 1869W        W18343   3.875   5.698   2.062  0.0035 -0.1065 -0.1263
 1870W        W18344   6.148   1.126  12.789 -0.1612  0.0478  0.1956
 1871W        W18345  10.056   3.133   0.798  0.3085 -0.2951 -0.0068
 1872W        W18346   7.286   9.711   6.200 -0.0618  0.1406 -0.2331
 1873W        W18347   8.416   8.274   3.894 -0.0952 -0.0227 -0.3104
 1874W        W18348  14.104   0.986  13.092  0.2436  0.2594  0.4664
 1875W        W18349   4.012   2.511  11.370  0.0862  0.0898  0.0848
 1876W        W18350  10.515   3.474  11.184  0.2093  0.0480 -0.2389
 1877W        W18351  16.089  13.152  12.197 -0.2089  0.3621 -0.2442
 1878W        W18352   9.731  13.192  12.267 -0.2718 -0.2594  0.1972
 1879W        W18353   1.133   2.858   0.834  0.1514  0.1111  0.2433
 1880W        W18354   5.002  11.343   4.356 -0.1463  0.0319 -0.3614
 1881W        W18355  13.594   9.373   3.259  0.0725 -0.0425  0.2265
 1882W        W18356  13.501  14.963   4.415 -0.2668  0.1522 -0.1692
 1883W        W18357   3.286   5.781  15.249  0.3149  0.1243 -0.0131
 1884W        W18358  12.620   3.729   5.040 -0.0714 -0.0903  0.1896
 1885W        W18359   2.968  16.770   3.228  0.1720 -0.1721 -0.1768
 1886W        W18360  16.244  13.035   3.902  0.0854  0.1074  0.0438
 1887W        W18361   7.993  15.460   5.194 -0.0854  0.0743 -0.1291
 1888W        W18362   2.968  13.704  15.164 -0.0941 -0.2920  0.2727
 1889W        W18363   1.024   9.869   1.154  0.0652 -0.1101 -0.1407
 1890W        W18364   9.997   7.687  13.261  0.0788 -0.0253  0.0981
 1891W        W18365   6.630   1.807  12.846 -0.2384  0.0327 -0.0768
 1892W        W18366   7.238  11.153   2.669 -0.0563 -0.2708 -0.1587
 1893W        W18367  13.567  18.154   4.121 -0.1425 -0.4282 -0.1459
 1894W        W18368   0.578  18.177  11.878 -0.1264 -0.3542 -0.0651
 1895W        W18369   9.938  18.083   2.746 -0.0301 -0.1778  0.0464
 1896W        W18370  12.311   8.853   0.454 -0.2969 -0.1253 -0.0827
 1897W        W18371  10.081   6.761   3.164 -0.1312  0.1586 -0.1630
 1898W        W18372   2.124  17.145  14.425 -0.0475 -0.3955 -0.0696
 1899W        W18373   7.718  12.906  13.182 -0.2682  0.0191 -0.2044
 1900W        W18374   8.501   5.116   1.538  0.1273  0.2003 -0.0255
 1901W        W18375   3.108   4.887   1.836  0.2345 -0.1639  0.0350
 1902W        W18376  12.799   1.865   5.263  0.0835  0.0103 -0.0344
 1903W        W18377  14.333   5.016   5.000  0.0566 -0.0716 -0.1070
 1904W        W18378   2.214   9.495   3.189  0.4830 -0.1149 -0.2094
 1905W        W18379   4.389   0.275  12.306  0.3955 -0.3767 -0.1921
 1906W        W18380   9.760  16.198   1.071 -0.1943  0.0981 -0.2265
 1907W        W18381  14.200  14.852   2.925 -0.0531  0.1402  0.0265
 1908W        W18382   9.173   9.831  15.488  0.0399  0.2321  0.2938
 1909W        W18383  14.319  10.590  12.689  0.3081  0.0913 -0.2258
 1910W        W18384   9.787   4.271   0.434 -0.2101  0.0185  0.0288
 1911W        W18385  14.640   1.310  14.145  0.3291 -0.0335  0.0680
 1912W        W18386  15.535  10.389  14.915 -0.1371  0.2726 -0.0235
 1913W        W18387   8.735   9.292   3.062 -0.0804  0.0930 -0.4366
 1914W        W18388   6.817  10.540  10.819  0.2283 -0.1086 -0.1065
 1915W        W18389   3.715   0.020   1.692  0.1367 -0.0328  0.2432
 1916W        W18390   8.890   0.423  12.690 -0.1060  0.2090 -0.1428
 1917W        W18391  17.966   7.659  14.616  0.0516  0.0170 -0.1474
 1918W        W18392  15.149   7.422   4.286 -0.2074 -0.1796  0.1611
 1919W        W18393   8.370   4.777   5.179  0.1294 -0.2628 -0.0669
 1920W        W18394   7.240  10.312   2.730 -0.1682 -0.1326 -0.1332
 1921W        W18395   3.521  18.228   0.447  0.2771  0.2255  0.0660
 1922W        W18396  10.022  14.683   4.287  0.3772 -0.2328 -0.1804
 1923W        W18397   0.516   2.049  12.788 -0.1761  0.1292 -0.2083
 1924W        W18398   6.345  14.086   5.982 -0.0205 -0.0081 -0.2298
 1925W        W18399   5.149  16.911   4.112 -0.0296 -0.1156  0.2908
 1926W        W18400  13.397   6.024  16.296 -0.1459  0.1153  0.0031
 1927W        W18401  12.618  13.474  12.794 -0.4542 -0.1298 -0.1205
 1928W        W18402  14.055   1.756  15.571  0.1732  0.1942 -0.0443
 1929W        W18403   3.705  14.364  13.510  0.2322  0.0715 -0.1190
 1930W        W18404   6.681  14.545  13.214 -0.2160 -0.0542  0.1780
 1931W        W18405  16.235   6.400   3.746  0.0361  0.0030  0.1091
 1932W        W18406  17.966   0.740   2.227  0.2172  0.2251  0.4349
 1933W        W18407   3.013   6.764   6.140 -0.0718  0.1017 -0.1193
 1934W        W18408   4.966  11.869  14.964  0.1831 -0.2746  0.0078
 1935W        W18409  13.044   4.194   1.369 -0.1613 -0.1173  0.2288
 1936W        W18410   3.867   7.673  11.382  0.2718 -0.0289 -0.0619
 1937W        W18411   1.694   4.447  15.833 -0.2773 -0.1473  0.1077
 1938W        W18412   5.517   4.082   5.554  0.0365  0.0370  0.0561
 1939W        W18413   3.101   0.350  11.236 -0.1031  0.1163  0.1053
 1940W        W18414   8.651  18.113  11.847  0.0184  0.0188 -0.1138
 1941W        W18415  12.007   7.975  11.842 -0.4587  0.2226  0.1490
 1942W        W18416  11.794   8.444   3.175  0.1526  0.2624  0.1827
 1943W        W18417  12.819  13.029  11.103  0.0310  0.4008 -0.0839
 1944W        W18418  14.596   0.331  11.876 -0.1118  0.3215 -0.0512
 1945W        W18419   7.649  11.843  12.798 -0.1718  0.0055  0.1720
 1946W        W18420  14.516   4.471  12.527 -0.0436 -0.0313  0.1913
 1947W        W18421   5.834   0.952  13.151 -0.1296  0.0074 -0.1245
 1948W        W18422   4.467  14.014  10.988 -0.1782 -0.0785 -0.1601
 1949W        W18423   5.067   9.216   2.133 -0.0817 -0.0355  0.0322
 1950W        W18424  16.486  11.527  13.681  0.1862 -0.1288  0.1710
 1951W        W18425  17.103  17.464  12.336  0.0357  0.1265 -0.2200
 1952W        W18426   0.273  16.689  11.068 -0.2737  0.1549 -0.2473
 1953W        W18427   0.694   7.358   0.282  0.1601  0.1852 -0.0409
 1954W        W18428   5.784   5.486   1.048 -0.0869  0.0857  0.0711
 1955W        W18429  15.406  10.762   4.132  0.0815  0.0487 -0.0643
 1956W        W18430  13.819   2.406   0.712 -0.1171  0.3239  0.0772
 1957W        W18431  15.052  14.378   2.256  0.0175  0.0664 -0.1243
 1958W        W18432  14.178   3.619  11.973  0.0804  0.0428 -0.1677
 1959W        W18433   7.694   1.420  11.344  0.3191  0.2183  0.1447
 1960W        W18434   4.943   9.001   0.571  0.1247  0.0660  0.1300
 1961W        W18435  13.917  14.209  15.802 -0.0676  0.2206  0.0216
 1962W        W18436   9.946  12.576   4.638 -0.0681 -0.0487 -0.1422
 1963W        W18437   0.175   5.937  14.119  0.0660  0.1042 -0.0981
 1964W        W18438   4.384   6.257   4.554  0.0847 -0.1936 -0.3578
 1965W        W18439   2.729   7.632  11.727  0.1028 -0.2048 -0.1708
 1966W        W18440   7.616  17.263  13.787 -0.0307 -0.2332 -0.4035
 1967W        W18441  14.523  16.137  16.120 -0.0554  0.0189  0.0045
 1968W        W18442  15.288   8.622  16.327 -0.0243 -0.0959 -0.2803
 1969W        W18443   5.358  16.076   5.379 -0.1213  0.1177 -0.2085
 1970W        W18444  16.182   9.045   4.547  0.0726 -0.0447 -0.2851
 1971W        W18445   0.022  11.466  10.930 -0.0067  0.0076 -0.2163
 1972W        W18446   7.150   5.017   3.274  0.1490  0.0631 -0.2200
 1973W        W18447  14.494  16.774   2.903  0.1275  0.3700 -0.1823
 1974W        W18448  14.856   7.752  15.955  0.2426  0.1000 -0.0306
 1975W        W18449   6.925  15.452   6.255 -0.0504 -0.1601  0.0632
 1976W        W18450   3.771  15.696  16.097 -0.0821 -0.0749 -0.0887
 1977W        W18451  10.513  17.158  12.096 -0.0593  0.0355  0.0242
 1978W        W18452   0.017   1.143  12.220  0.2262 -0.3145 -0.1180
 1979W        W18453  11.531   5.364   3.124 -0.1644  0.2051 -0.0008
 1980W        W18454   7.036   9.007  12.111 -0.1169  0.5010  0.0061
 1981W        W18455   9.822   3.010   4.189  0.0279 -0.3251 -0.0741
 1982W        W18456  16.791  12.207   2.495  0.2945  0.1931 -0.0314
 1983W        W18457  10.481  17.069  16.084  0.1184  0.2379  0.1916
 1984W        W18458  15.785   7.448  15.808 -0.3117  0.1557  0.2549
 1985W        W18459   9.585  10.554  14.551  0.3231  0.2001  0.1791
 1986W        W18460   0.383   1.725  14.877 -0.0290 -0.2451  0.2034
 1987W        W18461   7.505   5.613   1.309 -0.1148 -0.1203 -0.3225
 1988W        W18462   8.734   3.390   5.024 -0.2022  0.1058  0.1778
 1989W        W18463  17.335   7.706   0.238 -0.1796  0.1728  0.1118
 1990W        W18464   9.609   5.042  15.514  0.1250 -0.3403  0.1663
 1991W        W18465  12.458   2.749   0.893 -0.0873 -0.1747  0.0750
 1992W        W18466  14.664   3.344  14.465 -0.1680 -0.1092  0.1798
 1993W        W18467  15.225  13.341  13.734  0.0557 -0.0450 -0.0129
 1994W        W18468   7.112   5.780   4.578  0.4407 -0.0853  0.1921
 1995W        W18469  16.523   3.557  12.989 -0.1299  0.0852 -0.0937
 1996W        W18470   8.216   9.020   5.721  0.1534 -0.0459  0.2061
 1997W        W18471  12.384   0.503   4.318 -0.1356  0.1820  0.1884
 1998W        W18472   3.317  10.324  15.179 -0.2578  0.2310 -0.2539
 1999W        W18473  11.611   3.100   0.115 -0.1021  0.0870  0.0678
 2000W        W18474  14.000   7.171   1.983  0.0795 -0.0493 -0.0810
 2001W        W18475   7.060  12.737   1.817 -0.0798  0.2195  0.2622
 2002W        W18476  15.866   4.950   4.285 -0.0532 -0.2145 -0.2869
 2003W        W18477  14.740  16.026  15.690  0.2230  0.1608 -0.2931
 2004W        W18478  10.622   3.715   3.172  0.0095 -0.2892  0.0913
 2005W        W18479  14.402  12.335   4.692 -0.0950 -0.2958 -0.0733
 2006W        W18480   8.703   0.937  15.314  0.4016 -0.1776 -0.2338
 2007W        W18481   2.157   9.200  11.753  0.1404 -0.4442  0.0318
 2008W        W18482   1.411   1.727  15.055  0.1283  0.0227  0.1538
 2009W        W18483   0.810   5.812   4.889 -0.0219  0.2367  0.1094
 2010W        W18484   2.770   6.603  14.459 -0.1555  0.0469 -0.2058
 2011W        W18485  10.838  13.179  14.317 -0.0344 -0.2021 -0.1517
 2012W        W18486   0.052  16.111  15.560 -0.0536 -0.0417 -0.1994
 2013W        W18487   8.949  13.309  15.123 -0.2235  0.2369  0.0310
 2014W        W18488  14.932   9.185   0.688  0.1845  0.1124  0.0331
 2015W        W18489  16.236  16.316   3.956  0.0259  0.2638 -0.0530
 2016W        W18490  10.881  17.415   0.615  0.2021  0.2677 -0.0380
 2017W        W18491   5.135  17.855   1.608 -0.1078  0.1078 -0.0345
 2018W        W18492   2.636  10.439  14.301 -0.0983  0.0230  0.0469
 2019W        W18493   6.551  13.790  13.936 -0.3222 -0.2596  0.0534
 2020W        W18494   0.898  12.370  12.618  0.0333  0.0331  0.2494
 2021W        W18495  13.989  11.892   2.274 -0.0905  0.1243 -0.0963
 2022W        W18496   9.565  15.924   0.631 -0.0078 -0.1202 -0.1515
 2023W        W18497  13.149   8.724   1.202  0.2504 -0.0407  0.4305
 2024W        W18498   8.071   6.318   2.113 -0.2567  0.0146  0.3446
 2025W        W18499   5.682   9.002   3.870  0.2199 -0.0445 -0.1908
 2026W        W18500  15.179   3.494  14.232  0.0433 -0.3945 -0.1114
 2027W        W18501  13.795  17.771   5.331  0.0623  0.3751 -0.2625
 2028W        W18502   1.548   5.313   3.748  0.0200  0.0515  0.2065
 2029W        W18503   2.816  16.323  12.924  0.0684  0.0939  0.0013
 2030W        W18504  15.337  10.269   0.543  0.0128  0.0734  0.0652
 2031W        W18505  12.365   9.841   0.857 -0.1173 -0.0085  0.3379
 2032W        W18506  16.828  12.969  16.137  0.0563  0.2147  0.3375
 2033W        W18507   2.762  10.329   0.527 -0.1667  0.0094  0.3066
 2034W        W18508  18.075   2.006  13.444  0.0922 -0.1007  0.0738
 2035W        W18509   9.540  17.312   4.972  0.0902  0.3158 -0.1512
 2036W        W18510   3.249   4.938  14.980 -0.1283  0.0117 -0.0618
 2037W        W18511  17.169  17.937  15.549 -0.2485  0.0560  0.0805
 2038W        W18512  16.365  13.100   5.365  0.1041  0.3286 -0.0760
 2039W        W18513   0.344  14.799   5.253 -0.1838 -0.1394 -0.1852
 2040W        W18514  15.146  10.243  12.671  0.1784  0.0448 -0.1682
 2041W        W18515  15.021   1.485  11.694 -0.1340  0.2093 -0.2722
 2042W        W18516   7.880   5.722  15.401 -0.0203  0.2284 -0.1942
 2043W        W18517   4.444   8.792   4.636  0.2520  0.2362 -0.0838
 2044W        W18518   8.763  17.019   4.679  0.1865  0.3289  0.1803
 2045W        W18519   0.970  13.985  15.930 -0.2757  0.0551  0.1464
 2046W        W18520   1.525   8.925   0.462 -0.1656 -0.1543  0.2066
 2047W        W18521   1.365   4.012  11.201  0.1126  0.3786 -0.0250
 2048W        W18522  15.010   5.937  14.485  0.1278 -0.1278 -0.0210
 2049W        W18523   9.003  10.803  12.462 -0.2147  0.0252  0.2012
 2050W        W18524  11.770  14.974   2.030 -0.0147 -0.1812  0.0509
 2051W        W18525  13.154   5.543   3.514  0.4413 -0.0765 -0.0466
 2052W        W18526   5.586  14.184  16.075  0.1093  0.2701  0.1485
 2053W        W18527   5.436  10.500   1.801 -0.2570  0.0209 -0.0365
 2054W        W18528   0.651   1.952   1.017  0.1073  0.2032 -0.2235
 2055W        W18529  17.875   5.139   4.370  0.0749  0.1371  0.2078
 2056W        W18530   2.496  10.560   0.179  0.0047 -0.0511  0.0203
 2057W        W18531   0.813   8.799  15.602  0.3289  0.0108  0.0908
 2058W        W18532   0.709  15.039  13.018 -0.0627  0.1228  0.4664
 2059W        W18533   9.060   9.562  11.854 -0.0020  0.3191 -0.3752
 2060W        W18534  13.767   7.314  11.602  0.2151 -0.1054 -0.0983
 2061W        W18535   1.867   6.516   3.606  0.0555  0.0235  0.0496
 2062W        W18536   8.760   9.054  12.098 -0.0716 -0.2678 -0.3380
 2063W        W18537   4.578  14.008   0.668  0.0746 -0.2600 -0.2243
 2064W        W18538   8.372   5.152  14.450  0.0708  0.0919 -0.0103
 2065W        W18539   6.290  15.060   4.813  0.0985 -0.0811  0.2516
 2066W        W18540  12.633   4.799   4.732 -0.1141 -0.1378  0.2051
 2067W        W18541  17.714  12.997  10.230 -0.2775  0.2111  0.0335
 2068W        W18542  16.414  14.426   2.190 -0.0823 -0.1783  0.4485
 2069W        W18543  15.262  15.310   5.044 -0.1758 -0.1728 -0.1921
 2070W        W18544   9.277   3.255   4.097 -0.0802 -0.1244  0.2598
 2071W        W18545  12.049   0.757  16.080  0.0209  0.1216 -0.1996
 2072W        W18546   0.242   3.233   2.108  0.0360  0.1617 -0.0510
 2073W        W18547   6.974  15.407  11.038 -0.3661  0.2879  0.3287
 2074W        W18548  10.546  10.061  14.539  0.0493  0.1080  0.0289
 2075W        W18549   2.915   3.776   3.799 -0.4067  0.1767 -0.1495
 2076W        W18550   2.333   2.486  15.810  0.0489  0.2408  0.2323
 2077W        W18551   5.649   8.858   1.231  0.0637 -0.0539  0.1092
 2078W        W18552  15.099   6.624   2.461 -0.3755  0.1752  0.0788
 2079W        W18553  13.973  12.246   1.428  0.0864 -0.0225 -0.1651
 2080W        W18554  12.471  14.355  15.129 -0.2470  0.3256 -0.4643
 2081W        W18555  17.874   0.119   0.689  0.0273 -0.1577 -0.0370
 2082W        W18556  10.893   0.581   1.760 -0.0191 -0.0768  0.0329
 2083W        W18557  16.847   6.205   4.487  0.1067 -0.0196 -0.0748
 2084W        W18558   7.622   9.425  16.098  0.2604  0.0305 -0.3005
 2085W        W18559   8.408   3.744  15.252  0.0257  0.1313 -0.0319
 2086W        W18560  10.103   4.135  11.809 -0.3749  0.3395  0.3951
 2087W        W18561   6.648   5.487   0.357 -0.0136  0.1972  0.1083
 2088W        W18562  10.782  12.903   0.541  0.1939 -0.2917 -0.0168
 2089W        W18563   1.908   1.172  12.234  0.0181  0.2456  0.0735
 2090W        W18564   6.913   6.007  15.580 -0.3125 -0.0838  0.1525
 2091W        W18565   7.135   2.603   5.583  0.0115  0.1871  0.2012
 2092W        W18566  12.880   4.616  16.143 -0.2480 -0.0597  0.0037
 2093W        W18567  14.941   5.190   2.342  0.0960  0.1321 -0.2040
 2094W        W18568   1.791  12.595  12.568  0.1643  0.1108 -0.0628
 2095W        W18569   8.737  10.581   0.303  0.0464 -0.1182  0.4110
 2096W        W18570   6.621  12.680  14.912 -0.0284  0.1096  0.2991
 2097W        W18571  15.222   6.109   3.404  0.3607  0.1594  0.0290
 2098W        W18572   4.626  17.150   4.908  0.0352  0.2051 -0.0191
 2099W        W18573  10.422  16.686   2.152 -0.1798  0.1887  0.2212
 2100W        W18574   6.791  10.469   1.145 -0.0536 -0.0152 -0.0961
 2101W        W18575  10.156   9.477  14.574  0.0950 -0.0509 -0.1755
 2102W        W18576   3.923   3.576   0.478 -0.0963  0.2271  0.0607
 2103W        W18577  17.465   0.418   1.604  0.2622  0.0564  0.1574
 2104W        W18578  15.268  14.887   0.780  0.0535 -0.0280  0.1659
 2105W        W18579  16.662  11.832   0.467  0.1367  0.1409 -0.2666
 2106W        W18580   5.255  17.452  14.978 -0.0535 -0.2702 -0.0565
 2107W        W18581  18.142   7.186  11.946 -0.1580 -0.2412 -0.0379
 2108W        W18582   8.279   4.549  13.021  0.0882 -0.0365  0.3227
 2109W        W18583  12.205  17.487   5.186  0.0313 -0.1836 -0.1243
 2110W        W18584   0.433   2.148  16.049  0.1010  0.0909 -0.1981
 2111W        W18585  13.833   3.763  12.391  0.2307 -0.1514  0.0457
 2112W        W18586  17.493   3.784  13.091  0.0949  0.2880  0.0227
 2113W        W18587   5.930   3.798   1.912 -0.1558 -0.0977 -0.0461
 2114W        W18588   2.252  12.771   4.146 -0.0785 -0.2493 -0.1350
 2115W        W18589   2.260  10.727   1.758 -0.0223 -0.0998 -0.1326
 2116W        W18590   0.908  18.258  15.101 -0.0527  0.0199  0.2515
 2117W        W18591   1.784   4.978  15.235  0.1868 -0.3722  0.1344
 2118W        W18592   1.801   8.651  14.109 -0.4042  0.0085 -0.1458
 2119W        W18593  11.112   7.740   4.353  0.6028 -0.0585 -0.0378
 2120W        W18594  18.326   3.157  14.766  0.0600 -0.0868  0.0704
 2121W        W18595   0.188   0.815   2.377  0.1367 -0.0222 -0.0802
 2122W        W18596  10.936   1.531   4.323 -0.0323 -0.2554  0.1906
 2123W        W18597  14.917   2.605  13.290  0.0412  0.2176 -0.0189
 2124W        W18598   4.779   2.365  13.394  0.0363  0.0625  0.0384
 2125W        W18599  13.405  10.195  14.156  0.1438 -0.0923  0.1125
 2126W        W18600  17.978   6.960   4.923  0.1605 -0.1365 -0.3094
 2127W        W18601  13.829  11.145  13.620  0.2609  0.2075  0.1434
 2128W        W18602   6.244  14.340  13.347  0.1062 -0.0656  0.1574
 2129W        W18603   6.500  13.398   3.919  0.1730  0.3506 -0.1290
 2130W        W18604   3.543  14.568  16.085  0.0679 -0.0024 -0.4108
 2131W        W18605   1.416  10.068   2.933 -0.1514 -0.0129 -0.2443
 2132W        W18606   3.053  17.991  15.237  0.1766 -0.1578  0.3078
 2133W        W18607   1.528  12.030   2.224  0.0761  0.4124 -0.0768
 2134W        W18608   4.175   2.002  12.737 -0.2634 -0.0287  0.0858
 2135W        W18609   4.847  10.691   3.461 -0.0637 -0.3414  0.1139
 2136W        W18610  10.416   9.080   1.215 -0.0722  0.0629 -0.1340
 2137W        W18611   7.649  15.176  14.524 -0.1552  0.0891  0.1366
 2138W        W18612   9.993  14.889  13.586 -0.4770  0.0163  0.0643
 2139W        W18613   1.195  12.695   4.967  0.0768  0.0419 -0.1172
 2140W        W18614  14.396  11.827  11.767 -0.3852  0.0715  0.1268
 2141W        W18615  17.768  15.237   1.455 -0.1768  0.0915 -0.1818
 2142W        W18616   6.538   3.026  15.134  0.0194 -0.0984 -0.4261
 2143W        W18617   2.284   2.999   3.406 -0.1249 -0.1579 -0.1801
 2144W        W18618   7.739   0.806  11.528 -0.0631  0.4295 -0.1023
 2145W        W18619   2.876   4.106   2.830  0.0962  0.1221  0.2649
 2146W        W18620   1.460  13.811   1.032  0.0407  0.2007  0.2128
 2147W        W18621   5.155   1.987  10.835  0.0002 -0.0335 -0.1131
 2148W        W18622  16.177   3.365  14.458 -0.2420  0.2419 -0.0064
 2149W        W18623  11.088  15.174  15.026 -0.2772 -0.1255 -0.1340
 2150W        W18624  12.733  16.591  12.034 -0.2746  0.1638  0.0043
 2151W        W18625  18.028  13.329   4.045 -0.1693 -0.1382  0.1411
 2152W        W18626  15.738   2.069   3.650 -0.2396 -0.2514 -0.0673
 2153W        W18627  13.252   7.044  14.215 -0.0715  0.0322  0.0205
 2154W        W18628  14.395   4.683  10.964 -0.4029 -0.2719  0.1388
 2155W        W18629  11.138   4.245  12.515  0.0579 -0.0452  0.1177
 2156W        W18630   2.181  15.455   0.348 -0.0178 -0.1339 -0.1222
 2157W        W18631  10.708   7.844  14.531  0.1639  0.0881 -0.4480
 2158W        W18632  12.772  15.169   1.160 -0.0015  0.2741 -0.1933
 2159W        W18633  10.424   4.515  11.894 -0.0118 -0.0014 -0.0071
 2160W        W18634   6.047   3.588  12.471 -0.0321 -0.3986 -0.0116
 2161W        W18635   4.950  18.327  13.499  0.1484 -0.2796  0.3509
 2162W        W18636  11.785  15.384   3.348  0.0245 -0.2915 -0.0157
 2163W        W18637  16.375   0.990  13.128 -0.0234 -0.1677 -0.0282
 2164W        W18638   0.668   9.894  11.374 -0.0236  0.1419 -0.0245
 2165W        W18639   0.259  12.639   1.232 -0.1858  0.2028  0.0276
 2166W        W18640  13.462   3.547   4.084 -0.0728  0.3315 -0.1079
 2167W        W18641   6.030   7.143   4.340  0.0237  0.1716 -0.1571
 2168W        W18642   1.245   7.178  14.410 -0.1374 -0.0282  0.1696
 2169W        W18643   6.205   6.731  12.190  0.3359 -0.1222 -0.0696
 2170W        W18644  12.966  15.319  14.475  0.3935  0.0045 -0.2416
 2171W        W18645   6.890  12.318   1.052  0.0789  0.1660 -0.2578
 2172W        W18646   5.829   0.365   3.881  0.0498 -0.0679  0.1758
 2173W        W18647   9.191   0.964  15.218 -0.1036  0.1195 -0.0861
 2174W        W18648   6.458   9.870   2.406 -0.1521  0.1490 -0.0153
 2175W        W18649   1.760   4.112   6.168  0.2562 -0.0552  0.1469
 2176W        W18650  10.505   3.758  13.600  0.2247  0.1454  0.1058
 2177W        W18651  10.732  13.278  13.460 -0.2104 -0.2071 -0.1510
 2178W        W18652  13.282  16.271  15.394 -0.1061  0.4652  0.1079
 2179W        W18653   0.908   9.815  11.896  0.0811 -0.2086  0.1386
 2180W        W18654  12.128  16.032   4.143  0.0259 -0.1024  0.0706
 2181W        W18655  18.328  14.390  13.022 -0.1186 -0.0577 -0.0283
 2182W        W18656   0.698  10.758   2.280  0.0779 -0.2249 -0.0514
 2183W        W18657  12.520  15.469  14.777 -0.1349  0.1396  0.3144
 2184W        W18658  10.956  11.260   2.937 -0.1207  0.3561  0.1114
 2185W        W18659  14.065   0.834  14.493  0.2430 -0.0975  0.0450
 2186W        W18660   1.053   5.693   0.304  0.0549 -0.0135  0.0522
 2187W        W18661  11.599   1.404   5.510 -0.3975 -0.0578 -0.2047
 2188W        W18662   9.443   8.741   4.246  0.1106 -0.0946  0.1505
 2189W        W18663  11.802  17.165   5.112  0.2291  0.3105  0.2839
 2190W        W18664   6.034   5.634  12.009  0.3339 -0.1035 -0.0017
 2191W        W18665  13.767  13.563   0.315 -0.0195  0.0672 -0.0227
 2192W        W18666   4.232   8.589   2.944 -0.1434 -0.2356  0.1748
 2193W        W18667  13.704  11.862   0.344 -0.0617 -0.0719 -0.0055
 2194W        W18668   9.617  12.259   1.322 -0.3138  0.1995 -0.1069
 2195W        W18669   8.983   7.566   4.854 -0.3409  0.0071  0.1057
 2196W        W18670   7.512  13.028   2.738 -0.5421  0.0643  0.1963
 2197W        W18671   1.147  18.306  13.367 -0.1865  0.1435  0.0533
 2198W        W18672  16.106  12.911  14.321  0.1197  0.1974  0.0308
 2199W        W18673   3.271   8.789  11.866 -0.1895  0.1253 -0.0389
 2200W        W18674  16.185  14.269  16.012  0.1065  0.2386  0.2197
 2201W        W18675  11.978   3.115   4.248  0.0641 -0.1206 -0.2452
 2202W        W18676   6.536   7.842  14.035  0.0219 -0.1105 -0.1741
 2203W        W18677   1.133   8.927  15.246 -0.2031 -0.2390 -0.0097
 2204W        W18678   5.672   9.255  11.503 -0.2899  0.0385  0.0136
 2205W        W18679   2.905  16.008   3.820  0.0357  0.0422  0.0419
 2206W        W18680   1.698  17.400   3.765  0.1329  0.3636  0.2683
 2207W        W18681  17.744  16.015   4.899  0.0118  0.0923 -0.3630
 2208W        W18682   3.810  17.622  12.000 -0.3309 -0.1939  0.2137
 2209W        W18683  10.085   8.260   0.657  0.1693  0.0672 -0.2347
 2210W        W18684  12.027   9.290  11.414  0.2874 -0.2913  0.0686
 2211W        W18685  13.283  10.019  11.663 -0.3176 -0.1308  0.2180
 2212W        W18686  10.802  13.256  15.655  0.0288 -0.0852 -0.1085
 2213W        W18687  11.795   2.734  15.434 -0.2217  0.2504 -0.1989
 2214W        W18688   0.394   9.096  15.687 -0.0330 -0.2264 -0.0250
 2215W        W18689   6.604   6.537   1.541  0.3434  0.0815  0.0891
 2216W        W18690   5.688  13.196   4.296  0.2477 -0.0196 -0.0930
 2217W        W18691   1.947   4.565  12.131 -0.0430 -0.0943 -0.1769
 2218W        W18692   6.389  14.343   4.593 -0.0293 -0.1071  0.0685
 2219W        W18693   6.802  10.018  14.974 -0.2124  0.1698 -0.0043
 2220W        W18694   2.784   4.565  14.641 -0.0378 -0.0484 -0.0308
 2221W        W18695   8.991   3.613  15.972 -0.0640  0.3801 -0.3082
 2222W        W18696   2.975  15.714   5.220  0.0913  0.1103  0.1261
 2223W        W18697   1.552   2.403  12.612 -0.1154  0.1812  0.0582
 2224W        W18698   9.580  12.221   4.698 -0.0754 -0.3100  0.2838
 2225W        W18699   7.837  16.475   1.279 -0.0640  0.0594 -0.3090
 2226W        W18700   1.641  10.208   4.514  0.1935 -0.0121  0.1420
 2227W        W18701   6.828   2.046   2.120  0.1220  0.0925  0.1616
 2228W        W18702  15.862  10.731   3.856 -0.1450  0.2260  0.0421
 2229W        W18703  16.477  17.500   0.450 -0.0961 -0.1408  0.5683
 2230W        W18704  14.905  16.330  11.201 -0.0958 -0.1438 -0.0949
 2231W        W18705  10.835   2.079   1.617 -0.0997 -0.1140  0.0858
 2232W        W18706  12.105  17.743  15.170 -0.1002 -0.4103  0.0802
 2233W        W18707  11.738   6.132  12.149 -0.1470  0.2730 -0.2670
 2234W        W18708  17.147  12.393   4.724  0.0104  0.2549 -0.2755
 2235W        W18709   4.211   6.931   5.473 -0.1556 -0.2750 -0.1624
 2236W        W18710  13.366  14.289  12.544  0.0350  0.1097  0.3060
 2237W        W18711   0.337  12.122   1.353  0.2695 -0.0258  0.0879
 2238W        W18712   7.783  16.400   2.569  0.2715 -0.3057 -0.0487
 2239W        W18713   9.919   4.905  13.427 -0.1027  0.2976  0.1411
 2240W        W18714   9.678   6.545   5.979  0.3411  0.0242  0.3259
 2241W        W18715   5.760  11.019  15.537  0.2044  0.0967 -0.2855
 2242W        W18716  11.946   2.242  13.173 -0.0912 -0.0433  0.2951
 2243W        W18717   4.206  11.849   4.421 -0.1139 -0.3566  0.2749
 2244W        W18718   7.688   6.530   3.467 -0.2655 -0.3147  0.0386
 2245W        W18719   2.169  13.128   1.999  0.0283 -0.0673 -0.0763
 2246W        W18720   8.792   6.882   5.019 -0.1697 -0.1781  0.0720
 2247W        W18721   9.636  17.322  11.701 -0.0373 -0.5549  0.1025
 2248W        W18722  10.703   0.053   4.028  0.1549 -0.0682  0.2992
 2249W        W18723   5.463   1.116  13.845  0.2173  0.2569 -0.1489
 2250W        W18724   1.836   1.296   4.228 -0.0218  0.1304 -0.0693
 2251W        W18725  11.531  13.918  13.577 -0.0319  0.1883  0.2577
 2252W        W18726   4.689  14.345  13.158  0.1809 -0.0228 -0.1816
 2253W        W18727   0.360   0.929  13.178 -0.0587  0.2073  0.1076
 2254W        W18728  17.352   6.880   3.723  0.0009  0.2390 -0.3445
 2255W        W18729   9.114   3.137  14.989  0.3209  0.0591 -0.0161
 2256W        W18730   3.822  15.118  15.134 -0.0758  0.1572  0.1565
 2257W        W18731  13.188  12.918  12.209 -0.1867  0.0802 -0.0787
 2258W        W18732   6.782   0.082  14.834 -0.1481 -0.0645 -0.1045
 2259W        W18733   2.678   4.916   4.500 -0.0971  0.0729 -0.0469
 2260W        W18734   1.640   6.122   1.523  0.0955 -0.0402 -0.1143
 2261W        W18735   6.894  13.448   1.805 -0.0099  0.2113 -0.1352
 2262W        W18736  13.094  12.582  12.794 -0.1533 -0.0259  0.2721
 2263W        W18737  11.158  10.841   4.306  0.2063 -0.1495 -0.0630
 2264W        W18738   9.158   9.229   2.662  0.4660  0.2120  0.1293
 2265W        W18739   8.129  11.791   2.205  0.2645 -0.1397  0.0433
 2266W        W18740   8.623  17.789   3.291 -0.2098 -0.1229  0.1024
 2267W        W18741  14.786   6.495   5.568  0.1166  0.2442 -0.0444
 2268W        W18742   1.579   1.067   0.694 -0.0178 -0.1421  0.0116
 2269W        W18743  11.921   3.052  14.335  0.2733 -0.0660 -0.1644
 2270W        W18744   6.580   6.423  12.144 -0.0257  0.1801  0.0173
 2271W        W18745   5.249  11.193   2.675 -0.2379  0.0151 -0.1174
 2272W        W18746  17.993  17.308  11.283  0.1872  0.1247  0.1830
 2273W        W18747  15.585   8.996  13.755 -0.2841  0.2866  0.1970
 2274W        W18748   1.576   8.760   4.296  0.2130 -0.1796  0.3161
 2275W        W18749  13.057  16.450  13.041 -0.1319  0.1580  0.0501
 2276W        W18750   6.284   1.103  16.020 -0.1299  0.0278  0.3375
 2277W        W18751   4.440   3.132   0.963  0.1194 -0.1784 -0.4104
 2278W        W18752  11.922   1.379   3.924  0.0701 -0.2915 -0.1847
 2279W        W18753   2.260  10.063   2.005  0.2495  0.0298 -0.3497
 2280W        W18754   6.464   1.487   2.408 -0.2176 -0.1437  0.0216
 2281W        W18755   8.268  15.144  15.064  0.0273  0.0658 -0.0399
 2282W        W18756   7.320   2.072   1.071  0.4202 -0.1659 -0.0852
 2283W        W18757  16.533   0.739   4.239  0.1447 -0.2018 -0.1976
 2284W        W18758   0.548  14.451  13.050  0.0269  0.1563  0.0577
 2285W        W18759   9.446   6.605   4.593 -0.0883 -0.0239 -0.0062
 2286W        W18760   7.601  11.439  11.513  0.1362 -0.0251  0.0737
 2287W        W18761  12.964   4.428   0.296  0.0377 -0.0875 -0.3424
 2288W        W18762  10.392  15.190   1.752 -0.0164 -0.0369 -0.1137
 2289W        W18763   5.786  10.258   0.834  0.1446  0.1020 -0.4125
 2290W        W18764  17.667  11.204   4.493  0.4105  0.0470  0.0557
 2291W        W18765  15.303   0.955   0.723 -0.1884 -0.0977  0.3134
 2292W        W18766   0.089   7.942  16.317 -0.1416 -0.0006  0.0177
 2293W        W18767  15.839  14.305   0.189  0.0604 -0.1689  0.2884
 2294W        W18768  16.777  14.775   4.819  0.2369 -0.1310  0.0688
 2295W        W18769   0.635  11.006   3.761  0.0797 -0.1274  0.2078
 2296W        W18770   0.256  15.521   2.342 -0.1994  0.0643 -0.3016
 2297W        W18771  17.347   2.564  13.489 -0.1791 -0.1146 -0.1273
 2298W        W18772  17.581  11.089  10.704  0.3145 -0.1259  0.0022
 2299W        W18773   3.670  13.603   3.087  0.2875  0.1576 -0.0197
 2300W        W18774  12.410  14.234   1.173  0.1186 -0.0553 -0.1354
 2301W        W18775   3.396   6.382   1.797  0.3642 -0.1848 -0.1483
 2302W        W18776   2.120  17.296  15.334  0.1691 -0.0990  0.2416
 2303W        W18777  10.093   6.892  12.387 -0.0288 -0.1176 -0.1780
 2304W        W18778   8.211   4.812   4.308  0.0435 -0.0165  0.3107
 2305W        W18779   8.589  11.911   2.652  0.1841 -0.3484  0.0713
 2306W        W18780  18.268  11.988  16.017  0.1929 -0.3086 -0.3497
 2307W        W18781  10.358   9.623  11.906  0.0821 -0.3081  0.2310
 2308W        W18782  16.841   9.534  12.785  0.0804  0.0975 -0.2123
 2309W        W18783   5.897   2.240  10.254  0.2249 -0.2900 -0.3462
 2310W        W18784   0.023  14.748  13.503  0.0629  0.2121  0.3662
 2311W        W18785  17.304   7.290  15.080  0.2903  0.1485  0.0310
 2312W        W18786  17.800  15.010   3.868 -0.0242 -0.0211 -0.3242
 2313W        W18787   3.900   0.845  12.867 -0.1146  0.3065  0.3765
 2314W        W18788  13.034  11.362  11.062  0.0835 -0.2868 -0.0608
 2315W        W18789  12.619   8.402  15.292 -0.0595  0.1418  0.0575
 2316W        W18790  13.512  16.738   3.595 -0.0928 -0.2051 -0.1765
 2317W        W18791   1.530   2.612  15.463 -0.2895  0.2818  0.0059
 2318W        W18792  15.305  16.776  13.307 -0.0228  0.0460  0.0808
 2319W        W18793   1.936  16.678   0.901  0.1282  0.0369  0.1496
 2320W        W18794   8.337  17.194   0.234 -0.0720  0.1084  0.3500
 2321W        W18795  10.320  17.407   0.098  0.1430 -0.3487 -0.2388
 2322W        W18796   9.971  11.827  13.327 -0.2381 -0.0980 -0.0624
 2323W        W18797   2.281   5.866  12.190 -0.1192  0.1423  0.0133
 2324W        W18798   8.058  15.933   3.141  0.1430 -0.2307 -0.1727
 2325W        W18799   5.163   6.551   1.919 -0.4641  0.0953  0.1365
 2326W        W18800  13.593   2.958  14.009 -0.0235 -0.0798 -0.0318
 2327W        W18801   2.028   7.902  15.733 -0.1814  0.0212 -0.1256
 2328W        W18802  15.938  17.029   4.499  0.3779  0.0376  0.4263
 2329W        W18803   0.257  10.544  11.773 -0.2579 -0.2760 -0.3215
 2330W        W18804  15.662   4.293  14.679  0.1324  0.0067  0.2794
 2331W        W18805  16.732  12.271   4.463 -0.0792  0.1230  0.0862
 2332W        W18806   2.138  10.315   0.485  0.1504 -0.2760 -0.0647
 2333W        W18807  14.628  16.309   0.294 -0.0028  0.3121  0.0170
 2334W        W18808  17.137  12.304   4.174  0.1880  0.1852  0.0281
 2335W        W18809  11.678   7.932  12.312  0.0235  0.2842  0.1688
 2336W        W18810   5.908   3.012   3.672  0.0026 -0.1039  0.0969
 2337W        W18811  16.806   5.829   4.878 -0.0538 -0.0633  0.2245
 2338W        W18812   6.083  14.445  14.759 -0.0634  0.0339 -0.0629
 2339W        W18813   3.431  17.146  15.479  0.1824 -0.0753 -0.0717
 2340W        W18814   5.881   2.601   4.397  0.1181  0.2775 -0.2151
 2341W        W18815   2.655  15.303   0.766 -0.1024 -0.1122  0.2308
 2342W        W18816   1.294   0.004   2.808 -0.1385  0.1437  0.1831
 2343W        W18817  16.484  14.204   1.053  0.0342 -0.3044 -0.0696
 2344W        W18818  15.841   2.961  15.175  0.0807  0.2110  0.2438
 2345W        W18819   8.047  16.095  14.950  0.0848 -0.0399  0.0439
 2346W        W18820   0.007   1.584   0.324 -0.1475 -0.0523  0.0776
 2347W        W18821  13.145   9.039   4.357  0.1656  0.0702  0.1653
 2348W        W18822  17.488   2.431   5.655 -0.1615 -0.1318  0.0532
 2349W        W18823  15.561  10.014  14.566  0.2359  0.1818 -0.1665
 2350W        W18824  10.562  13.934  12.742 -0.2339 -0.0302  0.2241
 2351W        W18825  13.778   5.074   3.776  0.0240  0.1912 -0.3472
 2352W        W18826   2.570   5.274   5.196 -0.2506 -0.1546  0.1567
 2353W        W18827   3.144   3.721  11.551 -0.1917  0.2610 -0.1431
 2354W        W18828   8.669  14.735   5.592 -0.1132 -0.1308  0.0946
 2355W        W18829  14.405   7.697  16.288  0.0836  0.2426 -0.4040
 2356W        W18830  13.003  17.720  14.886 -0.1590 -0.0098  0.3577
 2357W        W18831   5.033   8.839  13.925 -0.1917  0.0901 -0.0723
 2358W        W18832  13.627  16.864  13.551  0.1004 -0.0762  0.0714
 2359W        W18833   7.307  12.767   5.179  0.2826 -0.0970  0.1186
 2360W        W18834  14.739  15.895   2.497 -0.2980 -0.1602  0.3832
 2361W        W18835   5.575   7.620  13.186 -0.0847 -0.2476  0.0862
 2362W        W18836  15.425   8.703  14.521  0.1814 -0.2714 -0.2447
 2363W        W18837  14.043   1.255   0.923  0.1832 -0.2527 -0.0176
 2364W        W18838  18.258   6.704   5.817 -0.2977  0.2314 -0.1488
 2365W        W18839   2.652  13.547  15.685 -0.0955  0.2357  0.0154
 2366W        W18840  10.176   6.056   0.499  0.3415 -0.1903  0.0712
 2367W        W18841   2.975  12.555   5.359 -0.0966  0.2268 -0.1415
 2368W        W18842  13.227   4.801  11.380 -0.3138 -0.2833  0.2014
 2369W        W18843  17.800  13.344  11.562  0.0891  0.0300 -0.1160
 2370W        W18844  11.856  11.514  16.245 -0.0040  0.1142 -0.2903
 2371W        W18845   5.032   7.037   4.257  0.0803 -0.0143 -0.0005
 2372W        W18846  13.344   9.232   4.819 -0.1266  0.4210 -0.0881
 2373W        W18847   0.621  14.651   1.714  0.1647  0.1222 -0.4783
 2374W        W18848   2.156   8.120   2.744 -0.0416  0.1528 -0.4480
 2375W        W18849   7.285   9.484   0.957  0.0172 -0.2856  0.2821
 2376W        W18850  17.836   8.170   4.779 -0.1916  0.1174 -0.3644
 2377W        W18851   0.460  16.299   4.677  0.1881  0.0520  0.0768
 2378W        W18852  16.738  15.444  16.208 -0.1103 -0.1305 -0.0366
 2379W        W18853  10.040   0.779   3.120 -0.1917 -0.0093 -0.2214
 2380W        W18854  10.400   0.189   2.501 -0.0030 -0.0265  0.1650
 2381W        W18855  14.749   4.782  11.365  0.0411  0.0480  0.1948
 2382W        W18856   9.594  16.625  11.547  0.0844  0.0132 -0.0471
 2383W        W18857  12.055   8.064  13.695 -0.0783  0.2889  0.0620
 2384W        W18858  15.763  16.907   2.038  0.2369 -0.1094  0.3877
 2385W        W18859  16.817  11.433   3.097 -0.5553 -0.0717  0.0508
 2386W        W18860   2.550  14.762   5.990  0.1349 -0.1125 -0.0739
 2387W        W18861   2.001   3.681   3.431 -0.0827 -0.0816 -0.2336
 2388W        W18862   8.408   2.695  12.487  0.0585 -0.1464  0.4792
 2389W        W18863   2.507  15.450  13.929 -0.2912  0.0492  0.1672
 2390W        W18864   4.607  16.654  12.794 -0.0647  0.0636 -0.2740
 2391W        W18865  14.139  13.734  13.598  0.0063 -0.2321  0.2375
 2392W        W18866   0.455   5.116  11.177  0.1294  0.1352  0.0403
 2393W        W18867   6.919  15.537   1.945 -0.0858  0.0235 -0.1531
 2394W        W18868   5.065   7.617   2.351  0.1441 -0.2297  0.1901
 2395W        W18869   0.241  17.597   4.850  0.0679 -0.0218 -0.2565
 2396W        W18870  13.049   5.974  15.276 -0.1557 -0.1691  0.0113
 2397W        W18871   7.971   6.636  13.812 -0.2608 -0.1329 -0.0773
 2398W        W18872   5.722   8.977  13.888  0.1566 -0.0868 -0.0757
 2399W        W18873   7.448  18.025   1.210 -0.1203 -0.3152 -0.1449
 2400W        W18874   7.841  14.749   4.846  0.0809  0.1007  0.1830
 2401W        W18875  17.883   9.243   2.252 -0.0867 -0.0539  0.0224
 2402W        W18876   9.286   8.075   0.300 -0.1686 -0.3674  0.2717
 2403W        W18877   4.247  17.241  13.129 -0.1728  0.2639  0.0027
 2404W        W18878   7.698   2.869  14.136  0.1926 -0.2285  0.4311
 2405W        W18879  13.703   6.378  11.373  0.0573 -0.0954  0.2926
 2406W        W18880   6.977  10.312  15.490 -0.0777 -0.1364  0.1224
 2407W        W18881   1.861   4.908   3.515  0.2540 -0.0078  0.1463
 2408W        W18882  17.378   3.068   1.694 -0.0889  0.1938 -0.0518
 2409W        W18883  14.961  14.747  10.273  0.2307 -0.1082 -0.1200
 2410W        W18884   4.803  17.376   1.031 -0.0698 -0.1168 -0.0073
 2411W        W18885  15.346   4.933   2.651  0.1350 -0.0245  0.1049
 2412W        W18886   9.540   8.583   2.825  0.1635 -0.1429 -0.0605
 2413W        W18887  17.967  13.945   5.550 -0.1538  0.0047 -0.4345
 2414W        W18888  13.756  11.452   1.981  0.1415  0.2972  0.0182
 2415W        W18889  17.457   0.867  15.530 -0.2029 -0.1235  0.0860
 2416W        W18890  16.158  10.694  16.272  0.6142 -0.2097  0.0280
 2417W        W18891  16.874   8.335  15.192 -0.0066 -0.1795 -0.4208
 2418W        W18892  14.565  14.365   2.083 -0.0074  0.1076 -0.1012
 2419W        W18893  16.948   2.948  10.742 -0.1526 -0.0725 -0.0431
 2420W        W18894   7.503   2.684   2.375  0.0143 -0.2837  0.0720
 2421W        W18895  14.163  12.457   1.816 -0.2745  0.0742 -0.0195
 2422W        W18896  10.366  14.819   5.810 -0.1936  0.0667 -0.0933
 2423W        W18897   3.423   3.062   1.343  0.0353  0.0075  0.2615
 2424W        W18898  17.541   6.274  16.002 -0.0791 -0.2035  0.0723
 2425W        W18899   7.932  11.817   3.805  0.2050  0.5876 -0.0725
 2426W        W18900  18.254   9.354   0.131  0.2162 -0.1878  0.1060
 2427W        W18901  18.266   4.475   5.490  0.0457  0.0656 -0.0226
 2428W        W18902   6.676   2.369   3.967 -0.0894  0.0458  0.1090
 2429W        W18903   2.932  17.883  13.804 -0.2628 -0.2086 -0.2155
 2430W        W18904   7.225  14.288  12.333 -0.2101 -0.1437 -0.2548
 2431W        W18905  17.032  17.643   0.086 -0.2519 -0.2164 -0.0295
 2432W        W18906   4.224  13.738   6.126  0.2272 -0.2667 -0.1362
 2433W        W18907  16.845  13.939   0.211  0.0742  0.1381  0.0959
 2434W        W18908   3.834   6.639   0.557  0.2729 -0.1768  0.1809
 2435W        W18909   7.315   7.294  14.983  0.1037 -0.0136  0.1260
 2436W        W18910   5.893   3.097  11.615  0.2323 -0.2625  0.4057
 2437W        W18911  17.256  14.175   5.784 -0.2567 -0.1345  0.0492
 2438W        W18912   0.557   4.409  14.556 -0.1763  0.0714  0.3266
 2439W        W18913   5.246   3.367  12.437  0.0921  0.2218  0.1631
 2440W        W18914  13.221  16.320  14.717  0.1316  0.0808  0.1883
 2441W        W18915   0.192  11.295  13.476  0.2544  0.0688  0.3394
 2442W        W18916   8.421   9.137  14.793  0.1544 -0.0409 -0.0426
 2443W        W18917   9.807  10.313  14.127 -0.0418 -0.1026  0.0525
 2444W        W18918   0.876  17.796  15.363 -0.1323  0.3005  0.0837
 2445W        W18919  17.534  10.069  14.174 -0.3093 -0.1559  0.1917
 2446W        W18920  18.067  14.555  15.143  0.0190  0.0353 -0.1168
 2447W        W18921  12.506  14.916   2.772  0.2779 -0.0219 -0.0787
 2448W        W18922   9.828  11.521   3.903  0.1068  0.2179 -0.1152
 2449W        W18923   5.929   7.328  16.213 -0.0780 -0.3159 -0.2831
 2450W        W18924   1.761  15.897  10.496 -0.0517  0.0391  0.1385
 2451W        W18925   2.497   3.837   5.524  0.0835  0.0258  0.0657
 2452W        W18926  15.418   2.670  13.178 -0.1993 -0.1848 -0.2300
 2453W        W18927  12.984   4.370  13.918  0.0839 -0.3705  0.2660
 2454W        W18928   2.692  17.970  14.446  0.0021 -0.1297  0.1133
 2455W        W18929   3.539   8.542  13.351  0.1850  0.0649 -0.0597
 2456W        W18930  14.457   9.745  15.417  0.0374  0.2928  0.0095
 2457W        W18931  16.968   3.648   5.222 -0.2878 -0.0566 -0.1973
 2458W        W18932   3.800   5.041  11.282 -0.0480 -0.1230  0.0196
 2459W        W18933  12.297   4.730  11.914  0.2525  0.0010 -0.0036
 2460W        W18934   0.744   4.476   1.384 -0.0477  0.1130 -0.0075
 2461W        W18935  17.037   2.253   3.226  0.0446 -0.0089  0.1008
 2462W        W18936   8.827  17.501   4.471 -0.0475  0.0041  0.2988
 2463W        W18937  16.939   7.795   5.216 -0.0868  0.1036 -0.0831
 2464W        W18938   0.403  13.327   2.090 -0.2541 -0.0553 -0.2544
 2465W        W18939   7.631   6.689   0.423 -0.1179  0.0063 -0.0465
 2466W        W18940   5.737   2.611  10.659 -0.0145 -0.0698 -0.1392
 2467W        W18941   3.252  14.156   3.806 -0.0615 -0.2500  0.0030
 2468W        W18942   2.377  12.290  12.000 -0.0684  0.1835  0.2395
 2469W        W18943  17.151  10.945   3.226  0.0335 -0.2831  0.2778
 2470W        W18944   0.404  17.221   3.892 -0.1878 -0.0833 -0.1351
 2471W        W18945  12.041   2.351   2.359 -0.0986  0.0422 -0.1595
 2472W        W18946   0.180   0.264  14.682 -0.0442 -0.1068  0.1373
 2473W        W18947   4.719  13.675  14.786 -0.2598 -0.0995  0.2163
 2474W        W18948   9.687  14.287  12.773  0.1337 -0.1931 -0.0778
 2475W        W18949   9.734  14.218  15.850  0.3297  0.2386  0.3246
 2476W        W18950  10.020   1.032   5.766  0.3763 -0.2214  0.0673
 2477W        W18951   2.748  16.983  11.267  0.4523  0.1146  0.0625
 2478W        W18952   5.609  11.491   2.353  0.0381  0.1520 -0.0719
 2479W        W18953   0.318  11.631  13.845  0.0436  0.1951  0.2809
 2480W        W18954   0.403  10.144  16.307 -0.0048  0.1059 -0.1591
 2481W        W18955  12.718   3.318   2.819  0.1221  0.3379 -0.2338
 2482W        W18956  15.859  17.419   2.201  0.1325 -0.1016 -0.2127
 2483W        W18957   0.828  10.602  11.938 -0.1160  0.1482  0.0994
 2484W        W18958   0.326   0.326  15.462  0.0902  0.1037 -0.0359
 2485W        W18959  14.923   6.116  14.909  0.2785 -0.3566  0.4082
 2486W        W18960  14.555  14.304  15.611  0.0044  0.0196 -0.1167
 2487W        W18961  17.433  11.483   5.234  0.0483 -0.2816 -0.0504
 2488W        W18962   4.536  13.257   3.993  0.2641 -0.0640 -0.2305
 2489W        W18963  10.534  14.982  12.098 -0.1537  0.0145  0.0126
 2490W        W18964  16.011  17.648  14.062 -0.1823  0.1296 -0.0966
 2491W        W18965  11.592   4.023  16.263  0.2918  0.1595 -0.0523
 2492W        W18966   7.343   7.999   4.220  0.1804  0.0136  0.1617
 2493W        W18967  16.427  11.054   0.475 -0.3804 -0.0862  0.1071
 2494W        W18968  12.035   8.833  12.086  0.1460 -0.2183 -0.0601
 2495W        W18969   1.508  11.369  13.418 -0.3709  0.1321  0.1150
 2496W        W18970  15.213  13.610   0.471  0.0550 -0.1049  0.0614
 2497W        W18971  13.123   6.104   4.590 -0.3110  0.0671  0.0796
 2498W        W18972  14.707   3.916  13.570 -0.2641  0.2028  0.0776
 2499W        W18973   2.410  10.097   5.123 -0.0394 -0.0194  0.0551
 2500W        W18974   5.859   2.007   2.504 -0.3835  0.1159  0.1121
 2501W        W18975  10.300   3.927   1.056  0.1266 -0.1148 -0.1287
 2502W        W18976   8.857   2.513  11.995  0.2691 -0.2230  0.0481
 2503W        W18977   8.276  16.233   0.472  0.1645  0.1427  0.3152
 2504W        W18978  17.307   4.004   1.699 -0.0698  0.1849 -0.0179
 2505W        W18979   6.684   2.272  11.376 -0.0756 -0.0394  0.1045
 2506W        W18980   7.833  10.453  16.129 -0.0131  0.2671  0.3985
 2507W        W18981   6.496   0.225  14.313  0.2472 -0.2221  0.0003
 2508W        W18982   4.894  12.148   3.900 -0.2158 -0.0144 -0.0402
 2509W        W18983   5.173   3.343  13.336 -0.1079  0.1051  0.1650
 2510W        W18984   8.132  11.883   5.522 -0.3129  0.2778 -0.1918
 2511W        W18985  15.943   6.616  12.927  0.0914  0.1416  0.0679
 2512W        W18986   6.107   2.436   0.046  0.5472 -0.0782 -0.0060
 2513W        W18987  16.920  13.113   0.787 -0.0817  0.1368  0.0855
 2514W        W18988  12.359   6.230   0.867 -0.0315 -0.1298  0.3212
 2515W        W18989  16.345   9.681   3.929  0.2345  0.1489  0.1094
 2516W        W18990   1.564  11.984  15.621 -0.0031 -0.3472 -0.1696
 2517W        W18991  14.159  11.976  13.494  0.1181 -0.0827  0.0267
 2518W        W18992   9.019   9.618   4.547 -0.3360 -0.1606 -0.6480
 2519W        W18993  14.194   6.719   2.022  0.1057  0.2010 -0.1298
 2520W        W18994  17.883   6.115   4.790  0.2271 -0.1293  0.0510
 2521W        W18995   9.779  15.992  13.196 -0.1897  0.0955  0.0296
 2522W        W18996  12.415  16.702   0.965  0.0055 -0.0804 -0.1972
 2523W        W18997   2.242   7.957   1.735  0.0296 -0.0967  0.1668
 2524W        W18998  17.470   1.993   4.798 -0.1409 -0.0909 -0.2230
 2525W        W18999   1.615   3.649   3.126 -0.2707  0.0896  0.0791
 2526W        W19000  14.325  17.557  12.613  0.1703  0.0826 -0.1117
 2527W        W19001   0.834   3.045  13.682  0.0129 -0.0003 -0.1536
 2528W        W19002   7.005   8.069   2.890  0.0813  0.0996 -0.1804
 2529W        W19003   8.461  14.374  14.030 -0.0394  0.3465 -0.1122
 2530W        W19004  10.607   4.906   0.115  0.0548  0.1411  0.0846
 2531W        W19005   7.814   5.427  12.323  0.1496  0.1452 -0.2007
 2532W        W19006  12.189   9.345  13.230  0.1322  0.0261 -0.4238
 2533W        W19007  18.062  13.841  15.760  0.2741 -0.0125 -0.1840
 2534W        W19008   8.292  17.438  15.441 -0.3029 -0.0585  0.0043
 2535W        W19009  13.323   4.147   4.362  0.1383 -0.1736 -0.1250
 2536W        W19010   2.590  12.138   5.088 -0.1123 -0.0370  0.2991
 2537W        W19011  13.838  10.396   3.538  0.2105 -0.0459 -0.2079
 2538W        W19012  14.595   2.271  11.978 -0.0317  0.3727 -0.0545
 2539W        W19013   3.316   9.808   1.294 -0.2080 -0.0728 -0.3408
 2540W        W19014  10.462   6.263   4.841 -0.0563 -0.0541 -0.0277
 2541W        W19015   1.508  18.104   0.453  0.3461 -0.2566  0.1384
 2542W        W19016  17.406  11.644  15.935  0.0333  0.0344 -0.0699
 2543W        W19017  12.843   2.662   5.139  0.0984 -0.0405 -0.1362
 2544W        W19018   8.651   9.693   3.908 -0.0121 -0.0009 -0.0479
 2545W        W19019  15.976  15.367   1.744 -0.1036 -0.0735 -0.2461
 2546W        W19020   4.032   2.993  11.137  0.0141 -0.0597 -0.0676
 2547W        W19021  18.119   7.374   5.209 -0.0079 -0.2316  0.1666
 2548W        W19022  12.072  14.590   1.403 -0.2852  0.1355  0.0975
 2549W        W19023  10.732  14.548   0.380  0.1257  0.2516  0.1290
 2550W        W19024  17.712  10.024  16.317 -0.1674  0.2454  0.0538
 2551W        W19025   2.858   8.857   2.454  0.0187 -0.0385  0.0970
 2552W        W19026  17.912  14.390  15.569 -0.0991 -0.0240 -0.0163
 2553W        W19027   1.961   4.360   4.759 -0.2118 -0.1814 -0.3531
 2554W        W19028  13.622   8.909  14.591  0.1512 -0.0882  0.1139
 2555W        W19029  10.500   1.110  14.592  0.0660 -0.0577 -0.4148
 2556W        W19030   9.999  10.731   1.427  0.2432 -0.2681  0.0429
 2557W        W19031  15.438  10.716  15.265  0.0076  0.1846 -0.0353
 2558W        W19032   2.417   6.219   5.219 -0.1289 -0.1527 -0.0251
 2559W        W19033  15.896  11.079   0.304 -0.1203  0.0078  0.0745
 2560W        W19034   5.778  15.302  16.262 -0.0733  0.0065  0.0000
 2561W        W19035   2.627  12.212  15.676  0.0345 -0.2334  0.0504
 2562W        W19036  16.450   4.009   0.273  0.0306 -0.0236 -0.0124
 2563W        W19037   8.015   2.828  13.274 -0.2546  0.1857  0.1327
 2564W        W19038  13.665  12.506   5.200  0.5250  0.2711  0.0949
 2565W        W19039  18.261  15.789  13.244  0.0721 -0.4020  0.1627
 2566W        W19040  13.413  10.789  11.789  0.1479  0.3291  0.1610
 2567W        W19041   4.778  15.924   4.118 -0.1353  0.2010 -0.0104
 2568W        W19042   7.389   8.558  11.864  0.0088 -0.0627  0.0264
 2569W        W19043   2.439  10.158  15.763 -0.0658 -0.1820  0.0651
 2570W        W19044   2.409   6.981   3.768 -0.1947 -0.1676  0.1005
 2571W        W19045   3.831   7.626  12.381 -0.4122 -0.3918  0.1413
 2572W        W19046  10.307   4.561  11.347  0.1356  0.0477 -0.0347
 2573W        W19047   4.903  16.742   0.346 -0.3363  0.0007 -0.1048
 2574W        W19048   2.034  13.962   1.272  0.1427 -0.2645 -0.1329
 2575W        W19049  10.507   7.115   5.747  0.3918  0.1677 -0.1781
 2576W        W19050  18.135  10.603  13.127 -0.0063 -0.3163  0.0358
 2577W        W19051   9.451   3.354  11.517 -0.1710 -0.0430  0.2869
 2578W        W19052  14.390   3.013  11.771  0.0216  0.1357  0.1752
 2579W        W19053   6.921  16.283   5.247  0.0472 -0.0822 -0.0965
 2580W        W19054  16.162  11.424   1.634 -0.1298 -0.3637 -0.1648
 2581W        W19055  12.566   3.709   1.536 -0.3074  0.4556  0.0376
 2582W        W19056  15.925  11.281   1.182  0.2190  0.1434 -0.0049
 2583W        W19057   8.225  16.869   1.104 -0.0787  0.3830  0.1147
 2584W        W19058   4.983  14.574   3.588  0.0650 -0.1063  0.0635
 2585W        W19059  13.732  17.480   1.030  0.4570 -0.1362  0.3799
 2586W        W19060  17.711  14.115  13.554 -0.1724  0.0439  0.2248
 2587W        W19061   9.074  14.152   2.612  0.1143 -0.0712  0.1150
 2588W        W19062  13.777   3.088  12.668  0.0034 -0.1564 -0.1657
 2589W        W19063  16.354   3.965   4.434 -0.0532  0.1624 -0.1310
 2590W        W19064  17.244  12.225  12.880  0.2029  0.1640  0.1421
 2591W        W19065   5.760   0.212   1.398 -0.2001  0.1787  0.1618
 2592W        W19066  16.878  12.331  11.429  0.2210  0.1426  0.0708
 2593W        W19067   5.906   6.548  14.175  0.0101  0.2210  0.1088
 2594W        W19068   8.099  15.171   2.177  0.0303  0.0156  0.0027
 2595W        W19069  11.041   6.322  15.761 -0.0187  0.1308 -0.4263
 2596W        W19070  11.673  15.289   1.277  0.1706 -0.2406  0.0871
 2597W        W19071   1.004   8.166   3.803 -0.1295 -0.0645  0.1865
 2598W        W19072  10.738  11.486   4.826 -0.0643  0.1315  0.1593
 2599W        W19073  16.297  10.490   4.214 -0.0166 -0.0340  0.0407
 2600W        W19074   4.165   6.531   3.316  0.0031  0.1257  0.0394
 2601W        W19075   9.512   8.366  12.606  0.1199  0.3492 -0.3776
 2602W        W19076  13.727  16.571   0.731  0.1177 -0.0204 -0.0430
 2603W        W19077   2.366   4.942  16.040  0.0831  0.0158 -0.0380
 2604W        W19078   3.037  15.632   2.645 -0.0482 -0.3109 -0.4181
 2605W        W19079  12.697   3.062  11.696 -0.0692  0.2316 -0.3061
 2606W        W19080  13.406   8.665  11.665 -0.1228 -0.1793 -0.1452
 2607W        W19081   3.046  13.884   2.152 -0.3932 -0.1408  0.2487
 2608W        W19082   5.547   0.522   2.063  0.2656  0.2146  0.0317
 2609W        W19083   3.357   6.234  13.299 -0.0756 -0.3140 -0.2659
 2610W        W19084  10.035   3.765   0.522 -0.2756  0.0431 -0.2373
 2611W        W19085  14.692  11.700   1.594 -0.2116 -0.2517  0.0550
 2612W        W19086  10.719   2.799   2.905  0.0713  0.0255 -0.2477
 2613W        W19087  16.451  10.135   1.773  0.0637 -0.2333  0.0266
 2614W        W19088   0.769  12.406  15.949 -0.0341  0.1254  0.2770
 2615W        W19089   6.185  11.402  11.209 -0.2812 -0.0266 -0.2423
 2616W        W19090   4.387  14.307  12.270 -0.0208 -0.0515 -0.0673
 2617W        W19091   8.179   1.429  13.744  0.0112 -0.0551  0.2314
 2618W        W19092  17.421  16.743  10.854 -0.0523 -0.1800 -0.0290
 2619W        W19093  13.103   1.758   0.868  0.2007 -0.1793 -0.3828
 2620W        W19094   4.530   0.182   3.096 -0.1580 -0.0099 -0.2077
 2621W        W19095   2.709   7.541   0.774  0.0415 -0.0294  0.3555
 2622W        W19096   5.979  11.405  15.859  0.0518  0.0483  0.1062
 2623W        W19097  12.477   1.976   4.763  0.1257  0.0165  0.0176
 2624W        W19098  18.147  10.991   4.718  0.1334 -0.1806 -0.0832
 2625W        W19099  16.971   3.184   2.159 -0.0552  0.4460  0.0949
 2626W        W19100   5.914  15.239   5.497  0.1014 -0.0130 -0.0172
 2627W        W19101   4.399   8.756   0.956 -0.0614 -0.2984  0.0583
 2628W        W19102   1.540   1.963   1.144  0.0673 -0.2881 -0.2374
 2629W        W19103  11.899   9.076   2.879 -0.0485 -0.0421  0.3161
 2630W        W19104   9.217  15.652   3.164 -0.2410  0.0419 -0.1393
 2631W        W19105   6.588  15.822   3.947  0.0500 -0.0158  0.0814
 2632W        W19106   2.837   5.642   0.409 -0.0152 -0.3482  0.1219
 2633W        W19107   5.221  11.542   5.462 -0.1490 -0.3069 -0.0951
 2634W        W19108  17.938   0.795   2.956 -0.1819 -0.1270 -0.0168
 2635W        W19109  15.041  17.165   3.817 -0.2102  0.1599  0.1215
 2636W        W19110  11.843  14.679  13.829 -0.2982  0.1087 -0.2173
 2637W        W19111   8.841  10.279   3.307  0.1326  0.0673 -0.1683
 2638W        W19112   5.359   2.784  14.223  0.0833 -0.0100 -0.4135
 2639W        W19113   7.589  18.152   4.111 -0.1117 -0.0500  0.2534
 2640W        W19114   3.436   5.843   1.585  0.0225  0.1009  0.0514
 2641W        W19115   2.627   7.517  14.351  0.2127  0.0162  0.1251
 2642W        W19116   3.415  12.465   3.602 -0.3311  0.1323 -0.1968
 2643W        W19117   8.788  13.427   6.179 -0.0363  0.6771  0.1457
 2644W        W19118   1.317   8.603  14.897  0.0718 -0.1111  0.1731
 2645W        W19119   2.194  14.906  15.784 -0.3469  0.1175 -0.1745
 2646W        W19120  12.632   5.868  15.018 -0.0196  0.0237  0.1343
 2647W        W19121  15.461   4.419   1.649  0.1652 -0.0401  0.0329
 2648W        W19122   9.793   0.619   4.121  0.2028  0.3207 -0.0982
 2649W        W19123  12.086   4.472   0.502 -0.0441 -0.2133 -0.1573
 2650W        W19124   5.944   6.723   2.415 -0.0712  0.1295 -0.0827
 2651W        W19125  17.642  11.679  12.298 -0.3976  0.1367 -0.1997
 2652W        W19126   3.363  11.928   2.250  0.0651  0.0183  0.0981
 2653W        W19127  18.042   2.410  11.741 -0.0323  0.3582  0.0714
 2654W        W19128  16.016  16.656   2.904  0.1673 -0.0013  0.0431
 2655W        W19129  15.682   4.003   1.538 -0.1865  0.0637 -0.0486
 2656W        W19130   8.741   2.377  15.333  0.0719 -0.1933 -0.2109
 2657W        W19131   7.238  12.060  12.839  0.2823  0.1029  0.3652
 2658W        W19132  10.466  12.860  12.554 -0.0286 -0.1999 -0.0523
 2659W        W19133  16.114  17.965   5.032 -0.0477  0.4250 -0.0976
 2660W        W19134   0.972   3.457   0.077 -0.1970 -0.1146  0.2545
 2661W        W19135   3.363   3.311  12.652 -0.0875  0.0375  0.1326
 2662W        W19136   9.027  12.514   4.520 -0.0994 -0.1569  0.0361
 2663W        W19137  17.018   9.618   5.566  0.1853 -0.1465 -0.1112
 2664W        W19138  12.797  18.303  12.937  0.0773 -0.3564  0.0453
 2665W        W19139   0.930   6.247   3.038 -0.0480  0.0642 -0.0426
 2666W        W19140  15.524  17.408  14.050 -0.2203 -0.2782 -0.1146
 2667W        W19141  13.847   3.728   4.399 -0.2531 -0.0734  0.3843
 2668W        W19142   0.787  13.330   0.906  0.0087  0.1530 -0.0167
 2669W        W19143  11.720   8.238  16.219  0.1153  0.1355  0.0500
 2670W        W19144   3.178   7.503  15.358  0.3507 -0.1036  0.1112
 2671W        W19145  12.141  10.707   6.690  0.1612  0.4849 -0.2624
 2672W        W19146   5.010   0.135  14.035 -0.1011  0.0275 -0.0432
 2673W        W19147  10.853  10.693   3.334  0.3151  0.0067 -0.4066
 2674W        W19148   9.475   5.322   0.610 -0.1921  0.0002  0.0332
 2675W        W19149  14.770   8.769   5.820  0.0287  0.3067 -0.1646
 2676W        W19150   5.330   8.097   5.495  0.1635 -0.0142 -0.0088
 2677W        W19151   8.743  17.249  13.906 -0.0399  0.1206  0.2520
 2678W        W19152  17.461   2.775  15.226 -0.0594  0.4241  0.1154
 2679W        W19153  14.678  16.977  10.535 -0.1148 -0.4240  0.0696
 2680W        W19154  14.452   9.239   3.697 -0.4880  0.0096  0.0918
 2681W        W19155   4.617  12.987  11.866 -0.2452 -0.0975  0.0463
 2682W        W19156   8.024   2.288  12.566  0.0179 -0.0903  0.1877
 2683W        W19157   4.645  17.567   1.423  0.0516  0.0340  0.2403
 2684W        W19158   6.675   9.528   4.087  0.1489 -0.2037  0.0846
 2685W        W19159   3.920   5.354   0.282  0.0850 -0.3281  0.1008
 2686W        W19160   0.558   0.326  14.184  0.3743 -0.2544  0.2389
 2687W        W19161   4.869   3.425   2.953 -0.0074  0.1306  0.1847
 2688W        W19162  12.665   3.787  15.042  0.1021 -0.2397 -0.1394
 2689W        W19163  10.036   5.914  14.400  0.1436  0.2096  0.1605
 2690W        W19164  13.986   9.259   1.233 -0.2712 -0.1170  0.1918
 2691W        W19165  15.052   7.980   1.173 -0.1124  0.0081 -0.1139
 2692W        W19166   8.118  13.255  12.398  0.2196 -0.0425  0.0899
 2693W        W19167  18.325   4.220  15.425 -0.3362 -0.3288 -0.1875
 2694W        W19168  14.705   7.282   0.887  0.0845 -0.1496 -0.1260
 2695W        W19169  17.734   2.047   4.042  0.0362  0.0066  0.1313
 2696W        W19170   5.319   0.368   1.672  0.1248 -0.0471  0.1711
 2697W        W19171  16.924  15.406  14.487 -0.0329  0.0539 -0.0809
 2698W        W19172   0.876  17.532  15.862  0.0959 -0.0927 -0.2507
 2699W        W19173  14.388  12.409  12.022  0.0533  0.2796  0.1519
 2700W        W19174  15.400  11.529  14.977  0.2236 -0.4172 -0.0371
 2701W        W19175  16.568   6.858   2.070 -0.1352  0.0739  0.3419
 2702W        W19176  18.001   8.344  15.625  0.0121  0.0055 -0.0983
 2703W        W19177  11.204   2.127   1.174 -0.1534 -0.1359 -0.2294
 2704W        W19178  18.177   4.902  14.538 -0.0453 -0.0034  0.1217
 2705W        W19179  18.033  10.024  13.532 -0.0169  0.0403 -0.3613
 2706W        W19180  11.943  14.689  12.937  0.2296  0.0844 -0.1110
 2707W        W19181   6.254   0.552   2.997 -0.0541 -0.0333  0.1368
 2708W        W19182  14.415  13.809   3.103 -0.2327 -0.1239 -0.3626
 2709W        W19183  14.350   6.791  15.977  0.0810  0.0717  0.0135
 2710W        W19184  16.008  14.207   4.254 -0.1264  0.0700  0.2242
 2711W        W19185   7.192  10.627  11.706  0.1424  0.1263  0.3164
 2712W        W19186  18.080   0.225  15.382  0.1900  0.1557 -0.0348
 2713W        W19187   8.330   0.474   4.556 -0.1666 -0.0096 -0.2528
 2714W        W19188  16.936   0.604   3.144 -0.0145 -0.1432  0.1295
 2715W        W19189  16.048  10.568  12.828  0.2805 -0.2393 -0.2130
 2716W        W19190   0.150   5.060  10.783  0.0512 -0.3739 -0.2815
 2717W        W19191   0.051  10.229  13.860 -0.0843 -0.1416  0.0902
 2718W        W19192   8.441  12.233   4.625  0.1669  0.0865  0.1390
 2719W        W19193  11.432   3.917  13.294 -0.0766  0.2971 -0.1298
 2720W        W19194  12.293   7.716   2.970 -0.4552  0.0778  0.1375
 2721W        W19195  12.865   6.478   4.312 -0.1554  0.1406  0.1890
 2722W        W19196  15.208  11.846  14.593 -0.0637 -0.1556 -0.0834
 2723W        W19197  15.661  13.308  15.640  0.3320 -0.0698 -0.1258
 2724W        W19198   1.178   7.670   4.104  0.0134 -0.0436 -0.2046
 2725W        W19199   2.252   4.584   1.883 -0.0153  0.0810 -0.1384
 2726W        W19200  14.582   9.169   3.158 -0.1181  0.1118 -0.1848
 2727W        W19201   8.827   7.836   1.152  0.2389  0.0194 -0.1441
 2728W        W19202   9.294  15.019   0.902 -0.1144  0.1855  0.5745
 2729W        W19203  12.964   8.852  14.456  0.0373 -0.2534  0.0495
 2730W        W19204   8.020  16.540   3.858 -0.1740 -0.0954  0.1461
 2731W        W19205   5.985  17.713  13.797 -0.2365 -0.1841  0.1400
 2732W        W19206   1.533   4.133   5.581 -0.2585 -0.2524  0.1074
 2733W        W19207  15.463  15.657  13.676  0.2789 -0.1238 -0.0667
 2734W        W19208  12.043   2.002  12.654 -0.0853  0.0002  0.2234
 2735W        W19209  12.902  12.582  15.114 -0.1290  0.3129  0.0504
 2736W        W19210  16.134   0.027  15.676  0.4242  0.0469 -0.2383
 2737W        W19211   1.701   3.944   2.140  0.0457 -0.0027 -0.1786
 2738W        W19212  17.020   4.551  14.282 -0.0385  0.1994  0.2804
 2739W        W19213   9.285   1.453  12.638  0.1703  0.4319  0.0189
 2740W        W19214  14.748   2.115  15.048  0.2525 -0.1494 -0.1954
 2741W        W19215  17.039   7.821   4.454 -0.2725  0.0019 -0.0122
 2742W        W19216  10.088  10.149   0.314  0.2963 -0.1630 -0.0459
 2743W        W19217   6.556   5.396   3.995 -0.1611 -0.0081 -0.2520
 2744W        W19218   3.757   4.088   1.948 -0.3059 -0.1352 -0.1351
 2745W        W19219  15.721  12.922  12.522 -0.2235  0.2151 -0.1093
 2746W        W19220  14.683   0.021  12.503 -0.1889 -0.0341  0.2684
 2747W        W19221  10.654  11.359   2.144  0.2550 -0.0841 -0.1269
 2748W        W19222  18.100  17.345  16.037 -0.2549 -0.2061 -0.0041
 2749W        W19223   2.558   7.411  15.283  0.0521 -0.1523 -0.2741
 2750W        W19224   7.027  10.786  15.258 -0.1173  0.1110  0.0747
 2751W        W19225   7.153  17.780  16.018 -0.0664 -0.1647  0.0008
 2752W        W19226   9.191   5.399   3.617  0.0778  0.0172 -0.1000
 2753W        W19227   2.280  17.064   4.658  0.1640  0.1966  0.0097
 2754W        W19228   2.637   6.167  11.039 -0.0247 -0.1452  0.0485
 2755W        W19229  10.967  13.595  12.567 -0.0421  0.0297  0.0805
 2756W        W19230   6.024  15.174  15.784 -0.2865  0.2561 -0.3367
 2757W        W19231   5.680  13.287   0.506 -0.2274  0.1437  0.2889
 2758W        W19232   5.696   8.766   5.607 -0.1007  0.0984  0.0591
 2759W        W19233   9.862   9.170   3.828 -0.1929 -0.3614 -0.2324
 2760W        W19234   7.772   1.120   1.869  0.1017  0.0990 -0.1717
 2761W        W19235  15.262  15.339   0.478 -0.1094  0.5617  0.0757
 2762W        W19236   7.038   1.794  16.219  0.3780 -0.0541 -0.0319
 2763W        W19237  13.194  16.909   2.308 -0.0009 -0.1497  0.2825
 2764W        W19238   2.043   3.307   3.049 -0.0020 -0.0868 -0.0401
 2765W        W19239   0.911  14.535  13.614 -0.2146  0.1873  0.1193
 2766W        W19240   0.986   0.996  13.703 -0.1379 -0.1755 -0.0526
 2767W        W19241   6.606   5.580   2.167  0.1487 -0.3905 -0.0672
 2768W        W19242  15.310   6.183  11.719 -0.0006  0.0775  0.0455
 2769W        W19243   0.010   0.892   4.514  0.0853 -0.2589 -0.0881
 2770W        W19244   2.882  10.058  13.367  0.2932 -0.2453  0.0729
 2771W        W19245  11.339   3.298  11.013 -0.1302 -0.0242 -0.0079
 2772W        W19246  13.059  16.381   1.369  0.1306  0.0089 -0.2402
 2773W        W19247   8.081   8.515   4.357 -0.3083  0.2454 -0.0806
 2774W        W19248  15.311   9.100  16.176 -0.0981  0.0616  0.2363
 2775W        W19249   6.243   3.924   4.634 -0.0307 -0.0446 -0.1107
 2776W        W19250  16.021   8.336  12.837 -0.0191  0.0288  0.1372
 2777W        W19251  11.354   2.831  15.749 -0.0743 -0.0797 -0.2374
 2778W        W19252   4.518  15.699   1.107  0.3262  0.0288  0.0269
 2779W        W19253   9.446   6.524  10.228  0.0114 -0.0383  0.1121
 2780W        W19254   1.820  11.904  14.540 -0.2361  0.1791  0.1926
 2781W        W19255  11.094   5.678  11.061 -0.4063  0.1130  0.0744
 2782W        W19256  14.321  17.886  12.137 -0.0606  0.0252 -0.0043
 2783W        W19257  10.913  16.364   0.513 -0.1879  0.3013  0.0331
 2784W        W19258  17.419   2.026   2.902  0.1726 -0.0161  0.0230
 2785W        W19259  16.950  13.181   3.568  0.2425  0.1162 -0.1056
 2786W        W19260  12.459  11.114   5.410  0.0915 -0.1790  0.1041
 2787W        W19261   9.596   6.098  12.268  0.1060 -0.3457  0.3334
 2788W        W19262   6.716  13.728   5.102  0.3229 -0.1039 -0.0892
 2789W        W19263  16.058  15.317   2.624  0.0388 -0.0282  0.0572
 2790W        W19264  17.814   5.366   0.385  0.3971  0.3760  0.0274
 2791W        W19265  17.849  18.037  14.970  0.1253  0.1695 -0.2544
 2792W        W19266   0.178  18.283  16.168  0.3938  0.0877 -0.1861
 2793W        W19267   2.977   5.761   3.883 -0.1752  0.2475  0.2890
 2794W        W19268  18.005   4.534  16.186  0.1113  0.0594 -0.3206
 2795W        W19269  12.393   7.573   4.658 -0.3813 -0.0847  0.0272
 2796W        W19270   3.783   2.777   1.561 -0.0025 -0.2617  0.1388
 2797W        W19271  12.361  14.808  14.826 -0.4110 -0.2699 -0.1217
 2798W        W19272  13.535  13.490   5.029 -0.1339 -0.0222  0.1873
 2799W        W19273   8.207   0.854   3.242 -0.2073 -0.1098 -0.2054
 2800W        W19274   8.466  14.981   3.089 -0.1194  0.0380  0.1779
 2801W        W19275   0.997   0.228   1.646  0.1132  0.1105  0.0525
 2802W        W19276   9.069   0.196   2.714 -0.1073  0.0475  0.1253
 2803W        W19277  10.465   1.495  13.239 -0.1004  0.3122  0.0371
 2804W        W19278  17.664  10.604  12.277 -0.0119 -0.0625 -0.0917
 2805W        W19279   7.975  15.345  16.272 -0.0147  0.1729  0.0188
 2806W        W19280  11.582   4.552  15.100  0.2341 -0.1602  0.0838
 2807W        W19281  17.035  17.516  11.044 -0.0373  0.1153  0.0245
 2808W        W19282  11.257   9.370  12.502  0.0336 -0.1351 -0.0294
 2809W        W19283  14.795   0.080  13.632 -0.0926  0.0147 -0.1623
 2810W        W19284  15.001   2.781   0.088  0.3004  0.2754  0.0547
 2811W        W19285  13.513   1.775  12.966 -0.2131 -0.0149  0.4964
 2812W        W19286   8.391  13.448   0.031 -0.2515  0.1542  0.3299
 2813W        W19287  10.004  17.666  15.955  0.0197  0.0622  0.2393
 2814W        W19288  17.212  16.576   3.206  0.0548  0.2065  0.1331
 2815W        W19289  16.223   1.649  12.839 -0.1850  0.0879  0.1798
 2816W        W19290   9.344  10.115   4.640 -0.2381 -0.1118  0.1669
 2817W        W19291   3.475  14.289  12.372  0.2468 -0.0357 -0.0035
 2818W        W19292   7.064   5.443   4.151 -0.1032  0.4444  0.1007
 2819W        W19293  17.300  10.165  14.962 -0.0797 -0.0391 -0.0569
 2820W        W19294  15.080  12.027  15.040  0.0366 -0.0250 -0.2855
 2821W        W19295   4.106   4.518   4.413 -0.0644  0.0878  0.4037
 2822W        W19296   7.222   3.726  16.179  0.0988 -0.2931  0.0268
 2823W        W19297   5.778   0.873   4.263  0.2751  0.0126  0.3391
 2824W        W19298   0.876  12.413   3.338 -0.0950 -0.2124 -0.3419
 2825W        W19299   0.794   0.427   4.440  0.1214 -0.0445  0.3795
 2826W        W19300   0.413   8.193   2.790 -0.3804  0.1703  0.3401
 2827W        W19301  16.703   7.197   1.745 -0.0494  0.1678 -0.3486
 2828W        W19302  10.586   6.195  13.458  0.1508 -0.2462 -0.2137
 2829W        W19303   0.591  16.675   4.953 -0.0634  0.0466 -0.0432
 2830W        W19304  12.530   8.426  16.234 -0.0648 -0.1783  0.0964
 2831W        W19305   7.075   6.258  14.744 -0.0563 -0.0214  0.0232
 2832W        W19306  14.865  13.538   2.604  0.4005 -0.2873 -0.1734
 2833W        W19307   0.770   7.350  15.301  0.3286  0.1580  0.1804
 2834W        W19308   0.904  12.544   1.782  0.0099 -0.1890  0.0386
 2835W        W19309   8.721   3.790  10.978 -0.0810  0.0476 -0.0306
 2836W        W19310  17.150  13.447   4.058  0.2180 -0.1414 -0.1476
 2837W        W19311  13.598  11.585  12.445  0.1924  0.0558  0.0270
 2838W        W19312  16.404   4.326   5.375  0.1140  0.2377 -0.2345
 2839W        W19313   1.017   9.165   3.253  0.0816 -0.1709 -0.1468
 2840W        W19314   6.478  17.249   3.261  0.1192 -0.0086  0.1893
 2841W        W19315   8.423  17.752  14.879 -0.0027  0.2125  0.1567
 2842W        W19316   1.509   2.758   4.830 -0.0209 -0.1666 -0.3333
 2843W        W19317  14.751  13.472   1.192  0.1742  0.2090 -0.2841
 2844W        W19318   2.983   0.411  14.593 -0.0853  0.3404  0.2374
 2845W        W19319  11.286   6.158   2.067 -0.5210 -0.0818  0.2706
 2846W        W19320   2.460  16.800   5.488 -0.0260  0.1907  0.2542
 2847W        W19321   4.950  13.050  13.543 -0.1837  0.0221 -0.0962
 2848W        W19322  11.005  16.158  12.787  0.1431 -0.0581  0.2825
 2849W        W19323   9.342  15.173  12.508  0.0522 -0.0704  0.0021
 2850W        W19324   5.420   2.936  15.039  0.0723  0.0618 -0.1228
 2851W        W19325   5.215  12.811   4.354  0.0509 -0.2715 -0.1041
 2852W        W19326  15.588   1.782  12.004 -0.1098  0.0852 -0.2274
 2853W        W19327   5.923   6.377   4.645  0.2845 -0.0887 -0.1641
 2854W        W19328  17.000   8.174   6.110 -0.2806 -0.2076 -0.1691
 2855W        W19329  16.852   5.941   0.630 -0.1043  0.0150 -0.0656
 2856W        W19330  14.819  16.843  13.062 -0.0041  0.1983 -0.1833
 2857W        W19331   6.575   4.921  15.795  0.0528 -0.1725  0.1425
 2858W        W19332  14.383   8.349   4.037 -0.1521 -0.0245 -0.1063
 2859W        W19333   4.206  17.133   2.979  0.1783 -0.2165  0.0075
 2860W        W19334   1.257   4.488   4.823  0.1235  0.0708  0.0940
 2861W        W19335  15.680  13.013   2.108  0.0641 -0.1193 -0.2635
 2862W        W19336   4.064  11.893   3.870  0.0382  0.0173  0.0168
 2863W        W19337  17.488  16.175  11.934 -0.0079  0.1794  0.2632
 2864W        W19338   0.146   3.358  11.714 -0.0203  0.0941  0.0023
 2865W        W19339  10.129   8.339   1.742  0.2788 -0.1999  0.2259
 2866W        W19340  10.391  11.021  15.839 -0.2188 -0.1618  0.1991
 2867W        W19341  16.751   0.821   1.106 -0.3499 -0.1985  0.3140
 2868W        W19342   7.095  14.494  14.879 -0.1497 -0.2038  0.1686
 2869W        W19343   5.966  14.239   4.175 -0.0390  0.2927  0.1721
 2870W        W19344   9.224  14.253   3.066  0.0981 -0.0089  0.0705
 2871W        W19345  17.620  15.517  13.817  0.1545 -0.2172 -0.1416
 2872W        W19346  11.760  15.471   4.913 -0.0049  0.2947 -0.0270
 2873W        W19347   4.588   9.978   2.125  0.2823 -0.0415 -0.1141
 2874W        W19348   8.849   2.833   1.229 -0.1567  0.0168  0.3245
 2875W        W19349   9.815  13.844  14.291  0.2006 -0.0057  0.0892
 2876W        W19350  10.877   2.219  11.865  0.0621 -0.0266  0.1932
 2877W        W19351  14.671   3.840   2.280  0.0901 -0.1138 -0.2990
 2878W        W19352   9.927  12.730  15.428  0.1469 -0.2938  0.1646
 2879W        W19353  10.776  14.855   1.371  0.1387 -0.2372 -0.0945
 2880W        W19354   5.000   9.423  13.723 -0.2000  0.1447 -0.0136
 2881W        W19355  10.140  11.941  15.678 -0.1039 -0.1459  0.0818
 2882W        W19356  16.972  17.320   4.924  0.2678 -0.0136 -0.0216
 2883W        W19357  16.321  12.771   1.357  0.3006 -0.3868  0.3753
 2884W        W19358  14.459   9.164   0.932  0.3709 -0.1105  0.1487
 2885W        W19359  10.584   8.403   0.415  0.0617  0.1158  0.0412
 2886W        W19360   3.554   1.414   0.569  0.4007  0.1009  0.0479
 2887W        W19361   0.944   4.612   0.128 -0.0744 -0.2671 -0.1540
 2888W        W19362   2.274   8.321   3.738 -0.0900 -0.1598  0.0258
 2889W        W19363   0.182   8.615   3.093  0.1298  0.1429 -0.1077
 2890W        W19364   9.922   9.073  13.118  0.1698 -0.0564  0.2723
 2891W        W19365   2.554   1.350  13.524 -0.2690  0.3717 -0.0534
 2892W        W19366   7.509   1.675   1.887 -0.2478 -0.1955  0.1454
 2893W        W19367   9.994  17.113   4.027  0.0834 -0.3438  0.2558
 2894W        W19368  17.433  18.022   3.801 -0.0951 -0.0375  0.0794
 2895W        W19369  18.122   6.201  12.683 -0.2632  0.0470  0.1356
 2896W        W19370   1.090   7.985  15.495  0.0297 -0.1062 -0.0433
 2897W        W19371   8.320   4.269  16.274 -0.2801 -0.0839  0.0880
 2898W        W19372  12.879   6.494  15.507 -0.0910  0.0470  0.0922
 2899W        W19373   7.512  12.276   3.589 -0.1292 -0.1460 -0.0285
 2900W        W19374   6.054   1.433  14.631  0.0261 -0.2505  0.2330
 2901W        W19375  12.813   9.893  11.770  0.2751  0.0227  0.0054
 2902W        W19376  12.795  12.441   1.439 -0.0389  0.2015 -0.0441
 2903W        W19377   4.954   6.527  16.284 -0.1866 -0.0356 -0.0353
 2904W        W19378  12.304   1.603  12.653 -0.1609  0.0494 -0.0375
 2905W        W19379  17.116   0.583  14.442  0.1363 -0.3063 -0.2538
 2906W        W19380   8.702  11.832  14.814 -0.2286 -0.0557 -0.3028
 2907W        W19381   2.345   2.031   4.448 -0.0845  0.0291  0.0214
 2908W        W19382   3.837  12.162  11.949  0.0968 -0.1503 -0.0190
 2909W        W19383   2.312   0.066  14.497  0.0156 -0.2150 -0.1764
 2910W        W19384   9.462  10.448   1.818  0.0163  0.0170  0.2310
 2911W        W19385   7.757  17.246   0.130  0.3065  0.0602  0.0212
 2912W        W19386  12.245   9.869   1.485  0.3426 -0.2641 -0.1935
 2913W        W19387   7.712  16.147   0.488 -0.2461 -0.3941  0.0642
 2914W        W19388   1.320  17.555  14.057 -0.2475 -0.0164 -0.0147
 2915W        W19389   5.313  13.245  15.832  0.2903 -0.1450  0.0057
 2916W        W19390  13.005  15.496   4.505 -0.1624 -0.1448  0.0379
 2917W        W19391  17.141  17.254   2.615 -0.0218 -0.0671  0.0431
 2918W        W19392  17.274  12.518  12.477  0.2801 -0.0075  0.3022
 2919W        W19393   3.341   2.215  12.738 -0.0960  0.1735 -0.0981
 2920W        W19394   0.673   6.814  15.219 -0.0644 -0.2303 -0.0699
 2921W        W19395   6.602  10.408   3.536 -0.0871  0.0805 -0.1909
 2922W        W19396   3.345  15.967   1.480 -0.0160 -0.0973  0.0804
 2923W        W19397   7.166  17.483   2.559  0.0052  0.2311  0.1028
 2924W        W19398   9.515  12.592  12.857  0.0888  0.1493  0.0917
 2925W        W19399  12.276   4.043   0.680  0.2936  0.1521  0.0706
 2926W        W19400   0.853   3.156   4.166 -0.2824  0.0163 -0.1388
 2927W        W19401   6.446   3.510   2.965  0.0200  0.1118 -0.0566
 2928W        W19402  11.207   2.735  14.697 -0.1472 -0.3110  0.2258
 2929W        W19403  16.371   8.806  14.866 -0.1376 -0.3052  0.0518
 2930W        W19404  17.112   6.393  12.533  0.1100 -0.1557 -0.0153
 2931W        W19405  13.121   6.259  15.881 -0.0288 -0.1954  0.1613
 2932W        W19406  14.814  15.696  16.095 -0.0798 -0.1930 -0.1424
 2933W        W19407  12.430  10.249   4.571  0.0649 -0.1220 -0.1171
 2934W        W19408  13.739   7.574  12.324 -0.1572 -0.0071 -0.4003
 2935W        W19409   4.301  10.937  12.864 -0.1148 -0.0113 -0.1629
 2936W        W19410  15.763   1.071   0.413 -0.4334 -0.1910 -0.2060
 2937W        W19411   5.692   7.748  14.699 -0.1602  0.1662 -0.1298
 2938W        W19412   5.490   7.665  15.976  0.2585 -0.2802  0.2751
 2939W        W19413   3.411   9.660  14.846  0.2932 -0.0248 -0.1416
 2940W        W19414  18.112  15.616  15.371  0.1437  0.1223  0.2301
 2941W        W19415  14.704  11.440  13.484 -0.1260 -0.0153  0.2779
 2942W        W19416   9.800   1.700  13.156  0.1850  0.0906  0.0140
 2943W        W19417  11.754  17.189   2.999 -0.0118  0.0105  0.1489
 2944W        W19418   3.445  17.631   2.992 -0.0813 -0.1941  0.1755
 2945W        W19419  10.947   3.881  13.431  0.1458 -0.3412 -0.1395
 2946W        W19420  17.397  14.420  12.421  0.0259  0.1640 -0.1743
 2947W        W19421  15.746  11.789   5.340 -0.1051  0.1827 -0.1796
 2948W        W19422   5.645  11.853  15.780  0.1921  0.0203 -0.0671
 2949W        W19423  12.547   0.279  15.168  0.1982 -0.0758  0.3816
 2950W        W19424  13.702   8.658   2.544  0.0518  0.1176 -0.4088
 2951W        W19425   5.737   3.509   3.027 -0.3378  0.1431 -0.1234
 2952W        W19426  16.840  14.338   2.387  0.0999  0.0446 -0.3268
 2953W        W19427  15.953   9.826  11.684  0.1637 -0.0675 -0.2973
 2954W        W19428   1.810   2.952   5.155  0.2959  0.4223 -0.1396
 2955W        W19429  15.348  16.995  14.278 -0.2092  0.0929 -0.0627
 2956W        W19430   7.270  16.133  12.224  0.0735 -0.2652 -0.2909
 2957W        W19431   7.359  16.314   3.949  0.1155 -0.1819  0.0842
 2958W        W19432  13.275   9.881   3.029  0.4892 -0.1531  0.2156
 2959W        W19433  16.385   6.795  13.143  0.0175 -0.1471  0.3085
 2960W        W19434  10.542   1.511  11.545 -0.2739 -0.0871 -0.0539
 2961W        W19435   7.353   9.935   2.008 -0.2254 -0.0207  0.0730
 2962W        W19436  12.303  11.825  11.386  0.0828  0.0413 -0.2781
 2963W        W19437   8.771   1.944  13.974 -0.3599 -0.1730 -0.0575
 2964W        W19438  12.194   3.153   0.779  0.0490  0.1905 -0.3139
 2965W        W19439   6.648   6.271   5.449 -0.0633  0.0612 -0.2232
 2966W        W19440   8.520  14.147   2.736  0.0451 -0.0917 -0.5510
 2967W        W19441   7.660  11.255  14.062  0.3082 -0.1892 -0.0303
 2968W        W19442   0.479   3.913  14.571 -0.0725 -0.1261 -0.0666
 2969W        W19443   4.678  13.534   4.420  0.1317 -0.2277 -0.0834
 2970W        W19444  16.578   1.586  15.293  0.0348  0.1056 -0.1688
 2971W        W19445   4.806   1.466   3.286 -0.0820  0.1489  0.0421
 2972W        W19446   8.128  16.096   3.670  0.0157  0.1369  0.0943
 2973W        W19447   1.525  16.045   0.204  0.2334 -0.4350 -0.0916
 2974W        W19448   0.173   0.274  13.843  0.2518 -0.2020 -0.0532
 2975W        W19449   9.024  12.105   2.814 -0.2907 -0.2926  0.3188
 2976W        W19450   1.659   2.274  14.356  0.0289 -0.0550 -0.0965
 2977W        W19451  13.991  10.055   0.873  0.3569 -0.1230  0.0018
 2978W        W19452   2.710   6.301   1.031  0.1568 -0.0242 -0.1316
 2979W        W19453   2.817  17.421  11.034 -0.3117  0.2002 -0.0992
 2980W        W19454  11.061   6.746   1.152  0.0843  0.3617  0.1316
 2981W        W19455  13.275   3.038  12.674  0.0146 -0.1209  0.1862
 2982W        W19456   5.721   9.386  12.392  0.1373 -0.3893  0.3141
 2983W        W19457   0.682  17.894   4.340 -0.1020 -0.0624  0.2614
 2984W        W19458  11.562   1.666   4.928  0.1211  0.1721  0.5333
 2985W        W19459   0.761  12.599   2.688 -0.0516 -0.2768  0.1679
 2986W        W19460  13.739  11.590  13.427 -0.0111  0.0747  0.2417
 2987W        W19461  13.821   7.765   2.822 -0.1380  0.0937  0.0332
 2988W        W19462   4.230   5.013   2.832 -0.0307  0.2274 -0.2410
 2989W        W19463   1.654  17.339  14.347  0.0011  0.0647 -0.3857
 2990W        W19464   3.098   3.586  12.028  0.1643  0.3033  0.5062
 2991W        W19465   8.237  15.641   3.553 -0.2231  0.0641 -0.0726
 2992W        W19466   1.647   5.435  15.344  0.0279  0.1052  0.0217
 2993W        W19467   5.048  17.984  12.559 -0.0448  0.1418 -0.0141
 2994W        W19468  13.072   7.269  12.704  0.2020 -0.0443 -0.1669
 2995W        W19469   6.875   9.803  14.134 -0.1147 -0.0396  0.2236
 2996W        W19470   3.479  17.369  11.600  0.3022  0.2743  0.6050
 2997W        W19471  15.647  10.378   2.359  0.0564  0.0248  0.0088
 2998W        W19472  14.498   7.355  11.680  0.0067  0.3079  0.1176
 2999W        W19473  17.769   4.070   1.754  0.3330 -0.1806 -0.0620
 3000W        W19474   8.725   7.905   2.643  0.0774 -0.4859  0.0633
 3001W        W19475   7.061   1.264   1.472  0.0641  0.0971  0.1853
 3002W        W19476  15.120   2.599   1.574 -0.1946 -0.0563 -0.0941
 3003W        W19477   6.041   2.458  12.891  0.0265 -0.1410  0.3519
 3004W        W19478   2.512   5.920   1.317  0.3754  0.3133  0.0161
 3005W        W19479  16.633  10.582  14.526  0.0906  0.2189  0.1250
 3006W        W19480  13.058  12.433  13.684 -0.0576 -0.0338  0.0242
 3007W        W19481   3.126   2.221   4.985 -0.2014 -0.0800 -0.2403
 3008W        W19482  13.442   3.542   1.251 -0.0922  0.1674 -0.1206
 3009W        W19483  18.261   0.139   1.742 -0.0569 -0.0136  0.1618
 3010W        W19484   3.728  10.061   4.886 -0.1839 -0.0483  0.1721
 3011W        W19485   5.398   1.986   0.470 -0.1330 -0.2132 -0.1427
 3012W        W19486  12.580  12.015   3.144 -0.0741  0.0156  0.0470
 3013W        W19487  16.035   6.456  12.438  0.2803  0.1688  0.4660
 3014W        W19488   2.238   1.917   0.657  0.1191 -0.1150  0.0155
 3015W        W19489  15.823   9.290  14.048  0.0798  0.2086 -0.0420
 3016W        W19490  10.650   9.626   0.765  0.2538 -0.2023  0.0061
 3017W        W19491  14.231  13.260   0.457 -0.0104 -0.0279 -0.3527
 3018W        W19492  12.362   6.710  11.697  0.5046 -0.0120  0.1182
 3019W        W19493   5.736  14.487  15.168  0.2293  0.0169 -0.1205
 3020W        W19494   2.034  10.521  12.553 -0.0178  0.2417  0.0989
 3021W        W19495  14.514  17.579   3.289 -0.4439 -0.0485 -0.1340
 3022W        W19496   9.760  13.448   4.503  0.0864  0.3919  0.3090
 3023W        W19497  16.376  11.282  15.303 -0.3695  0.0228 -0.2429
 3024W        W19498  13.956   3.161   3.241  0.0790  0.1671 -0.0698
 3025W        W19499  14.354  13.086   5.387  0.1024  0.5343  0.1483
 3026W        W19500   7.141   0.034   4.287 -0.3789 -0.1017  0.0238
 3027W        W19501   7.053  16.615   0.854  0.2069 -0.0755 -0.0591
 3028W        W19502  10.753  11.955   2.420  0.1320 -0.3376  0.1641
 3029W        W19503   7.272  18.009   4.733  0.1671  0.0403  0.0639
 3030W        W19504   2.102   7.486  13.111  0.1128  0.0688  0.0408
 3031W        W19505   7.719  15.833   5.975 -0.2066  0.0993  0.2470
 3032W        W19506  14.300  15.245   0.314  0.0489  0.0154 -0.4702
 3033W        W19507   5.464  16.522   4.239 -0.1276  0.0935 -0.1011
 3034W        W19508   2.047   0.854  15.482 -0.1061 -0.0904  0.1537
 3035W        W19509   1.039  11.339  10.682 -0.0692  0.0110  0.0736
 3036W        W19510   2.477   7.999   3.400  0.0731  0.4553 -0.1629
 3037W        W19511  12.874  14.135  15.081 -0.2765  0.4540 -0.2683
 3038W        W19512   9.213  18.043  13.704 -0.1996 -0.1256 -0.1885
 3039W        W19513   9.028   8.447   4.516 -0.2170 -0.0423  0.1455
 3040W        W19514  14.669   5.783  13.259  0.2036 -0.1254  0.3031
 3041W        W19515   9.497  12.983  15.284  0.1105 -0.1665  0.0914
 3042W        W19516  11.697   6.856  12.545  0.1368  0.2021  0.0699
 3043W        W19517   8.243  10.957   3.379  0.1905  0.0085 -0.0245
 3044W        W19518   9.776   2.340   0.882  0.1187 -0.3027  0.3068
 3045W        W19519   0.429  13.372   0.506 -0.0974  0.0225 -0.1235
 3046W        W19520   3.596  13.828   5.517 -0.2460 -0.0346 -0.0861
 3047W        W19521  15.085  11.996   1.450 -0.2292 -0.0644 -0.1095
 3048W        W19522  12.752  17.384  12.713 -0.3465  0.0825  0.1737
 3049W        W19523   2.142  11.888   3.041 -0.3129 -0.5145 -0.1799
 3050W        W19524  17.606   6.409  14.928 -0.0062  0.2543 -0.2041
 3051W        W19525  18.104   9.493   4.502 -0.1428 -0.1984  0.0659
 3052W        W19526   9.413  11.921   3.039  0.1821  0.0475  0.0003
 3053W        W19527  17.605   4.758   5.006  0.2909 -0.2638 -0.1102
 3054W        W19528   1.104   6.025  13.288 -0.0218  0.2104  0.1474
 3055W        W19529  11.268  11.792  14.271 -0.3427 -0.1578  0.1693
 3056W        W19530   6.880  10.481   3.117  0.0256 -0.4603 -0.1672
 3057W        W19531   2.819   5.104  10.930 -0.1129  0.2316 -0.1448
 3058W        W19532   2.423  10.778  12.793 -0.3433  0.4094 -0.0607
 3059W        W19533   3.918   1.013  11.761 -0.0678 -0.0841  0.1233
 3060W        W19534   8.950   4.242  11.831 -0.2819 -0.2131  0.0529
 3061W        W19535  16.068  13.020   0.904 -0.1715 -0.2802 -0.2643
 3062W        W19536  17.957   2.327   5.011 -0.0169  0.2888 -0.1647
 3063W        W19537  12.255   0.659  13.686  0.1433  0.0147 -0.1432
 3064W        W19538   3.497  10.005  12.477  0.1448  0.1189  0.2501
 3065W        W19539   0.333   0.568   0.439  0.1907 -0.0955  0.3235
 3066W        W19540   9.637   6.690  11.755  0.0525  0.0710  0.0746
 3067W        W19541  13.636   4.478  11.668  0.0555 -0.1711 -0.6036
 3068W        W19542   7.613   8.707  10.766 -0.0572 -0.0139 -0.2041
 3069W        W19543  15.670   1.326   5.068  0.0405 -0.1822 -0.1835
 3070W        W19544  16.376  14.827  14.491 -0.3342  0.0103  0.0771
 3071W        W19545  15.345   0.328  15.712 -0.1144 -0.3204 -0.2795
 3072W        W19546   2.550  15.449  10.382 -0.1504  0.2559 -0.1347
 3073W        W19547   6.490   1.565  11.824 -0.1379 -0.2951  0.5037
 3074W        W19548  13.760   8.249   0.170  0.2072  0.2162 -0.0868
 3075W        W19549  11.323   1.050  16.027 -0.1435  0.1040  0.0519
 3076W        W19550   3.935  12.969  11.297  0.1078 -0.0863 -0.1225
 3077W        W19551  11.372   4.684   1.447  0.5054  0.3376 -0.0845
 3078W        W19552  15.852  12.452   3.967  0.1328  0.2077 -0.2441
 3079W        W19553   3.506  13.960   3.391 -0.3255  0.1457 -0.2021
 3080W        W19554   0.950   0.147  15.580  0.2430  0.2618  0.4084
 3081W        W19555   2.886   5.305   3.635 -0.1145  0.0728 -0.3935
 3082W        W19556   2.411   8.932  11.439 -0.0502  0.0496 -0.0530
 3083W        W19557   1.112   9.353  12.811  0.0985 -0.0249  0.0949
 3084W        W19558  11.585   8.151   1.900 -0.1375 -0.1551 -0.2068
 3085W        W19559  10.747  10.544  12.555  0.1768  0.3431  0.1331
 3086W        W19560   3.219   6.773   5.064 -0.2966  0.0247 -0.1635
 3087W        W19561  14.131   4.314  15.489  0.3508  0.1669  0.0456
 3088W        W19562   8.828   1.562   3.115  0.0276  0.1235  0.1154
 3089W        W19563   3.476   0.758   5.325 -0.1847 -0.1641  0.0760
 3090W        W19564  18.004  10.028  15.830  0.1941 -0.0212  0.2128
 3091W        W19565   6.922  16.649  13.571 -0.0467 -0.0327  0.3472
 3092W        W19566   1.658   1.054   4.658  0.1228  0.0687  0.0605
 3093W        W19567   4.059   6.357   5.382  0.1789 -0.2798 -0.1838
 3094W        W19568  16.246  10.766  13.710 -0.0190 -0.0573  0.3141
 3095W        W19569  16.173   3.112   4.694  0.3990  0.0052  0.0008
 3096W        W19570  11.761  13.011  15.578 -0.0534  0.1348  0.0555
 3097W        W19571  10.237   0.931  11.510 -0.0038 -0.1394 -0.1468
 3098W        W19572   5.761   3.058   3.167 -0.1443  0.2558 -0.1811
 3099W        W19573  12.368   8.103  14.816 -0.2316 -0.1984  0.3688
 3100W        W19574  16.590   5.544  12.042  0.0351 -0.0791 -0.1541
 3101W        W19575  10.206   6.109  13.902  0.2505 -0.0911  0.0584
 3102W        W19576   2.935   2.101  12.395 -0.0102 -0.3033  0.2105
 3103W        W19577   9.365   1.388  14.283  0.1494 -0.1125  0.0977
 3104W        W19578   7.598   6.242   1.198  0.1888  0.0155  0.2781
 3105W        W19579  15.008  15.366   3.183 -0.0708 -0.1762  0.2381
 3106W        W19580   7.299   3.528  11.890 -0.1649  0.1358  0.0715
 3107W        W19581  14.352  14.348   2.897  0.3679  0.3644 -0.1241
 3108W        W19582   5.161  11.287   2.215  0.2187  0.2190  0.3564
 3109W        W19583  12.990   1.638   3.202  0.1488  0.0581  0.1936
 3110W        W19584  17.985   5.837   1.629  0.1582 -0.0032 -0.2137
 3111W        W19585  16.695  12.369   3.362 -0.1912 -0.3866  0.1416
 3112W        W19586   3.191   1.129  14.614 -0.4808  0.1080 -0.1787
 3113W        W19587   6.351  15.826   1.132 -0.0330 -0.0279  0.2080
 3114W        W19588   7.625   8.927  15.090 -0.0878  0.3019 -0.2307
 3115W        W19589   3.961  15.209   3.000  0.0545 -0.0265 -0.1741
 3116W        W19590   8.422  16.833  14.680  0.0463  0.3676 -0.3187
 3117W        W19591  13.639   1.374   1.893 -0.0607  0.0754  0.1192
 3118W        W19592  17.461  13.067   0.109 -0.0131  0.2784 -0.4983
 3119W        W19593   1.550   9.045   5.524  0.1803  0.0392  0.0930
 3120W        W19594  11.623  11.304   5.064 -0.1581  0.2467 -0.1145
 3121W        W19595   5.299   9.043  13.510 -0.2006 -0.1592 -0.1126
 3122W        W19596   7.039   7.668   5.372 -0.3264  0.1602 -0.0652
 3123W        W19597  16.370   1.742   4.572 -0.1036 -0.2051  0.0789
 3124W        W19598   8.016   2.778  14.500 -0.2631  0.1000  0.1959
 3125W        W19599   6.664   4.017   4.424 -0.4157  0.1869 -0.0269
 3126W        W19600   5.847  16.228   0.563  0.0517  0.1594  0.2046
 3127W        W19601   2.389   7.938  14.433  0.0477  0.0542  0.1325
 3128W        W19602  12.455   3.517  14.699 -0.1890 -0.1040  0.3025
 3129W        W19603   1.918   6.086   6.046 -0.0856 -0.0232  0.3534
 3130W        W19604  14.868   4.060  13.108  0.0215 -0.0960 -0.1140
 3131W        W19605  14.177   5.630  11.039 -0.1458 -0.0433 -0.1087
 3132W        W19606  13.486   2.296   5.550 -0.0966 -0.0674  0.2145
 3133W        W19607   3.725   4.658  15.904  0.0221 -0.1533  0.4659
 3134W        W19608   6.858   4.032  13.709  0.1871 -0.0493 -0.0588
 3135W        W19609  16.011  13.287  12.678 -0.0823  0.1603 -0.2279
 3136W        W19610   0.357  15.795  15.304  0.2782 -0.0984 -0.3464
 3137W        W19611   4.303   8.132  14.697  0.1153  0.3197 -0.1467
 3138W        W19612   1.027   5.181   0.662 -0.3288  0.1027 -0.1325
 3139W        W19613   2.237   0.172   1.016 -0.2136  0.1732 -0.0896
 3140W        W19614  14.815  12.380   3.284 -0.0465  0.3637  0.0129
 3141W        W19615   7.489   9.590  12.009 -0.0917  0.2702  0.1875
 3142W        W19616  10.902  15.392   1.643 -0.0451 -0.0736 -0.1282
 3143W        W19617   5.881  12.479  13.360  0.3273 -0.3695  0.0917
 3144W        W19618   9.621   5.252   2.849  0.2075  0.1565  0.1693
 3145W        W19619  11.126   4.649   0.875  0.1700 -0.2819 -0.2237
 3146W        W19620  11.879   4.023  10.781 -0.0138 -0.1453 -0.1146
 3147W        W19621   7.654   2.092  10.568 -0.1194  0.0544 -0.0318
 3148W        W19622  10.879  15.160   0.830 -0.0979 -0.1432 -0.0107
 3149W        W19623   3.209  17.233  12.681 -0.0214 -0.1790 -0.1652
 3150W        W19624   4.647   2.028  11.787  0.0894  0.1196  0.2525
 3151W        W19625   2.761  17.621   2.079  0.1062  0.0061 -0.2056
 3152W        W19626   9.578   0.689  13.638 -0.3252  0.2758  0.0162
 3153W        W19627   8.355   4.693  14.818  0.0200  0.0440 -0.1702
 3154W        W19628   3.866  17.361  15.191 -0.1787  0.1162  0.2728
 3155W        W19629  16.657   5.224  11.616  0.0468  0.0889 -0.2061
 3156W        W19630  18.254   7.583  13.446  0.2337 -0.0586  0.0441
 3157W        W19631  11.714  14.932  11.235  0.1163 -0.0169 -0.1999
 3158W        W19632  16.383   4.574   0.633 -0.1078 -0.2237 -0.1564
 3159W        W19633  12.054  10.255   0.492 -0.0821  0.4081 -0.4978
 3160W        W19634  18.127   5.376   5.145  0.1699  0.1518  0.3104
 3161W        W19635  15.319   7.894   4.561 -0.1261  0.0379 -0.3519
 3162W        W19636  12.799   7.544   0.000  0.0722  0.3582  0.1343
 3163W        W19637  14.783   0.978  12.506 -0.1456  0.0929  0.1597
 3164W        W19638  16.336   3.604  16.244 -0.1834 -0.0793  0.0196
 3165W        W19639  13.753   7.211  14.489  0.0629 -0.3358 -0.0976
 3166W        W19640   8.088  11.200  12.142 -0.0520 -0.0663  0.0460
 3167W        W19641   4.986   0.225   4.724 -0.2314 -0.1926 -0.0390
 3168W        W19642   7.186   2.369  13.630 -0.1656 -0.4915  0.1289
 3169W        W19643  10.577   4.263  13.415  0.1753 -0.0694  0.0195
 3170W        W19644  14.761  10.532   4.104  0.0437 -0.0103 -0.5178
 3171W        W19645  12.636  15.762   3.455 -0.0927  0.0699  0.3159
 3172W        W19646  12.986  11.440   1.415  0.1401 -0.0622  0.0835
 3173W        W19647   3.329  11.426   2.592 -0.0212 -0.1921  0.1023
 3174W        W19648   4.860  12.693   3.056  0.0749  0.0112  0.0275
 3175W        W19649  13.579  13.759   3.125 -0.0168 -0.0096  0.0927
 3176W        W19650   7.772  11.648  15.854 -0.1707  0.0384 -0.2697
 3177W        W19651   1.068  11.371  15.998 -0.1877  0.1604  0.2467
 3178W        W19652  12.808  10.603  15.642 -0.3216 -0.0877 -0.0540
 3179W        W19653  13.755  11.535  15.393  0.2222  0.0326 -0.0039
 3180W        W19654  16.245  11.445   0.811 -0.0010 -0.1807  0.2144
 3181W        W19655   7.606  10.223   1.080  0.1840  0.1311 -0.0621
 3182W        W19656   2.034   2.257   4.072  0.2422 -0.0242  0.1122
 3183W        W19657  15.187  15.543  14.283 -0.1877 -0.1100  0.5181
 3184W        W19658   5.212   4.085  12.861 -0.0037 -0.2616 -0.1149
 3185W        W19659  17.918   1.655   1.670 -0.0194  0.1207  0.3448
 3186W        W19660   1.315  14.351  15.997  0.0758 -0.1039  0.2797
 3187W        W19661  17.198   9.812   4.271  0.0706  0.0254  0.1589
 3188W        W19662   3.892   2.342   0.275  0.2548 -0.0208 -0.1113
 3189W        W19663  17.028   9.902   3.460 -0.0529 -0.0263 -0.0968
 3190W        W19664   0.869   2.145   2.739 -0.1913 -0.0298 -0.0001
 3191W        W19665  15.148   8.042   5.561  0.2841 -0.2824  0.2047
 3192W        W19666   8.131   7.668  15.404  0.0884  0.4044  0.2293
 3193W        W19667  15.731  11.772   0.771 -0.1234 -0.1146  0.2157
 3194W        W19668   8.501  16.275  13.342  0.0518  0.0163  0.2730
 3195W        W19669   8.975   5.137  12.186  0.3944  0.3334 -0.0409
 3196W        W19670   4.415   5.794  12.421  0.1721 -0.1477 -0.0179
 3197W        W19671  10.521   6.466   2.514 -0.1598  0.4447 -0.0563
 3198W        W19672  11.789  15.582   1.728 -0.0947 -0.3243 -0.1790
 3199W        W19673   2.732   6.515  12.353 -0.0076  0.3644  0.0529
 3200W        W19674  15.486   5.612   3.628 -0.1302 -0.0989  0.2580
 3201W        W19675   1.237   5.452   4.640  0.2866  0.2315  0.0582
 3202W        W19676   6.502  17.612  11.668  0.3961  0.1568 -0.1098
 3203W        W19677   2.775   3.831   5.039  0.2467 -0.1842 -0.3464
 3204W        W19678  14.351  16.536  14.309 -0.0369 -0.1809  0.1490
 3205W        W19679  12.750   0.722  13.788  0.2566  0.0399  0.0567
 3206W        W19680   4.554  12.813  13.741  0.2476 -0.1853  0.1922
 3207W        W19681   2.310   2.901   5.194 -0.1095 -0.0858  0.0924
 3208W        W19682   7.961   1.816   2.897 -0.0802  0.2315  0.4819
 3209W        W19683  13.109  11.632  15.299 -0.1971 -0.0962  0.2477
 3210W        W19684  10.201  12.157  16.106 -0.3043  0.0174 -0.3218
 3211W        W19685  13.120  10.424   0.455  0.1538 -0.2310  0.0786
 3212W        W19686   8.073  14.047   2.989 -0.1714  0.0226 -0.0052
 3213W        W19687  12.319   6.265  11.419  0.3372  0.0135 -0.3725
 3214W        W19688  12.667  15.597   2.242  0.0257  0.0660 -0.1310
 3215W        W19689  12.005   6.720  13.482 -0.0683  0.1179 -0.0983
 3216W        W19690   9.089  14.760   4.725 -0.1069  0.1580  0.3604
 3217W        W19691   5.918  11.312  12.679 -0.0626  0.0198 -0.1669
 3218W        W19692  12.451  10.457  14.686 -0.0494  0.0325 -0.0054
 3219W        W19693   5.605   2.741   3.906 -0.1155  0.1602 -0.0163
 3220W        W19694   3.473   4.987  12.216  0.0815  0.2243 -0.0408
 3221W        W19695   8.847  14.239   0.019 -0.0871  0.0174 -0.1629
 3222W        W19696  13.695  12.834   2.945 -0.0996  0.0570  0.1053
 3223W        W19697   6.169   1.286   3.052 -0.0899 -0.1655 -0.0463
 3224W        W19698  12.752  17.888  15.651  0.0785 -0.0679  0.0496
 3225W        W19699  11.463   6.225   0.980 -0.1669 -0.1502  0.2428
 3226W        W19700  17.784  11.592   3.158 -0.2656  0.0502  0.1006
 3227W        W19701   1.161  14.591  12.017 -0.1884 -0.1091 -0.2783
 3228W        W19702  16.172  16.358  12.016 -0.2605  0.3717 -0.0155
 3229W        W19703   6.836  16.143  11.548 -0.0980 -0.0140 -0.1083
 3230W        W19704  14.065   1.679  15.068 -0.1336  0.0787 -0.3165
 3231W        W19705  11.581   9.398  14.988  0.0288 -0.3615 -0.1288
 3232W        W19706   1.707  12.599  13.527 -0.1136 -0.2182 -0.1216
 3233W        W19707  16.139   7.577  11.347 -0.1331  0.2690 -0.0985
 3234W        W19708  12.175  14.918   5.506 -0.0202  0.0628  0.2432
 3235W        W19709  11.988  17.647   0.611 -0.1340  0.0748 -0.0499
 3236W        W19710   0.128  14.742   4.142  0.5926  0.1388  0.0415
 3237W        W19711  15.611   1.155  16.254  0.0638 -0.3025  0.1002
 3238W        W19712  13.443  17.608  12.673 -0.2350 -0.1293 -0.1513
 3239W        W19713  12.323  14.297   1.723 -0.2485  0.0378 -0.0391
 3240W        W19714  17.073  16.290   0.158  0.1693  0.1608  0.1284
 3241W        W19715  16.829  11.171  13.972 -0.0627 -0.0122 -0.0360
 3242W        W19716   9.063   2.788   3.313  0.0108  0.1566 -0.0728
 3243W        W19717  10.103  12.463  12.201  0.1001 -0.3795  0.2192
 3244W        W19718   2.182  11.428  12.228 -0.2245 -0.2637  0.0329
 3245W        W19719   8.818  15.483  15.083 -0.3216  0.2500  0.1218
 3246W        W19720  15.188   5.921  13.339  0.0258 -0.0916 -0.1449
 3247W        W19721  17.735  12.674  16.042  0.2161 -0.0449 -0.1892
 3248W        W19722  10.484   4.505   3.176 -0.0518 -0.0937  0.1094
 3249W        W19723   2.504  12.131   2.321  0.0545 -0.2023  0.1469
 3250W        W19724   0.860   6.470   0.368 -0.0577 -0.1722 -0.1308
 3251W        W19725   7.288  17.012  12.047  0.0237  0.2439  0.2510
 3252W        W19726  10.691  10.462   5.329  0.3140 -0.3588 -0.1105
 3253W        W19727  15.747  17.634  13.660  0.3629 -0.0865  0.0024
 3254W        W19728  17.639   5.906   2.785 -0.1494  0.0049 -0.0597
 3255W        W19729   5.969  11.998  11.240  0.0717  0.1305  0.2558
 3256W        W19730   3.252   1.664  12.842  0.1301 -0.0536 -0.0042
 3257W        W19731  14.650  14.687  12.336  0.2941  0.0703  0.2373
 3258W        W19732   0.385  13.641  15.150  0.3852 -0.2093 -0.1819
 3259W        W19733  14.731  15.653   3.916  0.0727 -0.0018 -0.4372
 3260W        W19734   7.016   9.966   3.115 -0.1501  0.3647  0.0514
 3261W        W19735  12.386  10.484  15.298 -0.1625 -0.0206  0.2506
 3262W        W19736   2.864   4.607   2.604  0.1136  0.1034  0.0802
 3263W        W19737   1.975   6.346  14.697  0.2224  0.1011 -0.2970
 3264W        W19738  15.555   2.400   2.838 -0.0112  0.0823  0.0676
 3265W        W19739  12.869   8.066  14.421 -0.0650 -0.4551 -0.1557
 3266W        W19740   1.317   6.685  14.250 -0.0953  0.2728  0.1325
 3267W        W19741  10.736   1.579  14.756  0.0225 -0.2850 -0.0679
 3268W        W19742  10.798   0.554  12.534  0.2180 -0.2542 -0.1825
 3269W        W19743  12.272   9.725   5.644  0.1916  0.0900 -0.0177
 3270W        W19744  16.750  10.300  16.229  0.2234 -0.1710 -0.2119
 3271W        W19745   2.479   2.695  13.326 -0.2842 -0.1184  0.2098
 3272W        W19746   6.061  14.233   2.505  0.0051  0.1858  0.1237
 3273W        W19747   3.520   7.113  12.085 -0.2582 -0.0855 -0.2522
 3274W        W19748  13.294  14.769   3.832 -0.0104 -0.2581  0.1245
 3275W        W19749   4.289  14.914   0.290 -0.1071 -0.1480  0.2144
 3276W        W19750   2.869  11.438   4.652 -0.2248  0.2199 -0.2745
 3277W        W19751  12.692   7.314  14.537  0.1391  0.1644 -0.0820
 3278W        W19752   1.314  17.471  15.588  0.0873  0.1176  0.0591
 3279W        W19753   0.750   9.504   1.326 -0.0794 -0.1775 -0.1437
 3280W        W19754  12.717  15.921   4.484  0.1012 -0.0949  0.0062
 3281W        W19755   2.553   8.961  13.780  0.2315  0.1623  0.0951
 3282W        W19756   8.639   3.208  11.622  0.2977  0.2326 -0.2608
 3283W        W19757  12.489  10.960  15.259  0.0788 -0.1524 -0.1020
 3284W        W19758  11.921   4.820  15.956  0.1178 -0.1649 -0.2348
 3285W        W19759   5.429  13.188   5.643  0.3072  0.1514 -0.1208
 3286W        W19760   0.711   5.291   2.947  0.0762 -0.0651  0.1683
 3287W        W19761   3.163  13.376   2.714  0.1158  0.2861  0.3510
 3288W        W19762  16.250   5.299   2.543 -0.0447  0.2004  0.0529
 3289W        W19763   1.978  18.182   0.680  0.1410 -0.2072 -0.1755
 3290W        W19764  11.273  15.562  14.779  0.3938 -0.0015 -0.0317
 3291W        W19765  13.536  16.631  14.487 -0.1765  0.3349 -0.1379
 3292W        W19766   0.584  17.658  11.695  0.0301 -0.0168  0.3255
 3293W        W19767   3.678  17.219   2.936 -0.0229 -0.0348  0.0504
 3294W        W19768  11.485   2.515   1.260 -0.1259  0.0848 -0.1408
 3295W        W19769   6.273   5.525   0.690  0.0908  0.3008  0.3564
 3296W        W19770   6.380  10.009  11.329  0.0036  0.2144  0.0184
 3297W        W19771  16.999   1.235  10.556  0.0524 -0.2457  0.0882
 3298W        W19772  10.566  11.510   2.639  0.1779 -0.0259  0.0181
 3299W        W19773   0.042   7.477   4.483 -0.1355 -0.2297  0.1349
 3300W        W19774   1.908   2.739  14.291 -0.1133  0.0899 -0.0144
 3301W        W19775  13.821   3.539  14.697 -0.0019 -0.1718 -0.0844
 3302W        W19776   1.508   4.447   5.253  0.0606 -0.1960  0.1034
 3303W        W19777   7.979   2.461  10.059 -0.2025  0.1215 -0.1717
 3304W        W19778  13.436   6.917   1.024 -0.0520  0.3134  0.5012
 3305W        W19779   6.641  17.875  15.156 -0.0998  0.0144  0.3102
 3306W        W19780  13.112   2.978   0.259  0.0601  0.0810  0.5122
 3307W        W19781   5.191   8.327   4.573  0.0443 -0.1494 -0.1182
 3308W        W19782   8.719  15.210  12.525 -0.4956  0.1409 -0.4635
 3309W        W19783   5.523  17.837  13.545 -0.1455  0.2173 -0.0255
 3310W        W19784  17.940  11.504  14.767  0.2389 -0.1334 -0.2775
 3311W        W19785  14.876   0.366   6.030 -0.2512 -0.0477  0.2590
 3312W        W19786  10.533   8.062  15.379 -0.0298  0.0741 -0.2026
 3313W        W19787   1.350  12.913   3.953 -0.0690 -0.1449 -0.3450
 3314W        W19788   7.351   1.764  12.415 -0.1212  0.2536  0.1510
 3315W        W19789   1.974   0.098   5.702 -0.0603  0.3282  0.1557
 3316W        W19790   2.970   8.663  16.099  0.2426 -0.2949  0.3492
 3317W        W19791  14.071  10.805   4.786 -0.1195  0.2670  0.2123
 3318W        W19792   1.552   7.417   3.674 -0.0363  0.1632 -0.0017
 3319W        W19793  16.970  18.203   2.599 -0.0394  0.0626 -0.1329
 3320W        W19794   6.727  15.191   4.440 -0.1049 -0.1202  0.0028
 3321W        W19795   4.575  12.062  13.336  0.4527  0.2231  0.1212
 3322W        W19796   9.450   1.876  15.959  0.0510 -0.1278 -0.2680
 3323W        W19797  11.347   8.164  10.424 -0.2641  0.4321  0.1386
 3324W        W19798   7.042   4.319   4.331 -0.0964 -0.0110 -0.1789
 3325W        W19799  15.264  17.252   5.144 -0.0040 -0.1295 -0.0986
 3326W        W19800  14.267   2.504   1.543 -0.2523 -0.0780 -0.1521
 3327W        W19801  12.988  15.099  13.734  0.3237 -0.2666 -0.0327
 3328W        W19802  12.631   2.264  16.071 -0.1681  0.1525 -0.2760
 3329W        W19803  17.006  13.403  12.438  0.0021  0.1419 -0.3262
 3330W        W19804  14.221   6.529  12.155  0.3192  0.0968  0.1451
 3331W        W19805   3.647   5.941   5.486 -0.2435  0.0994  0.1353
 3332W        W19806   5.948  10.551   2.895  0.1278 -0.2610 -0.0804
 3333W        W19807  17.198  14.374  14.797 -0.0016  0.3076  0.4219
 3334W        W19808   4.191  18.017  16.268 -0.2656  0.2041 -0.0294
 3335W        W19809  13.233   3.980  13.557  0.1353 -0.1185  0.2479
 3336W        W19810  14.951   5.759   3.745 -0.1441 -0.3746 -0.1139
 3337W        W19811  17.571  13.714  14.917 -0.0416  0.0070  0.1266
 3338W        W19812  13.782   6.968   0.586 -0.2034  0.1416  0.2812
 3339W        W19813  16.323   5.733   1.492 -0.1382  0.2288  0.1171
 3340W        W19814  12.199   8.571  15.052  0.0468 -0.1040 -0.1686
 3341W        W19815   2.612   2.192  15.529 -0.0316 -0.0683  0.3281
 3342W        W19816   4.403  12.915   2.933 -0.0482 -0.0600 -0.1366
 3343W        W19817   3.681  12.942   3.497 -0.2468 -0.1575 -0.0678
 3344W        W19818   4.875   8.795  13.264  0.0135  0.0242 -0.0778
 3345W        W19819  13.378   6.968  14.775  0.0228 -0.2100  0.0296
 3346W        W19820   2.683   3.102   1.220  0.2982 -0.1074  0.0931
 3347W        W19821  14.209   3.491  15.715 -0.0549  0.1158  0.0743
 3348W        W19822  10.870   1.859   2.905  0.0858 -0.2127 -0.0563
 3349W        W19823  11.328  10.787   5.151  0.1716  0.2608 -0.0462
 3350W        W19824   0.556  12.768   3.681 -0.0357  0.0998 -0.1152
 3351W        W19825   5.364  10.685  12.112  0.0612 -0.0163 -0.2373
 3352W        W19826   0.795   5.266  12.917  0.3931  0.0179  0.2895
 3353W        W19827  14.949   9.173   5.022  0.0763  0.1457 -0.0430
 3354W        W19828  13.612   5.693  12.250 -0.3338 -0.0554 -0.2884
 3355W        W19829   3.955  12.358  12.707 -0.3582 -0.2077  0.1206
 3356W        W19830  11.543  17.572   1.201 -0.0686  0.0375 -0.2062
 3357W        W19831   3.757  14.301   2.435  0.0904  0.1790 -0.1683
 3358W        W19832  10.222  12.761   4.194  0.2363 -0.0649  0.0788
 3359W        W19833   2.475   5.122   2.561 -0.1161 -0.1381  0.2522
 3360W        W19834   0.910   2.128  13.214 -0.3163  0.0337 -0.0368
 3361W        W19835   5.657  16.825   5.162  0.0504  0.1322  0.2544
 3362W        W19836   6.170  13.341   4.336 -0.0201 -0.1583  0.2130
 3363W        W19837   6.864  15.577  14.729  0.0246 -0.1352  0.1094
 3364W        W19838  18.176  12.530   3.644 -0.0569 -0.0653 -0.1805
 3365W        W19839   2.792   3.871  15.280 -0.0062  0.1018  0.0814
 3366W        W19840  13.310   7.160   1.734  0.0112  0.1808  0.1995
 3367W        W19841   8.076   0.764  13.139  0.1710 -0.1955 -0.0799
 3368W        W19842   8.675  13.316   3.090  0.2338 -0.0523  0.2607
 3369W        W19843   2.035   0.876   1.913 -0.0974 -0.1133 -0.0597
 3370W        W19844  10.420  16.714   5.129  0.0438  0.1443  0.1643
 3371W        W19845  12.794   1.098   2.692 -0.0724 -0.0551 -0.0417
 3372W        W19846  13.385  17.329   2.503 -0.0576  0.0781 -0.2010
 3373W        W19847   4.987  11.170  15.889  0.1356  0.1148 -0.0500
 3374W        W19848   7.447   1.882   2.799 -0.0089 -0.0361 -0.1435
 3375W        W19849  18.007   3.170  11.740  0.0798  0.0966  0.0097
 3376W        W19850  15.038   7.434   5.473  0.1149 -0.0628 -0.1850
 3377W        W19851  13.730   9.578   0.685  0.1283 -0.1256 -0.0556
 3378W        W19852   2.193   5.377  11.451 -0.2727  0.1091  0.3159
 3379W        W19853   9.657   1.957   1.354 -0.1786 -0.0731  0.2912
 3380W        W19854   7.467  17.571   4.727 -0.2190 -0.1626 -0.1832
 3381W        W19855  13.963   1.136  11.456 -0.0387  0.0291  0.1149
 3382W        W19856  13.089   1.409  15.645  0.0496  0.0655 -0.1483
 3383W        W19857  17.020  10.029  12.746  0.1385 -0.0376  0.2007
 3384W        W19858  15.243   8.828   4.320 -0.1964 -0.0990 -0.1975
 3385W        W19859   3.466   5.710  13.062 -0.1925 -0.1415 -0.0852
 3386W        W19860  13.485   1.080  11.710 -0.0803  0.1918 -0.2318
 3387W        W19861   1.123   3.807  15.347  0.2055 -0.0877  0.2475
 3388W        W19862   2.715   8.587   4.800 -0.1795  0.2029 -0.2096
 3389W        W19863  16.435   7.121  10.928 -0.1797 -0.1477 -0.1451
 3390W        W19864   3.753   9.182   4.713 -0.2564  0.0127 -0.4074
 3391W        W19865   1.090   2.618  11.602 -0.1355  0.1033  0.1244
 3392W        W19866  12.893   0.434  11.717 -0.0721  0.0163 -0.1719
 3393W        W19867   6.579  13.702  13.399  0.1203  0.3057  0.1820
 3394W        W19868  17.402   6.484  14.491  0.2470 -0.1671  0.2451
 3395W        W19869  11.575   4.386   6.012 -0.2573  0.0143 -0.0158
 3396W        W19870   7.669  15.039  13.351  0.1572 -0.2929  0.0431
 3397W        W19871   9.137  16.972  13.888  0.1104  0.1888  0.1083
 3398W        W19872  17.075  13.603  14.983  0.0762 -0.3260 -0.4777
 3399W        W19873   4.528  11.076  11.577 -0.2445 -0.0684 -0.0428
 3400W        W19874   3.096  15.851  14.483 -0.0474  0.0568 -0.0670
 3401W        W19875   2.468   0.755   0.452 -0.0611 -0.3295 -0.1253
 3402W        W19876  11.147  11.991  13.454  0.1414  0.2366  0.2887
 3403W        W19877   1.883   2.260   4.556 -0.0575 -0.0745 -0.0030
 3404W        W19878  16.449   6.091   2.467 -0.1549 -0.1913 -0.0983
 3405W        W19879  17.876  10.847  15.326 -0.0802  0.0102  0.1035
 3406W        W19880   0.770   9.198   4.112  0.1550 -0.0656 -0.0458
 3407W        W19881   1.488  14.146   5.624 -0.0508 -0.2841  0.3545
 3408W        W19882   9.102  13.100   1.204  0.0198 -0.3317  0.0787
 3409W        W19883  10.355   0.448   3.859  0.0767 -0.2125  0.0694
 3410W        W19884  16.519   0.414  11.421 -0.4930 -0.2141  0.2602
 3411W        W19885   1.379  18.318   1.436 -0.2109 -0.2868  0.0565
 3412W        W19886  14.704  14.480  13.321  0.1145  0.0389 -0.2149
 3413W        W19887  10.248   2.849  14.280 -0.1188  0.1082  0.3193
 3414W        W19888  10.937  10.638   4.805 -0.0285 -0.1031 -0.0393
 3415W        W19889   4.983   8.405  10.811  0.0817 -0.2043 -0.0916
 3416W        W19890  10.994   8.101  14.237 -0.2268 -0.2352  0.1640
 3417W        W19891   4.595   9.269   0.802 -0.0130  0.0170  0.0888
 3418W        W19892  11.658   4.738   0.260 -0.0228 -0.1303 -0.0386
 3419W        W19893   5.600  13.930  15.191 -0.2332  0.0238 -0.2295
 3420W        W19894  18.197  10.903   0.132  0.0083 -0.1302 -0.0229
 3421W        W19895   2.462   2.094  14.864  0.0509 -0.1078 -0.0794
 3422W        W19896   8.814   0.432   2.374 -0.0339  0.2767  0.2480
 3423W        W19897   1.083   1.035  14.668 -0.0546  0.1495  0.0371
 3424W        W19898  12.861   6.938  11.251 -0.1548  0.0861  0.0251
 3425W        W19899   9.456  12.673   0.846  0.0939  0.0973 -0.0231
 3426W        W19900   5.826   6.503  12.319  0.0806  0.2608  0.4126
 3427W        W19901  11.356  13.060   3.658 -0.0656 -0.1564  0.0168
 3428W        W19902   3.523  13.693   3.821 -0.2908  0.1986  0.1750
 3429W        W19903   4.887  10.901   2.604  0.1531  0.3666 -0.1407
 3430W        W19904  16.087   8.283   2.427  0.0298  0.1980  0.0851
 3431W        W19905  16.095  13.410   1.883  0.1369 -0.1288 -0.3959
 3432W        W19906   7.442   4.382  16.121 -0.2114 -0.1209  0.2086
 3433W        W19907  12.314  11.497   0.168 -0.1440  0.0497 -0.1772
 3434W        W19908   8.867  10.729   5.271 -0.2542 -0.1097 -0.0522
 3435W        W19909   0.327  17.081   5.182  0.1536  0.1965  0.0260
 3436W        W19910  11.257  11.962   4.134 -0.1358  0.0463 -0.1266
 3437W        W19911  10.924  10.336   2.831  0.1543  0.1808 -0.1382
 3438W        W19912   3.771   7.907  14.145 -0.2016 -0.0147  0.0493
 3439W        W19913  12.845  11.064   4.260  0.2523 -0.2257  0.2008
 3440W        W19914   6.790  15.565   0.777  0.2971  0.0665 -0.1327
 3441W        W19915   5.291   1.927   5.118  0.0271 -0.1543 -0.2478
 3442W        W19916  11.204   0.862  12.178  0.3201  0.0302  0.0282
 3443W        W19917   1.941   8.751   2.163 -0.3069  0.1256 -0.1386
 3444W        W19918   9.687   3.219   5.881  0.0604 -0.1389 -0.3131
 3445W        W19919   4.279   4.011   3.766 -0.0738  0.2606 -0.0586
 3446W        W19920  13.487   5.387   4.851  0.1138  0.2124 -0.0570
 3447W        W19921  10.887  12.335   4.825 -0.0869 -0.0053  0.4026
 3448W        W19922   0.151   3.646  13.490 -0.1174 -0.1325  0.0569
 3449W        W19923  12.067   2.298  15.643 -0.0964  0.2541  0.0024
 3450W        W19924  10.502  16.990   4.187  0.1079  0.0601  0.0093
 3451W        W19925  15.005   4.298   2.329 -0.0631 -0.1276  0.2230
 3452W        W19926   6.590  16.774  10.757  0.0860 -0.0413 -0.0730
 3453W        W19927  10.167   7.217   1.670 -0.3700  0.1349  0.0725
 3454W        W19928  11.863   1.198   0.928  0.0918  0.0684 -0.1372
 3455W        W19929  13.617   9.329  12.827  0.0301 -0.0051 -0.2879
 3456W        W19930   8.597  10.214  13.088  0.1337 -0.3979 -0.1076
 3457W        W19931   3.341   2.427   2.057  0.0376  0.1727  0.0146
 3458W        W19932   8.263   5.515  15.711 -0.1093 -0.0986 -0.0829
 3459W        W19933  14.640  10.122  13.550 -0.0131  0.0803  0.0609
 3460W        W19934   8.276   4.279   1.504 -0.1307 -0.0774  0.0326
 3461W        W19935   0.477  15.736  11.994  0.1499  0.0120 -0.3051
 3462W        W19936  15.110   3.040  10.120 -0.0662  0.1528  0.1187
 3463W        W19937  14.328  15.725   3.499  0.2459  0.1902  0.0361
 3464W        W19938   6.034   3.579  15.332 -0.0976  0.3278  0.0961
 3465W        W19939  11.425   6.628  12.989  0.0367 -0.1070  0.0747
 3466W        W19940  16.874   0.315   4.053 -0.2924 -0.0811  0.1408
 3467W        W19941   5.860   4.146  15.186  0.1414  0.1534  0.0967
 3468W        W19942   7.400  16.196  11.025  0.3313 -0.2251 -0.2045
 3469W        W19943  13.582   8.630  14.169 -0.0129  0.0203 -0.1480
 3470W        W19944   6.117  15.639   5.186  0.0696 -0.1439 -0.1920
 3471W        W19945   1.120  12.750   3.080  0.1768 -0.0819 -0.0059
 3472W        W19946   9.528  15.506  12.904 -0.0335  0.0340 -0.0849
 3473W        W19947   2.103  15.375   5.212 -0.1196  0.0717 -0.0705
 3474W        W19948   6.745   8.702  13.950 -0.1616  0.4686  0.1318
 3475W        W19949  14.579   3.392   1.335  0.1231 -0.2338  0.2627
 3476W        W19950  11.201  11.835  15.979  0.1670  0.2241  0.1585
 3477W        W19951   6.675  11.072  12.866  0.4704  0.0307 -0.2513
 3478W        W19952   9.068   3.560   2.092  0.1402 -0.4276  0.3350
 3479W        W19953  13.018  14.220   2.749 -0.1785  0.1476  0.0153
 3480W        W19954  10.852   6.096   2.300  0.1229  0.1028  0.2609
 3481W        W19955   6.230   4.810   3.220 -0.2392 -0.0894 -0.2369
 3482W        W19956   3.037   9.862   1.685  0.1245  0.2302 -0.0468
 3483W        W19957   6.690   3.953   2.929 -0.0272  0.2275  0.1566
 3484W        W19958  15.549   2.556  15.918  0.1391 -0.2622 -0.1531
 3485W        W19959  11.181  12.975   0.953  0.0431  0.0255  0.2791
 3486W        W19960   7.765   1.558   3.887 -0.0701  0.0438  0.0648
 3487W        W19961   5.162  15.587  14.971 -0.2570 -0.3476 -0.1246
 3488W        W19962   9.655   0.188   1.203  0.0266 -0.0252 -0.0897
 3489W        W19963   6.750  14.882   1.404  0.0071  0.1818 -0.1928
 3490W        W19964  17.408  11.403  13.643  0.1074 -0.0040  0.1321
 3491W        W19965  13.575  14.393   5.215 -0.4379  0.0247 -0.1134
 3492W        W19966  15.076   3.552   1.511  0.2561 -0.2187  0.1692
 3493W        W19967  16.766  10.187  11.593 -0.0669  0.4170 -0.0630
 3494W        W19968  14.766   8.366  12.506  0.1494 -0.2231 -0.3915
 3495W        W19969   2.336  12.360   3.621 -0.0885  0.0334 -0.3451
 3496W        W19970   7.305  15.269   1.503  0.1066  0.0671 -0.0032
 3497W        W19971  14.435  15.077  12.551 -0.1228 -0.2048  0.0543
 3498W        W19972   4.270  17.573   1.762 -0.1126 -0.1946  0.2305
 3499W        W19973   8.285  10.208  15.338  0.1020 -0.1910 -0.1207
 3500W        W19974   1.216  13.927   3.915 -0.0984 -0.2516 -0.2581
 3501W        W19975  12.218  10.551   4.244  0.2504 -0.3463 -0.0728
 3502W        W19976  14.923   0.877  13.900 -0.1091 -0.0238  0.0726
 3503W        W19977   9.111  16.048   1.695 -0.1428 -0.2900 -0.2236
 3504W        W19978   5.187   8.837   3.222  0.0632  0.3840 -0.0445
 3505W        W19979  11.494  16.957   2.177  0.1121 -0.0373  0.2104
 3506W        W19980  15.117  16.056   3.999 -0.1063 -0.1985  0.2184
 3507W        W19981  11.775   0.358  16.049 -0.1625  0.1849 -0.3078
 3508W        W19982  14.749   6.855   0.526  0.2339  0.3843  0.0228
 3509W        W19983   4.944  12.552  15.668 -0.3045  0.0187 -0.0081
 3510W        W19984  18.073  10.155   3.771 -0.3166  0.1912  0.2810
 3511W        W19985  15.197  11.491  13.766 -0.1373  0.2011  0.1401
 3512W        W19986  11.281   4.875   4.275 -0.2092 -0.2766  0.1333
 3513W        W19987   8.832   7.817   0.502 -0.0819  0.2004  0.0998
 3514W        W19988  10.188  14.177  12.999  0.0125 -0.0179 -0.3041
 3515W        W19989  14.774   0.418   2.490 -0.2176 -0.2717  0.3271
 3516W        W19990   0.190  18.281  12.307  0.2713  0.0079  0.1300
 3517W        W19991   4.653   6.481   3.137 -0.2176 -0.1553  0.1996
 3518W        W19992  14.384   5.060   2.341  0.1206  0.0747 -0.3476
 3519W        W19993   5.713   8.738  14.784  0.1893  0.0462  0.2635
 3520W        W19994  16.954   0.242   1.091  0.2741 -0.0242  0.1921
 3521W        W19995  11.821   0.952  14.924 -0.0577  0.0269 -0.1673
 3522W        W19996  12.924   9.175  15.443 -0.0410 -0.3365  0.2586
 3523W        W19997   4.361   5.797   0.222 -0.3429 -0.1231  0.1363
 3524W        W19998   3.580  14.515  13.032  0.0365 -0.0807  0.2434
 3525W        W19999   5.663   7.072   2.997 -0.1930  0.1788 -0.0405
 3526W        W20000   4.644  11.964  11.483 -0.2896 -0.0242  0.2774
 3527W        W20001  10.134   1.926   3.182  0.0364  0.1286  0.0861
 3528W        W20002  18.051   5.449   1.939  0.3147 -0.0473  0.0304
 3529W        W20003   1.607  12.501  13.073  0.1220  0.1519 -0.2456
 3530W        W20004   5.044   7.163   0.870  0.1632  0.0952  0.0643
 3531W        W20005   3.825  10.278   1.577  0.0307 -0.0048  0.2713
 3532W        W20006   0.567  10.787  10.794 -0.0800  0.2588 -0.5099
 3533W        W20007  12.951  11.143  13.545 -0.0481 -0.0255  0.3187
 3534W        W20008  13.594  14.184  15.412 -0.0520 -0.2786 -0.2188
 3535W        W20009   6.486   2.690   2.263  0.2680 -0.0770  0.1171
 3536W        W20010  11.453  16.636  15.839  0.1853 -0.1180 -0.1150
 3537W        W20011  11.489  16.674   5.042  0.0545 -0.3188  0.0501
 3538W        W20012  18.148  14.171   3.538 -0.2987  0.1052  0.1348
 3539W        W20013   5.933  12.818   2.425  0.1765 -0.0731 -0.0905
 3540W        W20014   4.852  13.613   1.616 -0.2377  0.1179 -0.0532
 3541W        W20015   9.325   9.801   2.040 -0.0671  0.0175  0.0407
 3542W        W20016  15.147  12.957   1.977 -0.1227  0.0220 -0.0635
 3543W        W20017   2.090   8.659   2.810 -0.2146 -0.2200 -0.0189
 3544W        W20018  11.803   7.670  14.021 -0.1097  0.0585 -0.1565
 3545W        W20019  14.447   4.769   0.703 -0.1374 -0.1597  0.3254
 3546W        W20020   9.384  11.807   1.508  0.0076 -0.2360  0.0825
 3547W        W20021   4.944  12.184   4.860 -0.1425 -0.0354 -0.1156
 3548W        W20022   7.845  10.784   5.239  0.2412 -0.0829 -0.1153
 3549W        W20023  17.142   9.899  11.794 -0.1330  0.1237 -0.1405
 3550W        W20024  15.374   2.221  11.845 -0.1040  0.2201 -0.3494
 3551W        W20025  10.049   0.754   1.788 -0.1930  0.0376  0.3949
 3552W        W20026  11.014  10.970   2.416  0.0572 -0.0783 -0.2520
 3553W        W20027   8.236  16.326  11.851 -0.0930  0.1827 -0.2054
 3554W        W20028   4.459  15.050  11.435 -0.1442  0.0214  0.0297
 3555W        W20029   0.738  14.446   0.690  0.0906 -0.1109  0.1490
 3556W        W20030   2.350   5.105   2.090  0.0240 -0.1645  0.2819
 3557W        W20031  11.086  12.986   4.696 -0.1012  0.3051 -0.1166
 3558W        W20032  14.644  12.212  14.099 -0.1779  0.0538  0.0086
 3559W        W20033   3.540   9.699   2.691  0.0847 -0.0926  0.0847
 3560W        W20034   0.619   5.659  15.902  0.0823  0.1590 -0.1891
 3561W        W20035   6.128  16.443   2.004  0.1833  0.0056 -0.4103
 3562W        W20036   5.587   6.769  13.504 -0.2425  0.0002 -0.1516
 3563W        W20037   8.601   6.075  14.695 -0.0297  0.0694  0.0133
 3564W        W20038   5.456  17.236   0.317 -0.0587 -0.0970  0.0058
 3565W        W20039   2.584   7.649   4.422  0.2175  0.1438 -0.1838
 3566W        W20040  13.867   2.759   3.932 -0.3174  0.0240 -0.0669
 3567W        W20041  11.027  16.896  11.405 -0.0016  0.3889  0.0895
 3568W        W20042   7.495  11.789  14.735  0.2033 -0.4041 -0.3133
 3569W        W20043  15.347   9.874  15.915  0.0547 -0.1147  0.2603
 3570W        W20044  16.391  11.136  11.929  0.0336 -0.1857  0.1095
 3571W        W20045   0.850   2.880   3.757  0.0809 -0.2809  0.1056
 3572W        W20046  15.383  15.003  12.395 -0.1503  0.2783  0.0878
 3573W        W20047   9.116  12.608  13.902 -0.0915  0.0251  0.0741
 3574W        W20048  12.121  10.244  14.286 -0.2133  0.3235  0.4274
 3575W        W20049  11.870  13.183  16.058  0.2481 -0.2368 -0.1555
 3576W        W20050   0.364  11.282   0.045  0.0192  0.1303 -0.1775
 3577W        W20051  14.930   0.748   1.795  0.1967  0.1865  0.0669
 3578W        W20052   2.042   0.695   1.392  0.4447  0.2205  0.0936
 3579W        W20053  13.816  16.965   1.189 -0.0162  0.3252  0.0271
 3580W        W20054   1.588   3.058  14.902  0.0538 -0.1805  0.0252
 3581W        W20055   5.490   4.508   0.027  0.1747 -0.0079 -0.1805
 3582W        W20056   8.156   9.744  14.132 -0.0485 -0.3012 -0.0418
 3583W        W20057   5.200   1.844  13.819 -0.1943 -0.0753 -0.1106
 3584W        W20058  10.637  11.814  12.123  0.2256  0.1489 -0.2003
 3585W        W20059   0.536  10.911   1.788 -0.0526  0.0757 -0.2905
 3586W        W20060   1.062  16.325   1.609 -0.3380 -0.0052  0.0914
 3587W        W20061  13.341   2.005  11.975  0.2382 -0.0798 -0.2523
 3588W        W20062  14.241   8.190  12.510 -0.0863  0.0961  0.1513
 3589W        W20063  18.262   6.287   0.187  0.0226  0.0192 -0.2920
 3590W        W20064   4.336  12.652  15.029  0.0172  0.1032 -0.0395
 3591W        W20065   9.283  15.491  15.245 -0.5065 -0.5104  0.0695
 3592W        W20066   6.482  10.487  13.108 -0.4405  0.0213 -0.1077
 3593W        W20067   7.115  10.292  12.486  0.1084 -0.0582  0.1477
 3594W        W20068   2.874  14.346   3.507 -0.3228  0.0656  0.1437
 3595W        W20069   4.658  11.504  14.871 -0.0271  0.1747  0.1934
 3596W        W20070   2.148   7.492  14.251 -0.1729 -0.1909  0.2057
 3597W        W20071  13.525  13.124   2.157  0.3010 -0.1080  0.0785
 3598W        W20072   5.652  14.261   2.849  0.1041 -0.1838 -0.0441
 3599W        W20073  10.629   9.884   5.685  0.1197  0.0873  0.0582
 3600W        W20074  10.132  11.146   0.464  0.0574  0.1365  0.0297
 3601W        W20075  15.093  10.062  13.609 -0.0445  0.1558  0.0729
 3602W        W20076  10.035  12.131   4.871  0.0277  0.1739 -0.1733
 3603W        W20077  16.198  14.489  14.004 -0.0558  0.3270  0.1522
 3604W        W20078  11.535  13.445   4.426 -0.2605 -0.0914 -0.2431
 3605W        W20079   9.818   9.388   3.256  0.1231  0.2317 -0.0073
 3606W        W20080   6.155   3.228  13.603 -0.1152  0.2598 -0.1127
 3607W        W20081   1.381   0.847  16.066 -0.0462  0.1821 -0.2941
 3608W        W20082  14.454   5.103  15.636  0.1226 -0.0249 -0.1130
 3609W        W20083   4.726  15.598  11.270  0.0857 -0.0909  0.1091
 3610W        W20084  11.660   7.973   3.317 -0.1022  0.1593  0.2391
 3611W        W20085   1.597   9.159   3.971 -0.2991 -0.1703 -0.1598
 3612W        W20086  17.362   6.254  13.376 -0.2474  0.1840  0.0298
 3613W        W20087  13.339   5.935   3.244 -0.2402  0.2472  0.2207
 3614W        W20088  11.741  12.274  15.622  0.0159 -0.1496  0.2610
 3615W        W20089   2.801   4.682  15.112  0.0996  0.2722 -0.3539
 3616W        W20090   0.361  16.411  12.622  0.2089  0.2643  0.4091
 3617W        W20091  10.656   2.591  11.260  0.0285 -0.0573  0.2412
 3618W        W20092   3.533   7.904   5.795 -0.0715  0.1189 -0.3160
 3619W        W20093   6.243   2.469  14.655  0.2245  0.2705 -0.0038
 3620W        W20094  17.691   4.621   4.527 -0.1540 -0.0399 -0.3117
 3621W        W20095  10.950  16.506  11.137  0.1547  0.3014  0.2731
 3622W        W20096   8.494  16.158   3.148 -0.3759  0.0120 -0.0897
 3623W        W20097   6.380  13.364   5.278 -0.0913  0.1713  0.2014
 3624W        W20098   2.876  16.315   2.160  0.2711 -0.2512 -0.2669
 3625W        W20099   9.474  14.234   1.390  0.2058  0.1439 -0.0949
 3626W        W20100  10.180   3.625  12.058 -0.0190 -0.2023  0.3387
 3627W        W20101  18.282   9.972  10.975  0.1691 -0.0448 -0.1948
 3628W        W20102   0.221   1.494  13.111 -0.1370 -0.0610  0.0561
 3629W        W20103  17.199   2.517   1.853  0.2493  0.0957 -0.0382
 3630W        W20104   7.494  12.826  15.376 -0.0980  0.1964 -0.0692
 3631W        W20105   8.658  13.915  13.258  0.1510  0.1549  0.0503
 3632W        W20106   7.703   7.167   4.169 -0.1201 -0.2031 -0.5648
 3633W        W20107   4.432  10.777  12.383  0.2733 -0.1592 -0.0540
 3634W        W20108   9.631   3.545   4.975  0.1550  0.1624  0.0546
 3635W        W20109   1.364  10.157   3.431  0.2309 -0.3740 -0.1228
 3636W        W20110  11.240  10.312   4.096 -0.1734 -0.0755 -0.1705
 3637W        W20111  15.072   8.364   3.957  0.2220  0.0397  0.1404
 3638W        W20112   3.214   6.687  14.628  0.0177 -0.0861  0.0131
 3639W        W20113  16.026  15.206   4.809  0.0460 -0.2006 -0.2709
 3640W        W20114   8.542   0.091   5.846 -0.1351  0.0262 -0.3679
 3641W        W20115   0.778  18.066  15.893 -0.0833 -0.0364 -0.1712
 3642W        W20116  12.553  10.955  14.677  0.0346 -0.3417  0.1232
 3643W        W20117   4.721  14.960  14.520  0.1020 -0.2545  0.0686
 3644W        W20118  11.015  12.051  11.164  0.0018  0.1227 -0.3618
 3645W        W20119   7.586   3.365  16.101  0.1425  0.1645  0.3794
 3646W        W20120   4.758   4.298   5.013 -0.0553  0.1887 -0.0352
 3647W        W20121  12.820  10.194  12.283  0.1409  0.1318  0.1989
 3648W        W20122  17.611   5.901   0.751  0.3498 -0.2222  0.0666
 3649W        W20123   6.219   1.884  12.112 -0.1586 -0.2600  0.0191
 3650W        W20124   3.990   4.005   0.737  0.3547  0.0639 -0.4153
 3651W        W20125  16.461  16.025  15.013 -0.3629  0.2689 -0.0292
 3652W        W20126  10.214   2.208   0.055  0.0068  0.1528 -0.2220
 3653W        W20127  12.594   3.149  12.947  0.1173  0.2355 -0.2031
 3654W        W20128  11.290  14.518  12.256 -0.2204 -0.0832  0.0753
 3655W        W20129  10.031  17.501   2.293 -0.2156 -0.1614  0.1525
 3656W        W20130  10.447  10.862  11.741  0.3257  0.1469  0.0529
 3657W        W20131   1.625   7.851   4.576  0.0717 -0.4432 -0.0891
 3658W        W20132   5.641   8.848  12.362 -0.0319  0.1203  0.1644
 3659W        W20133   5.931   6.933  12.681  0.1534  0.1379  0.0648
 3660W        W20134   6.023   3.664   1.367 -0.2024 -0.3293 -0.2154
 3661W        W20135   0.623   6.706   1.078 -0.2570 -0.0247 -0.1333
 3662W        W20136   3.973  10.877  14.660 -0.0810  0.1970 -0.4579
 3663W        W20137  11.937   7.560   4.037 -0.2110  0.2692  0.1752
 3664W        W20138  12.297   3.863  11.623 -0.2994  0.0108  0.1443
 3665W        W20139  18.093   1.465  12.506 -0.0299  0.0526 -0.1797
 3666W        W20140   5.233  11.012   0.082  0.0749 -0.0983 -0.0355
 3667W        W20141   1.193  12.536  13.432  0.0600  0.1762 -0.0886
 3668W        W20142   9.695   3.982   0.895  0.0192 -0.1403  0.1612
 3669W        W20143   1.397   9.242   2.928  0.0236 -0.2417 -0.1801
 3670W        W20144  13.925   6.905   1.116  0.0656 -0.1820  0.2345
 3671W        W20145   9.282  17.877  15.082  0.1543 -0.0018 -0.2836
 3672W        W20146   2.986   1.959  11.417 -0.0171  0.1761 -0.0612
 3673W        W20147  10.814  10.175  16.053  0.0905  0.1798 -0.2411
 3674W        W20148   6.833  14.848   6.186 -0.1985  0.1308 -0.0093
 3675W        W20149  10.080  12.428   3.790 -0.1852  0.1440 -0.0252
 3676W        W20150  17.018   6.273  16.121  0.0490  0.2643 -0.3802
 3677W        W20151  14.506  13.183   3.441  0.3116 -0.0732  0.2558
 3678W        W20152   0.661   3.489  13.514  0.1665  0.0083  0.5164
 3679W        W20153   9.033   5.442  15.106 -0.2849  0.1130  0.2743
 3680W        W20154   0.070  15.028  14.852  0.1382 -0.1527 -0.1371
 3681W        W20155   6.377  10.709   2.778  0.2747 -0.1530 -0.0900
 3682W        W20156  15.714   4.492   1.020  0.0454  0.1191  0.2850
 3683W        W20157   8.224   9.804   5.345  0.1006 -0.4961  0.4493
 3684W        W20158  15.470  10.015   1.062 -0.1923 -0.1656 -0.0085
 3685W        W20159   0.271   6.246   0.567 -0.1725 -0.2867  0.2179
 3686W        W20160   6.707  17.726  12.169 -0.2684  0.0187  0.0449
 3687W        W20161   8.622  10.578   1.663  0.1841 -0.2281 -0.2985
 3688W        W20162   9.171   9.337   0.800  0.4297 -0.2088 -0.0515
 3689W        W20163  14.892   5.876   2.572 -0.0669 -0.0969 -0.2578
 3690W        W20164   2.659   3.632   1.373  0.2968 -0.0262  0.0834
 3691W        W20165   2.494   0.642  12.479 -0.1376 -0.2642 -0.0850
 3692W        W20166  14.975   8.120   2.362  0.0154  0.3507  0.1010
 3693W        W20167   2.499   5.014   1.187  0.0867  0.0086  0.2193
 3694W        W20168  11.642   7.293  13.193 -0.1389  0.0893  0.2536
 3695W        W20169   5.230  15.868  12.864 -0.0209 -0.0450  0.0438
 3696W        W20170   5.243  10.032   5.838  0.0966  0.1196  0.1718
 3697W        W20171  16.149  11.553   5.575  0.3886 -0.0369  0.0926
 3698W        W20172  10.485  14.764   3.137  0.0038 -0.3544  0.2446
 3699W        W20173  14.645  12.761   5.648 -0.0900  0.0111  0.0217
 3700W        W20174   2.608  15.293   3.157 -0.2554  0.0327 -0.1283
 3701W        W20175   9.313  14.254   4.887  0.0997 -0.0371 -0.0094
 3702W        W20176   2.430  11.256   5.111  0.1753 -0.3116 -0.0526
 3703W        W20177   1.113   7.419   0.544  0.1877 -0.2031 -0.0193
 3704W        W20178  14.676   0.667   1.395  0.1106  0.0161  0.1361
 3705W        W20179   7.488  15.119   3.972  0.0105  0.0108  0.0177
 3706W        W20180   4.611  12.136   5.298 -0.2840  0.3500  0.1580
 3707W        W20181   6.405   8.042   2.288 -0.1171 -0.2847 -0.1037
 3708W        W20182  12.507   2.342  11.488 -0.1104 -0.1302  0.0673
 3709W        W20183   0.809  10.646   4.036 -0.2149 -0.0388 -0.2899
 3710W        W20184   3.747   4.018   0.290  0.4187 -0.0820  0.0217
 3711W        W20185   5.367  15.487   0.212 -0.0626 -0.1796 -0.0462
 3712W        W20186  15.096   5.389   3.407 -0.1901 -0.1896 -0.0152
 3713W        W20187   9.805  15.529  15.163 -0.0771 -0.0463 -0.0828
 3714W        W20188   6.130   8.805  15.718 -0.2677 -0.0889 -0.1343
 3715W        W20189  10.598   4.124   4.117  0.0280  0.0642  0.2037
 3716W        W20190   9.239  14.725   3.273 -0.2868 -0.0613 -0.0048
 3717W        W20191   4.434  17.973  12.920  0.2668 -0.1459  0.0852
 3718W        W20192  15.055   6.664  13.790 -0.1889  0.0191 -0.1142
 3719W        W20193  17.591   7.857  13.418 -0.0025 -0.3588 -0.2433
 3720W        W20194   3.491  10.875   2.606 -0.0219 -0.0289  0.1692
 3721W        W20195   0.092   2.565   3.803  0.0237  0.2441 -0.1907
 3722W        W20196   9.643  13.143  15.754  0.3929  0.0682  0.0643
 3723W        W20197  11.291   4.086  13.765  0.0815  0.3520 -0.2101
 3724W        W20198   1.788  14.786  14.478 -0.1364 -0.0455  0.1390
 3725W        W20199   5.836   0.767   0.197  0.2768  0.2093  0.1498
 3726W        W20200   8.195   5.224  11.439  0.4061 -0.1189 -0.0714
 3727W        W20201   2.751  17.285   1.314  0.1023 -0.1018  0.0965
 3728W        W20202   9.923  15.531   5.506  0.1022 -0.1033 -0.0877
 3729W        W20203  17.064   0.479  13.945 -0.0007  0.1123 -0.0007
 3730W        W20204   0.827   2.697  12.855 -0.0272  0.0242  0.0230
 3731W        W20205   6.894  17.848   5.038  0.0915  0.1889 -0.0567
 3732W        W20206  15.010   0.884   5.597  0.3626  0.1143  0.2345
 3733W        W20207  14.693   9.992   3.191 -0.0685  0.1192 -0.3144
 3734W        W20208  12.879   8.399   5.056 -0.0166 -0.2401 -0.1144
 3735W        W20209  11.365  10.417   4.562  0.0573 -0.3816 -0.1241
 3736W        W20210   7.400   2.129   1.687  0.0865 -0.0841  0.1697
 3737W        W20211   3.278   8.348   4.181 -0.0730  0.2546 -0.2175
 3738W        W20212  10.412   1.642   0.916 -0.2731 -0.0502  0.2728
 3739W        W20213   7.227   6.733  14.457  0.0639 -0.1728  0.0466
 3740W        W20214  13.327  16.484  12.617 -0.0071 -0.0687  0.1405
 3741W        W20215  10.268  12.525   5.101  0.1552  0.1511  0.0269
 3742W        W20216  17.645  17.117  15.443  0.0406 -0.0433  0.4040
 3743W        W20217   5.446  13.675  16.124 -0.1748 -0.1078 -0.1806
 3744W        W20218  12.811  14.200  12.706 -0.1492 -0.2153 -0.1622
 3745W        W20219   5.205   2.182  13.225 -0.0574 -0.0859 -0.0466
 3746W        W20220  13.044  10.591   1.831  0.1773  0.0790 -0.3851
 3747W        W20221   8.966   3.709   2.558 -0.1003 -0.0816  0.2257
 3748W        W20222  14.802   0.185   1.240 -0.1464 -0.0075 -0.0309
 3749W        W20223  13.067  18.284   4.377 -0.1939  0.2746  0.0358
 3750W        W20224   0.148  17.166   3.434 -0.0852  0.0161 -0.0318
 3751W        W20225   3.174   1.143  14.040  0.2376 -0.0309 -0.4283
 3752W        W20226   6.762  15.073   3.262  0.0994  0.0079  0.2375
 3753W        W20227  15.782   5.710   1.239  0.2574  0.0449  0.3790
 3754W        W20228  16.444  14.635  13.155  0.1803 -0.1591  0.0342
 3755W        W20229   3.755   7.153  16.055 -0.0394 -0.0538  0.0925
 3756W        W20230   6.446   6.350   3.810 -0.0307 -0.2356 -0.0536
 3757W        W20231   3.136  12.466  15.430  0.0036  0.1746 -0.1238
 3758W        W20232   6.238   4.185   2.047  0.1735 -0.3598 -0.1261
 3759W        W20233   4.916   5.413   4.278 -0.0255  0.0544  0.4231
 3760W        W20234  13.589   1.150   4.302  0.1065  0.0436  0.1481
 3761W        W20235   0.965  14.260   4.208  0.5664 -0.3717 -0.2010
 3762W        W20236   2.067   1.397  13.308  0.3395  0.0036 -0.1929
 3763W        W20237  14.048  11.210  15.160 -0.1838  0.2490  0.0915
 3764W        W20238  18.096  15.457  14.857 -0.0959  0.1653  0.2563
 3765W        W20239   4.406   1.915  13.255 -0.4219  0.1130 -0.3697
 3766W        W20240   1.289   9.797  14.256 -0.1948 -0.0080 -0.1387
 3767W        W20241   3.832   2.756   2.126 -0.4048  0.2228  0.0002
 3768W        W20242   8.490  15.748   5.402 -0.1562 -0.3378 -0.3143
 3769W        W20243   0.618  17.320   3.080 -0.1474  0.4026 -0.1489
 3770W        W20244  13.917   9.124   2.431  0.0823 -0.2928 -0.0754
 3771W        W20245   5.260   2.595  14.658  0.1047 -0.1977 -0.1411
 3772W        W20246  10.948   5.309  16.327 -0.1530 -0.2266 -0.1866
 3773W        W20247  12.790  18.284   0.083 -0.3263  0.1429 -0.2009
 3774W        W20248  13.063   0.984   4.924  0.2349 -0.2446  0.0875
 3775W        W20249  17.216  10.508  13.477 -0.2388 -0.2329  0.2883
 3776W        W20250   5.145   7.353   4.677  0.0823  0.0039  0.0391
 3777W        W20251   5.534  15.323   4.441 -0.1532  0.0078  0.0905
 3778W        W20252   3.015   3.005  15.619 -0.0787  0.1056  0.0181
 3779W        W20253   8.509   3.068   4.705 -0.0449 -0.0340 -0.2789
 3780W        W20254   3.850   3.294  11.845 -0.1022 -0.4065 -0.2767
 3781W        W20255   5.767  13.767   1.643 -0.0458  0.2775  0.0290
 3782W        W20256  12.920   5.107  16.194  0.1807  0.0768 -0.0162
 3783W        W20257  16.364   8.908   1.170  0.0028  0.2629  0.0079
 3784W        W20258  15.061  13.270  12.790 -0.1235  0.1781 -0.0665
 3785W        W20259  12.696   6.129   5.481 -0.0014 -0.0873 -0.3106
 3786W        W20260   1.920   0.381  15.429  0.1660 -0.0133 -0.0801
 3787W        W20261  11.047   4.457  15.037  0.1635  0.2738 -0.1752
 3788W        W20262  12.683   6.126  11.708 -0.2209  0.5298 -0.2357
 3789W        W20263   1.903  10.329  11.691 -0.0283 -0.0124 -0.1673
 3790W        W20264  15.819   6.304  11.817  0.0985 -0.1283  0.0988
 3791W        W20265   0.873  17.898  13.879  0.2463  0.0699  0.2350
 3792W        W20266   0.710  12.809   1.366  0.3504  0.1649  0.1090
 3793W        W20267   3.816  14.884  13.412  0.2385 -0.0297 -0.1342
 3794W        W20268  11.747   3.035   0.596 -0.0683 -0.0233  0.0521
 3795W        W20269  11.543   3.110   5.136 -0.0324 -0.2956 -0.1711
 3796W        W20270   4.697   2.488   1.855 -0.0824 -0.0438 -0.0262
 3797W        W20271   4.518   1.177   4.657 -0.0992 -0.0660 -0.2942
 3798W        W20272  15.596   8.969  11.575  0.1738  0.3865 -0.2143
 3799W        W20273   6.563   7.316   2.804 -0.1367  0.3382  0.0386
 3800W        W20274   4.132   0.394  14.389 -0.0687 -0.1706 -0.2092
 3801W        W20275  16.185   2.387  12.331 -0.3005 -0.1480 -0.2074
 3802W        W20276  11.547  12.127  13.776  0.2593  0.2877 -0.1149
 3803W        W20277   3.747  12.251   1.959  0.0688 -0.4901  0.1364
 3804W        W20278  18.016   4.495  11.311 -0.1595 -0.2765  0.0105
 3805W        W20279  16.165  15.905  15.568 -0.0849 -0.0092 -0.3674
 3806W        W20280  16.007   4.559  15.437  0.0697 -0.6357 -0.0063
 3807W        W20281   2.418  11.654   0.970  0.2163 -0.5392 -0.3579
 3808W        W20282  15.828  12.873   3.049  0.2305  0.1151  0.2215
 3809W        W20283   4.504  12.544   3.710 -0.1972 -0.1745 -0.1299
 3810W        W20284   7.528   0.927  11.121  0.1934  0.0543 -0.1763
 3811W        W20285  12.673   9.872   2.297 -0.3510 -0.2450 -0.2059
 3812W        W20286   3.384   9.894   3.528 -0.2142 -0.0379  0.1133
 3813W        W20287   2.270  10.985  13.928 -0.0600 -0.1832  0.4169
 3814W        W20288  14.867  13.565   3.722  0.0017  0.0310  0.0611
 3815W        W20289   6.796  17.060   4.656 -0.0528 -0.0081 -0.2179
 3816W        W20290  16.262  14.987  13.603  0.0278 -0.0872  0.0524
 3817W        W20291   8.700  15.785  15.431  0.1788 -0.1654  0.2220
 3818W        W20292  10.916  14.589   4.523  0.3255  0.1191  0.1092
 3819W        W20293  14.391   1.296  15.040 -0.0167  0.1820 -0.0413
 3820W        W20294   0.085  16.364   5.083 -0.0779 -0.1124 -0.0143
 3821W        W20295  11.297   1.971  15.738 -0.1059 -0.0490 -0.0046
 3822W        W20296  10.220   4.723  16.114 -0.2070 -0.3377 -0.4032
 3823W        W20297  11.453   3.946   0.801  0.1048  0.2388  0.0018
 3824W        W20298  14.120  15.342  15.565 -0.1020  0.1241 -0.0068
 3825W        W20299   9.330   7.817  15.881  0.3078 -0.0441 -0.1731
 3826W        W20300   9.167   4.739  14.630 -0.4448 -0.0478  0.0208
 3827W        W20301   7.393  12.423   2.120  0.2713 -0.0495 -0.1574
 3828W        W20302  11.990   5.318  13.713 -0.2584  0.0052 -0.0895
 3829W        W20303  11.904   9.244  14.646  0.0318  0.3959 -0.2086
 3830W        W20304   9.375   0.420   3.661  0.0853  0.0315  0.0591
 3831W        W20305   8.978  15.819   0.691 -0.0875  0.0291  0.0158
 3832W        W20306   8.353  16.566  14.244 -0.0269 -0.1589 -0.1321
 3833W        W20307   4.391  15.188  12.843  0.0929  0.0184 -0.0111
 3834W        W20308  17.755   9.594  13.684  0.2682  0.1798 -0.1112
 3835W        W20309   6.035   5.884   5.225  0.0029  0.2343 -0.0426
 3836W        W20310  13.121  12.055   3.853 -0.0382 -0.0245  0.0376
 3837W        W20311   1.730   7.864  12.928  0.4365 -0.3530  0.2504
 3838W        W20312   7.762   8.003  12.475  0.0120  0.2587  0.2656
 3839W        W20313  17.773  10.344  12.730 -0.0942 -0.2637  0.2101
 3840W        W20314  15.278   1.253  15.379 -0.0284 -0.0356  0.1046
 3841W        W20315  12.546  16.094   2.118  0.1042 -0.0899  0.0437
 3842W        W20316   8.858   6.461   2.709  0.0922 -0.1637 -0.3147
 3843W        W20317  12.243   5.206  13.266  0.0815 -0.2166  0.1691
 3844W        W20318   9.799  14.402   0.531  0.0362 -0.2090  0.0673
 3845W        W20319  14.362   1.993   5.851 -0.0626  0.1649  0.0380
 3846W        W20320  17.550  12.496   3.835  0.0770  0.2308  0.0140
 3847W        W20321   9.338   3.293   2.424  0.1045 -0.1518  0.0881
 3848W        W20322   6.011   9.384  13.679  0.0045  0.0368  0.1869
 3849W        W20323  11.735   8.088   4.717  0.2375  0.0641  0.0083
 3850W        W20324  12.268   7.642  13.762 -0.1921 -0.2725 -0.0888
 3851W        W20325  17.894   2.270   0.344  0.1055 -0.0950  0.2607
 3852W        W20326   2.715  15.756   0.983  0.1007 -0.0645 -0.0264
 3853W        W20327  13.369  18.246   1.299 -0.1072  0.1319 -0.1209
 3854W        W20328   7.513   0.329   4.406  0.0022  0.3281 -0.1529
 3855W        W20329   7.487  14.454   4.424 -0.3084 -0.0005 -0.0832
 3856W        W20330  17.795   7.212   1.096 -0.1664  0.1412 -0.2095
 3857W        W20331   6.242   1.147   5.963  0.1597 -0.1811  0.2471
 3858W        W20332   8.114   1.912   2.376  0.1079  0.0908 -0.1205
 3859W        W20333   8.105  10.344   3.678 -0.2165  0.1130  0.2614
 3860W        W20334  11.381   1.661  12.739 -0.3361 -0.0001 -0.0253
 3861W        W20335   5.424  16.579  14.373 -0.0915  0.0837  0.1865
 3862W        W20336  10.946   2.062  13.855  0.0230  0.0518 -0.0696
 3863W        W20337  16.785  10.797   4.197 -0.3482 -0.3148 -0.2008
 3864W        W20338   4.146   6.588   4.138 -0.0459 -0.0457 -0.0322
 3865W        W20339  14.979  13.944   4.785  0.0182  0.1146  0.0451
 3866W        W20340   2.302   1.669   5.054  0.2181 -0.1663 -0.2579
 3867W        W20341  10.849  13.235   2.508  0.0845  0.0740  0.3304
 3868W        W20342  13.131   2.447   2.034  0.3335 -0.2088  0.1856
 3869W        W20343   3.646   9.433   3.603  0.0055  0.0691  0.0054
 3870W        W20344  12.186   1.607   1.876  0.0182  0.0347 -0.2014
 3871W        W20345   1.127  11.266  12.042  0.0138  0.4816  0.1623
 3872W        W20346  17.183  14.528   3.078 -0.1158 -0.0909 -0.3092
 3873W        W20347   1.740   8.312  12.548 -0.0252  0.1301  0.2137
 3874W        W20348  13.450   9.466   2.126  0.1279 -0.0076  0.1018
 3875W        W20349  13.904   9.745  14.078  0.1480  0.1765  0.0281
 3876W        W20350  15.864   7.846   1.977 -0.0252 -0.0902  0.1046
 3877W        W20351  12.131   9.205   3.949  0.0370 -0.0123 -0.0336
 3878W        W20352  16.211   8.133   5.669  0.2474 -0.1234 -0.2512
 3879W        W20353  18.014  13.416  13.855  0.2461  0.3404  0.2676
 3880W        W20354  11.474  11.621  12.066 -0.3591 -0.0589 -0.1117
 3881W        W20355   7.331   4.458   2.698  0.1165 -0.4141  0.2150
 3882W        W20356   3.663  14.881   4.819  0.2120  0.1752  0.0781
 3883W        W20357   1.822  13.565   2.178  0.0610 -0.1829  0.0274
 3884W        W20358   1.213   6.142  14.261  0.3253  0.1300  0.0828
 3885W        W20359   6.132  15.055   1.502  0.2907  0.2132  0.0932
 3886W        W20360  16.163   0.275  16.136 -0.1972  0.1753 -0.3330
 3887W        W20361  17.657  13.952   2.445 -0.0169 -0.0180 -0.2154
 3888W        W20362   0.043   5.103  12.679  0.0211 -0.1125 -0.1863
 3889W        W20363   2.314  16.557  15.989  0.2742 -0.0146  0.2469
 3890W        W20364  15.328   3.160   0.817  0.0959 -0.0726 -0.1234
 3891W        W20365  17.359   1.764   0.572 -0.0743 -0.1853  0.1855
 3892W        W20366  10.810  14.148   4.635 -0.0286  0.0366  0.0462
 3893W        W20367   1.235  11.869   2.578 -0.1011 -0.1746 -0.0472
 3894W        W20368   5.502  17.557   2.391 -0.1962 -0.1101  0.2283
 3895W        W20369  12.420  13.342   2.732  0.1826  0.0595  0.2869
 3896W        W20370  15.472  15.552  13.093  0.0851  0.0707  0.0245
 3897W        W20371   0.360   9.739   3.149  0.3395  0.1558 -0.1932
 3898W        W20372  10.984   2.565  16.322 -0.0679 -0.1603  0.1961
 3899W        W20373   1.873   0.594   4.484  0.1946  0.0706 -0.0990
 3900W        W20374  15.298  17.828  15.902 -0.0958  0.3897  0.2505
 3901W        W20375   1.038   2.062   1.327 -0.0975  0.1081  0.0659
 3902W        W20376  14.870  16.776  15.232 -0.1555 -0.0329 -0.3860
 3903W        W20377  16.952   1.708  12.492 -0.0376 -0.0174 -0.2564
 3904W        W20378   1.233   0.865   4.449  0.0871  0.0780  0.0481
 3905W        W20379  16.788  13.256  11.159  0.0994 -0.2622  0.1883
 3906W        W20380   3.260  11.202   3.016  0.0639 -0.1587 -0.1008
 3907W        W20381   7.249   9.656  13.839  0.0898 -0.0628  0.2247
 3908W        W20382  16.382   3.489  14.909 -0.3264 -0.0291 -0.1510
 3909W        W20383  17.997   9.019  13.158 -0.0800  0.1823 -0.2573
 3910W        W20384  15.979  16.720  11.745  0.1832  0.2408  0.0586
 3911W        W20385   2.304  16.329  13.683 -0.0691  0.1231  0.0182
 3912W        W20386   7.651   0.733   4.024  0.1938 -0.1982  0.1834
 3913W        W20387   0.400  14.510   4.479 -0.0591  0.3190 -0.0635
 3914W        W20388   8.377   1.730   4.544  0.2340  0.0319 -0.1297
 3915W        W20389   1.795  17.721   0.857  0.2876 -0.0571  0.0475
 3916W        W20390  13.677  10.880  14.938 -0.2660  0.2675 -0.1480
 3917W        W20391   0.870  13.055   4.068 -0.0131  0.1311  0.0006
 3918W        W20392  13.043  16.062  13.798  0.2006  0.2144 -0.1783
 3919W        W20393  17.180   1.070   4.706  0.0711 -0.0373  0.1224
 3920W        W20394  13.018   9.557   4.385  0.2098  0.4224  0.3574
 3921W        W20395   6.062  14.987  12.198 -0.1407  0.2162  0.0970
 3922W        W20396  10.486   2.028  15.715  0.2656  0.2412  0.5085
 3923W        W20397   2.030   9.252   3.661  0.3392 -0.1145 -0.0080
 3924W        W20398   4.549   6.224  15.772 -0.0707 -0.0571 -0.2314
 3925W        W20399  12.078   8.796  15.475 -0.1482  0.0741  0.0928
 3926W        W20400  14.790  14.515  16.278 -0.0818 -0.1813 -0.0897
 3927W        W20401   0.816   1.585  11.628 -0.1735  0.2451  0.2100
 3928W        W20402   4.527   1.198  15.236 -0.1584 -0.0867 -0.0367
 3929W        W20403  10.659   4.320   0.930 -0.2340  0.0093 -0.0242
 3930W        W20404  14.266   6.431  14.893  0.1954 -0.2182 -0.0246
 3931W        W20405  12.290  16.221  13.294 -0.1960 -0.1885  0.1025
 3932W        W20406  10.098   3.745  10.943 -0.1766 -0.1446  0.1074
 3933W        W20407   9.911  18.099  13.059 -0.2830  0.4554  0.2812
 3934W        W20408  14.383  18.248  13.933 -0.1763 -0.3009 -0.0090
 3935W        W20409   9.550  10.858  16.285  0.0483  0.0738  0.3470
 3936W        W20410   5.645  16.193   1.822  0.1610 -0.2965  0.1137
 3937W        W20411   3.943  11.817   5.683 -0.0606  0.3457 -0.1265
 3938W        W20412  16.277   5.741  13.980 -0.0548  0.3269  0.0555
 3939W        W20413   5.130   7.429  11.995 -0.0704 -0.2583  0.1343
 3940W        W20414   9.984   1.335   0.163 -0.1864  0.0030  0.2455
 3941W        W20415  15.628   6.616   1.526 -0.1577 -0.0754 -0.1193
 3942W        W20416  13.808  18.072  11.368 -0.2127 -0.0499  0.0114
 3943W        W20417   4.895  10.816  12.218 -0.0673  0.0833  0.1024
 3944W        W20418   0.649   4.878  12.010 -0.2176  0.1383 -0.0662
 3945W        W20419  14.538   1.724  10.533 -0.0361  0.2623  0.1720
 3946W        W20420   4.061   6.830   2.784 -0.0199  0.1956  0.0833
 3947W        W20421   5.094  12.169  11.401 -0.1847  0.0783 -0.2766
 3948W        W20422  10.039  17.063   1.466  0.0790  0.1253 -0.0674
 3949W        W20423   7.843   8.305  16.029 -0.0154 -0.0555 -0.3650
 3950W        W20424   6.799  11.058   2.949 -0.1407 -0.2282  0.0085
 3951W        W20425   8.488   6.099  12.006 -0.1110 -0.1986 -0.0303
 3952W        W20426  17.949  10.538  13.575 -0.0800  0.1256 -0.0607
 3953W        W20427   8.293   7.755   1.245  0.1687 -0.0041  0.1863
 3954W        W20428   6.326   4.478  12.286  0.0191 -0.3869 -0.2074
 3955W        W20429   9.613  17.032  12.149 -0.0511  0.0360  0.1134
 3956W        W20430   3.566   6.592  11.974 -0.0353  0.0354 -0.6505
 3957W        W20431  11.794  10.013   2.808 -0.2071 -0.5128 -0.0964
 3958W        W20432  17.431   5.803  15.019  0.1611 -0.1145 -0.1216
 3959W        W20433  10.070  16.758  12.221  0.1442  0.0685  0.2283
 3960W        W20434  13.996  13.917   1.405  0.1007  0.0151 -0.3127
 3961W        W20435  14.286  18.128   3.673 -0.1631  0.2345 -0.1288
 3962W        W20436   3.606   5.113  11.759  0.1182 -0.0187  0.4871
 3963W        W20437   0.674  14.256   3.185 -0.1418  0.0509 -0.2836
 3964W        W20438  15.275   2.340  14.553  0.4184  0.2930 -0.4025
 3965W        W20439  13.630   7.307  13.521 -0.1207 -0.0983  0.1389
 3966W        W20440   0.705  15.466  15.090 -0.0108 -0.1877  0.3595
 3967W        W20441  13.518  14.940  13.799  0.2271  0.1806  0.0387
 3968W        W20442  17.219  14.881  15.139 -0.0279 -0.0571 -0.1413
 3969W        W20443  11.404   7.880  16.244  0.1091  0.1270  0.0131
 3970W        W20444  14.403   3.930  15.509  0.4375 -0.1107 -0.0929
 3971W        W20445   0.251  12.757  12.323  0.0186  0.1150 -0.2072
 3972W        W20446   7.537   1.112   1.435 -0.1371 -0.0861  0.2033
 3973W        W20447   3.255   0.549  15.927 -0.2651  0.1501  0.4100
 3974W        W20448   0.030   1.327  16.176 -0.0603 -0.0833  0.3608
 3975W        W20449  11.625   7.394  12.405  0.1307 -0.0646  0.0799
 3976W        W20450   4.010   1.344   0.400 -0.2344  0.2149  0.0026
 3977W        W20451   7.690   3.114   3.723 -0.3810  0.3412  0.0717
 3978W        W20452   0.036  11.017  13.113  0.1056  0.0946  0.0557
 3979W        W20453   6.081   6.584   1.370  0.3097  0.0873 -0.1506
 3980W        W20454   6.989   9.481   3.251 -0.0698  0.0705 -0.3524
 3981W        W20455   1.435  16.014   3.390 -0.1570  0.1181 -0.0116
 3982W        W20456  13.763   3.155   1.489  0.2136 -0.0569 -0.2455
 3983W        W20457   8.030  13.792  12.157 -0.0177 -0.1793  0.3108
 3984W        W20458   3.179  10.767   4.277 -0.1064 -0.1110 -0.0188
 3985W        W20459   2.164  10.042   2.496 -0.0645 -0.0833  0.1340
 3986W        W20460   6.659  13.043   3.097 -0.0598 -0.2122 -0.0071
 3987W        W20461   3.430   9.386  12.987  0.1536 -0.0039 -0.1464
 3988W        W20462  16.621   3.516   2.301 -0.1443  0.1042 -0.3512
 3989W        W20463  16.481   1.026  12.209 -0.0926  0.0211  0.0153
 3990W        W20464   2.509  13.675   3.474  0.0195  0.1114 -0.0731
 3991W        W20465  11.361   3.366  14.752  0.1291 -0.0286 -0.0044
 3992W        W20466   1.293  17.598   3.504  0.2060 -0.0482 -0.0030
 3993W        W20467  17.315  16.401  13.297  0.1870 -0.1336  0.0622
 3994W        W20468   8.182  17.286   2.377  0.1649  0.1603 -0.0396
 3995W        W20469  14.302   3.889   0.998  0.0490  0.1811  0.0917
 3996W        W20470   3.695   8.124  13.683 -0.0382  0.1295 -0.1978
 3997W        W20471  15.029  16.637   3.892 -0.1834 -0.0759  0.3036
 3998W        W20472  12.332   6.463   4.114  0.1000  0.3824 -0.0480
 3999W        W20473  17.515   0.670   0.734 -0.1451  0.0531 -0.0527
 4000W        W20474   8.903   6.160   4.192  0.0691 -0.0024 -0.0419
 4001W        W20475   3.211  18.273  13.906 -0.2047  0.0050  0.1897
 4002W        W20476  15.198  15.758  15.524  0.0012 -0.0126  0.0877
 4003W        W20477   6.273   2.622   5.093  0.1065  0.0645  0.0831
 4004W        W20478  15.928   8.253  13.853  0.2907 -0.2507 -0.0970
 4005W        W20479  15.077  13.018   5.619 -0.0906 -0.0316 -0.0261
 4006W        W20480   6.545  13.087   1.742 -0.1162 -0.1898 -0.0831
 4007W        W20481   4.473   7.986   4.820  0.1390  0.1391  0.0038
 4008W        W20482   9.493   4.209  12.070 -0.0684  0.2815  0.0930
 4009W        W20483   0.401   8.165   1.765  0.1180  0.0301  0.0670
 4010W        W20484   1.082   1.371   4.797 -0.0842 -0.0803  0.1241
 4011W        W20485  17.438  13.825   5.466 -0.0378 -0.1300 -0.0583
 4012W        W20486  12.402  13.433  13.881 -0.2410  0.1398  0.1026
 4013W        W20487  17.338   4.264  13.106  0.0404  0.3441 -0.3296
 4014W        W20488   7.296  10.518  14.486  0.1994  0.0770  0.1389
 4015W        W20489  14.851  10.365   5.590  0.1012  0.0488  0.0394
 4016W        W20490   9.873  12.377   1.800  0.1863 -0.1517  0.2497
 4017W        W20491   8.163   4.316  15.335  0.0846 -0.0296 -0.1955
 4018W        W20492   8.219  12.584  14.218  0.2813 -0.0537 -0.1794
 4019W        W20493   3.972   3.117   0.224 -0.0558  0.0440  0.0161
 4020W        W20494   9.770  15.411  14.343 -0.3397 -0.2181 -0.0967
 4021W        W20495  13.968  11.311   1.102  0.4616 -0.1284  0.0893
 4022W        W20496   5.256  10.146  14.747 -0.0508 -0.0974  0.2138
 4023W        W20497   2.303   6.873  12.334 -0.1514  0.2391 -0.1314
 4024W        W20498   3.844   2.410   2.630 -0.3130  0.0999  0.1469
 4025W        W20499  18.016  16.315   0.034  0.1296 -0.2974 -0.2447
 4026W        W20500  17.946  13.819   1.049  0.0374  0.1152  0.1837
 4027W        W20501  14.945   4.378  14.599 -0.3266 -0.3351  0.1272
 4028W        W20502  11.278  11.562   4.607  0.0274  0.2208 -0.1136
 4029W        W20503   9.648  14.037   3.662  0.1779  0.2014  0.2210
 4030W        W20504  16.097  14.752   3.496  0.1492  0.1583 -0.0474
 4031W        W20505  16.635  11.236  12.998  0.1633  0.0466  0.4636
 4032W        W20506   9.103   0.049   5.105  0.2133 -0.0225 -0.0758
 4033W        W20507   1.180   8.989   0.101 -0.1521  0.1913  0.1621
 4034W        W20508   2.956  17.763   2.534 -0.1394  0.5651  0.1145
 4035W        W20509   6.370   9.113  13.950  0.1485  0.1236 -0.0376
 4036W        W20510   0.273   4.731  15.940  0.2535  0.0564  0.1720
 4037W        W20511  16.242   8.828   0.235  0.1688  0.0138  0.0614
 4038W        W20512   4.758  17.966   1.131 -0.2227 -0.0329 -0.1138
 4039W        W20513  12.053  17.006  11.193 -0.0128  0.2957 -0.0429
 4040W        W20514  13.932  12.547   3.398  0.0589 -0.2201 -0.2175
 4041W        W20515   9.237  14.313   3.596  0.2336 -0.0770 -0.1952
 4042W        W20516   8.323  12.154  14.503 -0.1529 -0.0607  0.2706
 4043W        W20517   1.380   5.373  12.098 -0.1084  0.0061 -0.0367
 4044W        W20518   5.711  17.386  15.241 -0.0343 -0.2277 -0.1771
 4045W        W20519  16.239   9.110  15.329 -0.1126 -0.0728  0.0830
 4046W        W20520  14.686   7.555  15.010  0.1232  0.2182 -0.1607
 4047W        W20521   0.222   8.138  12.099  0.1253 -0.2081 -0.1986
 4048W        W20522   7.849   1.294   0.986  0.1451  0.0871 -0.1290
 4049W        W20523   4.719  16.796  14.179  0.3114  0.0898 -0.0152
 4050W        W20524  16.230  15.596  14.456 -0.1142 -0.1136 -0.0725
 4051W        W20525  12.064   7.512  15.615  0.0236  0.0408 -0.2125
 4052W        W20526   9.099  10.297   2.194  0.1645  0.3571  0.0276
 4053W        W20527   9.170   3.221   3.589  0.2543 -0.3583 -0.1592
 4054W        W20528  10.126  10.295  13.555 -0.0537 -0.0188  0.2948
 4055W        W20529   3.626   2.408  15.409 -0.2417  0.1539  0.1441
 4056W        W20530   0.262  14.138   2.402  0.1305  0.0501  0.0294
 4057W        W20531  15.704   9.161  15.371 -0.0867 -0.1786 -0.2060
 4058W        W20532   6.205   2.173   2.808  0.1851 -0.2114  0.1068
 4059W        W20533   4.544  10.752   5.435  0.0016  0.0479  0.1353
 4060W        W20534  14.711  16.519  15.748  0.1677 -0.1783  0.0121
 4061W        W20535   8.734  15.916  14.845 -0.0388  0.4175  0.1863
 4062W        W20536   6.885   3.604   5.488 -0.1323  0.0294 -0.0440
 4063W        W20537  18.157   3.772   1.427 -0.1584 -0.1706 -0.0135
 4064W        W20538  10.265   1.953  13.129 -0.0586  0.1063 -0.0684
 4065W        W20539  13.825   6.213  14.681 -0.1111 -0.0470 -0.2020
 4066W        W20540   0.775   3.147   2.867 -0.1674 -0.1231 -0.1494
 4067W        W20541  10.804   4.185   3.553  0.1109 -0.0180  0.3144
 4068W        W20542  16.756  17.502  14.007  0.4152  0.2558 -0.2244
 4069W        W20543   1.508   7.631  15.150 -0.2020  0.4235 -0.4685
 4070W        W20544  11.969  16.007   2.836 -0.0673  0.0418 -0.0927
 4071W        W20545   6.451  10.156  12.280 -0.0548  0.0033  0.1494
 4072W        W20546   1.248  11.788   0.325 -0.2731  0.2487  0.0933
 4073W        W20547   6.939  11.007   4.082  0.0206 -0.1162 -0.2869
 4074W        W20548   5.375   3.489  14.566 -0.3880  0.1775  0.0418
 4075W        W20549  11.317   1.604   0.964  0.0965 -0.0397  0.2367
 4076W        W20550  12.166   0.168   3.526 -0.4551  0.0328  0.1443
 4077W        W20551   0.394  14.575  11.748 -0.0029  0.0007 -0.0399
 4078W        W20552  15.425   5.444  11.339  0.2751 -0.2666  0.0940
 4079W        W20553  16.128  11.816   2.080 -0.1272 -0.1422  0.0050
 4080W        W20554   9.759  17.891   0.323  0.0847 -0.0383 -0.1731
 4081W        W20555  11.020   3.609  11.853 -0.0021  0.1298 -0.3842
 4082W        W20556   7.239  11.343   3.342  0.3367  0.3404  0.0143
 4083W        W20557   9.880   8.283   4.923 -0.3813  0.3584 -0.0935
 4084W        W20558  13.631   9.966   3.794 -0.0865  0.1234  0.0023
 4085W        W20559   7.470  10.416   0.654  0.0725 -0.2447  0.0214
 4086W        W20560  14.920   1.445   2.899 -0.3882 -0.1216 -0.0357
 4087W        W20561   4.192   0.334  12.847  0.2545 -0.0487 -0.4556
 4088W        W20562   0.828  15.525  13.576  0.0058  0.1592 -0.0227
 4089W        W20563   7.615   8.754   3.244 -0.1884 -0.2197  0.4626
 4090W        W20564   1.885  18.065   3.744 -0.1119 -0.2257 -0.1187
 4091W        W20565   4.897  17.203  15.694  0.1349  0.0855  0.3661
 4092W        W20566   9.491   2.775   2.275  0.4826  0.0700 -0.1409
 4093W        W20567   6.173  14.462   0.498 -0.0041  0.2463  0.1421
 4094W        W20568  16.067  12.097  11.362 -0.2777  0.0036  0.3922
 4095W        W20569   0.439   6.322  12.109 -0.0337  0.0989  0.2564
 4096W        W20570   3.486   8.884  12.843 -0.0053  0.0342 -0.0915
 4097W        W20571   7.695   2.215  13.703 -0.0106  0.1455  0.0658
 4098W        W20572  14.243  17.870  13.286 -0.0573 -0.1749  0.0978
 4099W        W20573   4.749  10.870  16.235 -0.2151 -0.1907  0.2084
 4100W        W20574   0.984   0.320   2.525 -0.1522  0.1253 -0.4707
 4101W        W20575   7.739  12.913   1.337 -0.1474 -0.1665  0.0339
 4102W        W20576   2.991   2.667  13.442  0.0411 -0.2072 -0.0052
 4103W        W20577   1.858   1.896   1.512  0.0394 -0.0815  0.4011
 4104W        W20578  15.594  11.641   1.281  0.1549  0.0312  0.0843
 4105W        W20579  14.296   9.428  10.461  0.0544  0.1188  0.0640
 4106W        W20580   6.599  12.853  16.116 -0.2091 -0.0296 -0.2799
 4107W        W20581  11.288  17.611   3.996 -0.0298 -0.0830  0.1195
 4108W        W20582  15.635  16.311  16.270  0.0645  0.0534 -0.1711
 4109W        W20583  12.429  16.649   2.686  0.0765  0.2462 -0.2815
 4110W        W20584  16.414  16.504   1.468  0.0903 -0.2215  0.1437
 4111W        W20585  16.532  10.706  15.952  0.3324  0.0989  0.4519
 4112W        W20586  10.584   6.738   0.876 -0.0145 -0.0558 -0.0763
 4113W        W20587  13.280   4.289   5.649 -0.1379  0.3154 -0.0606
 4114W        W20588  12.322   5.452  14.995  0.0123 -0.0158  0.0982
 4115W        W20589  16.625   2.605   3.409  0.2124  0.0497 -0.2884
 4116W        W20590  11.732  17.515   0.144 -0.1639 -0.1154 -0.0347
 4117W        W20591  16.147   5.385  11.856  0.3269 -0.0788  0.1513
 4118W        W20592   7.100   7.422  11.753  0.2837  0.0716 -0.0226
 4119W        W20593  17.555  12.722   2.456  0.1824  0.2144  0.0896
 4120W        W20594   5.711  17.171   3.269  0.0075 -0.1039 -0.0280
 4121W        W20595   5.713  16.998  15.554  0.0718  0.2556 -0.0379
 4122W        W20596   9.160   2.112  15.485  0.1805 -0.2144 -0.2390
 4123W        W20597   0.741   5.021   3.400  0.2048 -0.4267  0.0893
 4124W        W20598   0.194   2.071   3.775  0.1801 -0.2629  0.1974
 4125W        W20599  11.369   6.553  14.743  0.2020 -0.1137 -0.2437
 4126W        W20600   9.071   1.880  12.535  0.2114 -0.0006 -0.1874
 4127W        W20601   9.629   1.459   1.123  0.2545 -0.0350  0.0627
 4128W        W20602  15.278  16.563  14.072 -0.4810 -0.3125 -0.0781
 4129W        W20603  18.059  13.588  14.874  0.1689 -0.2305 -0.4122
 4130W        W20604  14.943   5.077   3.754 -0.1592  0.2586  0.0193
 4131W        W20605   2.419  17.305  15.833  0.0214  0.1335  0.2537
 4132W        W20606  12.605  10.020  15.626  0.3926 -0.0415 -0.1803
 4133W        W20607   2.167  16.992   2.139  0.0439 -0.0870  0.1950
 4134W        W20608   3.667  11.684   0.729 -0.1393 -0.0134 -0.0888
 4135W        W20609   5.384   5.766   3.988  0.4535  0.1904  0.4707
 4136W        W20610  17.528  17.320  13.097  0.1215  0.3485 -0.0351
 4137W        W20611   8.337   1.892   0.911 -0.0522  0.1314  0.0707
 4138W        W20612   5.292  17.826   5.775 -0.0993  0.3889  0.1377
 4139W        W20613   0.389   3.315   4.974  0.3279  0.0884  0.1318
 4140W        W20614   7.822   3.312   5.171 -0.1633  0.0569  0.2446
 4141W        W20615   9.434   5.572   3.211  0.1545 -0.0918 -0.0082
 4142W        W20616  14.079   0.448   4.520  0.1399  0.2999 -0.1955
 4143W        W20617   0.866   7.189   4.294  0.0618 -0.0913 -0.2193
 4144W        W20618   9.833   0.490   0.295  0.0196  0.3346  0.4072
 4145W        W20619  10.465   1.022  14.020  0.0219 -0.0427 -0.0725
 4146W        W20620   6.799  12.135  15.056  0.0736  0.0064 -0.0102
 4147W        W20621   7.263   7.100   2.690  0.2112  0.1059  0.1792
 4148W        W20622   5.546  14.941  12.251 -0.1160 -0.1694  0.0543
 4149W        W20623  15.989   5.213   3.097 -0.1551 -0.1670  0.0227
 4150W        W20624  15.255   2.825   3.717 -0.0744  0.1764 -0.1868
 4151W        W20625   4.524   1.925   2.280  0.1538  0.0480  0.1472
 4152W        W20626   7.133  13.464   0.188  0.0955  0.1724 -0.1808
 4153W        W20627  11.965  13.994   1.030  0.0912  0.1225  0.0402
 4154W        W20628   9.856   4.730  15.128 -0.0362  0.1377 -0.2289
 4155W        W20629  17.989   8.773  12.633 -0.1085  0.0671 -0.0327
 4156W        W20630   3.948  13.000   0.603  0.0059 -0.0941  0.1973
 4157W        W20631   6.147   3.139   2.862 -0.3184  0.1676 -0.1603
 4158W        W20632  14.212   8.633   5.870  0.0662  0.3597 -0.0993
 4159W        W20633   2.907  13.148  12.870 -0.2026  0.0829 -0.1071
 4160W        W20634   6.751   7.840   0.071  0.0061 -0.0998 -0.1487
 4161W        W20635   2.079   2.834   1.304  0.0084  0.0929 -0.2629
 4162W        W20636   2.515  11.891  13.908 -0.1038 -0.2047 -0.0543
 4163W        W20637   9.471  16.650   2.804 -0.0187  0.3738  0.0894
 4164W        W20638  15.109   2.356  16.157 -0.0780  0.1633 -0.2209
 4165W        W20639   5.600  11.009   1.977 -0.0236  0.0358 -0.0989
 4166W        W20640   2.862  10.289   2.863 -0.0245 -0.2373 -0.1513
 4167W        W20641  12.529  16.895  13.672  0.3899 -0.3606  0.2540
 4168W        W20642  15.723  10.749   1.972  0.1772  0.0159  0.0711
 4169W        W20643   7.593   0.972  14.408  0.0102  0.2488  0.1054
 4170W        W20644   1.965  15.469   1.258  0.1396 -0.1883 -0.2963
 4171W        W20645   6.960   7.515  15.352  0.0670  0.2195  0.0846
 4172W        W20646  10.978   6.578  13.257  0.1895 -0.0120  0.0191
 4173W        W20647  10.232  10.252   5.728  0.1391  0.0367 -0.2798
 4174W        W20648  10.171   7.295  15.126  0.0027  0.0065  0.0949
 4175W        W20649   7.345   4.803  15.184 -0.4202  0.0491  0.1257
 4176W        W20650  11.638   2.565   0.621 -0.0091  0.2336 -0.1941
 4177W        W20651  16.634   4.880  14.158 -0.0573  0.0908  0.0591
 4178W        W20652  10.171  12.089  14.767  0.2120 -0.0668  0.1221
 4179W        W20653   9.131  12.970  13.075 -0.0387  0.0832  0.0225
 4180W        W20654   4.528   3.186   3.353 -0.1285 -0.0701 -0.0155
 4181W        W20655  13.132   0.519  13.461  0.0872 -0.4872  0.0185
 4182W        W20656  10.298   3.231  12.875 -0.1026 -0.4004  0.1678
 4183W        W20657   6.694  10.206   2.717 -0.2650 -0.1395 -0.3242
 4184W        W20658   2.616   5.824   0.821  0.1555  0.2248 -0.0333
 4185W        W20659   7.822   5.773  13.427  0.0706  0.0562 -0.1440
 4186W        W20660   8.122  13.651   0.899  0.3154  0.0973 -0.0570
 4187W        W20661  13.132   2.055  15.464  0.0632 -0.6500 -0.1420
 4188W        W20662   3.445  15.546  12.863 -0.1636  0.1171  0.0465
 4189W        W20663  14.285   0.635   3.226  0.1708  0.1546  0.2535
 4190W        W20664  13.326  16.443   4.637 -0.0632  0.1164  0.1895
 4191W        W20665   0.503   7.092   3.404 -0.1108 -0.1859 -0.1979
 4192W        W20666  13.008   3.681  10.895  0.2186  0.1963  0.0868
 4193W        W20667   0.146  17.056  11.510  0.1513  0.2073 -0.2017
 4194W        W20668   7.984   0.831   1.459  0.1054 -0.0953 -0.0011
 4195W        W20669   7.857   9.076   0.388  0.0197 -0.0976 -0.1523
 4196W        W20670  17.220   4.868  11.233 -0.2834 -0.0427 -0.0382
 4197W        W20671   1.712  13.732  14.434  0.3437  0.1607 -0.0218
 4198W        W20672  14.288  11.692   1.335  0.2530 -0.4312  0.0817
 4199W        W20673  12.267  12.169  10.879  0.3653  0.1069  0.1983
 4200W        W20674   1.958   9.331  14.614  0.2114  0.1655  0.1483
 4201W        W20675  10.518   9.288  11.586 -0.0413 -0.0058  0.1834
 4202W        W20676  10.459   8.578  15.437  0.0394  0.0010  0.0773
 4203W        W20677  11.558  10.551  15.682 -0.1096 -0.1139 -0.0030
 4204W        W20678  14.434  13.063   1.290 -0.0557 -0.0002  0.2023
 4205W        W20679   6.305  10.246   0.021  0.2063 -0.0900 -0.3088
 4206W        W20680  14.946   5.322  12.148 -0.0552 -0.1765 -0.3582
 4207W        W20681   2.837   4.311   5.010 -0.2489 -0.1309 -0.2323
 4208W        W20682   7.383   5.584  12.033  0.2072 -0.1831  0.1926
 4209W        W20683  16.876  11.953   3.016  0.1364  0.0374  0.0014
 4210W        W20684  13.183   4.929   0.281 -0.1315 -0.0317  0.0649
 4211W        W20685  15.111  10.935   2.761  0.2356  0.2254  0.0395
 4212W        W20686   9.280  10.017   0.013  0.3256  0.0020  0.0797
 4213W        W20687   9.680   6.417  11.045  0.1349 -0.0978 -0.1569
 4214W        W20688   3.353   3.863  12.355  0.1570 -0.2854 -0.1906
 4215W        W20689  15.449  15.451   5.549  0.2048  0.0855 -0.1126
 4216W        W20690  13.666   9.603   1.212 -0.0796  0.1905 -0.1347
 4217W        W20691  17.314   7.227  16.055 -0.1944 -0.1820  0.6098
 4218W        W20692  11.949  17.345   3.646  0.0739  0.0594  0.0164
 4219W        W20693  12.440   6.576  16.243  0.0245 -0.0924  0.0380
 4220W        W20694   1.547   3.555  15.704 -0.0036 -0.0810 -0.0403
 4221W        W20695  10.396   4.587   1.659 -0.1017  0.0584 -0.0583
 4222W        W20696   4.734   4.877   0.070 -0.0437  0.0620 -0.3897
 4223W        W20697  13.938  12.115   6.284 -0.0980  0.0997 -0.0130
 4224W        W20698   8.327   5.245   6.306 -0.2900 -0.2435 -0.0674
 4225W        W20699   3.456   5.884  12.256  0.1162  0.2505 -0.5069
 4226W        W20700   6.660  15.767  14.031 -0.0195 -0.0392 -0.2292
 4227W        W20701  17.156  16.118  16.039  0.1482 -0.0088  0.1681
 4228W        W20702   7.687   2.283   3.258  0.2751 -0.0539 -0.1909
 4229W        W20703   2.440   9.163  14.689  0.1529 -0.0992 -0.0782
 4230W        W20704  12.389  11.686  11.891  0.0025 -0.3789 -0.0548
 4231W        W20705  15.488   0.217  11.908 -0.1221 -0.2587 -0.0196
 4232W        W20706  17.032   1.177   5.157 -0.0801 -0.0427 -0.0562
 4233W        W20707   9.019  14.883   4.250 -0.1251  0.1694 -0.0360
 4234W        W20708   7.998  10.916  16.285  0.0553 -0.2100  0.0672
 4235W        W20709  13.284  13.851  15.167 -0.2502 -0.1126 -0.0427
 4236W        W20710   0.265   9.971   1.434 -0.1415 -0.0431 -0.0817
 4237W        W20711   2.007   5.155   4.008  0.2554 -0.0034 -0.1801
 4238W        W20712   1.130   1.090   1.986 -0.3290  0.3533  0.2329
 4239W        W20713  16.692   7.323   5.028 -0.1377 -0.2379  0.3025
 4240W        W20714  14.265  18.092   5.136 -0.1162  0.1086 -0.0118
 4241W        W20715  12.722   5.251   2.647 -0.3276 -0.0801  0.2597
 4242W        W20716   5.295  15.025   2.526  0.1873 -0.0762  0.1934
 4243W        W20717  15.304  15.919  12.658 -0.2610 -0.0842  0.0673
 4244W        W20718   0.385  17.395   2.589  0.2331 -0.1149  0.0485
 4245W        W20719  10.889  10.092  12.566 -0.0522 -0.0010 -0.0568
 4246W        W20720  17.577  10.968   0.182  0.0541 -0.0199  0.2968
 4247W        W20721  17.690  13.241  14.822  0.0219 -0.1074 -0.1014
 4248W        W20722   2.825   6.521  15.035 -0.0247 -0.1245 -0.0335
 4249W        W20723   9.214   5.694   1.922 -0.3122  0.1496 -0.0997
 4250W        W20724   6.735   9.720   2.798 -0.1180  0.0894 -0.1244
 4251W        W20725   6.063  13.395   2.446  0.1195 -0.0664  0.2174
 4252W        W20726   3.242  13.221   3.893 -0.1019 -0.1314  0.0409
 4253W        W20727   3.214   9.261   0.955 -0.1884  0.0675 -0.0770
 4254W        W20728   4.640   3.048   4.878  0.0622 -0.1935 -0.0828
 4255W        W20729  10.863   5.831  12.078 -0.1440  0.2985  0.2332
 4256W        W20730   6.156  12.605   1.034  0.0723 -0.1213  0.3600
 4257W        W20731   6.381   3.471  14.327 -0.0591 -0.1035  0.3602
 4258W        W20732   7.135  14.057  15.826  0.1681 -0.0160 -0.2813
 4259W        W20733   6.372  15.631   1.590  0.3704  0.3085 -0.1866
 4260W        W20734   3.367   9.649   0.709  0.2646 -0.1634  0.0826
 4261W        W20735   8.048  17.091  15.018 -0.1758 -0.0591  0.5541
 4262W        W20736   7.848   3.934  15.417  0.0545  0.2902 -0.0911
 4263W        W20737  13.919  13.482   1.757  0.0951  0.1302 -0.0248
 4264W        W20738  14.213  10.623  14.366  0.0315 -0.0119 -0.0386
 4265W        W20739   1.143   8.826   4.051 -0.1862 -0.0215 -0.0310
 4266W        W20740   7.766   2.131  15.558 -0.0425  0.1154  0.0812
 4267W        W20741   4.248  15.848   2.015  0.1089 -0.1209 -0.2541
 4268W        W20742   1.271   7.353  11.072  0.3276 -0.1276  0.0663
 4269W        W20743  15.689   7.250  11.451 -0.0991  0.3878 -0.0577
 4270W        W20744  16.188   6.217  15.858  0.0125  0.0266 -0.0838
 4271W        W20745  16.297   7.659   1.775 -0.0642  0.1358  0.1215
 4272W        W20746   0.214  10.163  13.376 -0.3140 -0.1597  0.0918
 4273W        W20747  15.636  18.143  14.905 -0.2938  0.1618 -0.0994
 4274W        W20748  18.312   9.150   1.981 -0.0159  0.1149 -0.0937
 4275W        W20749  12.453  12.555  14.938 -0.0017  0.2138 -0.0893
 4276W        W20750   7.368  14.740  12.626  0.1252 -0.1198  0.0381
 4277W        W20751  13.341   1.079  12.318  0.1091 -0.0796 -0.1700
 4278W        W20752  16.015  12.876   0.418  0.0641 -0.1394  0.2700
 4279W        W20753   0.515  13.524  14.051 -0.1292 -0.0418  0.0465
 4280W        W20754  16.552   2.243   5.257 -0.0032 -0.0367 -0.2228
 4281W        W20755  15.223  14.065  11.722  0.0848  0.0553 -0.0209
 4282W        W20756  13.973   1.952   5.202  0.0993 -0.0746  0.0267
 4283W        W20757   0.437  10.099   1.933 -0.0291 -0.5363 -0.0497
 4284W        W20758   3.428   5.702   3.204  0.0864 -0.1108  0.1676
 4285W        W20759   8.581   2.238  11.703 -0.1320  0.1339 -0.3574
 4286W        W20760   8.209   5.216  14.905 -0.2605 -0.1173  0.0546
 4287W        W20761  18.130  10.556  12.118 -0.0432  0.1910  0.1734
 4288W        W20762  17.629   9.626   2.572  0.1660  0.1274  0.3107
 4289W        W20763   4.970  15.720   0.585  0.3043 -0.1471 -0.2306
 4290W        W20764   1.354   6.147   3.224  0.6587 -0.2147  0.0552
 4291W        W20765  12.543   1.987  12.430  0.1495  0.2140 -0.1706
 4292W        W20766   7.808   4.333   2.502 -0.0662  0.1063 -0.1494
 4293W        W20767  11.638   2.727  13.991 -0.0104 -0.2602 -0.0392
 4294W        W20768  15.902   5.696   0.742  0.1345  0.1396 -0.1200
 4295W        W20769  10.483   6.000   2.701  0.0459 -0.0646  0.3541
 4296W        W20770   4.089   9.392   4.378  0.0972 -0.0321  0.1436
 4297W        W20771  14.483  15.272   1.620 -0.1926 -0.0407 -0.0536
 4298W        W20772   2.713   3.664   0.476  0.3982  0.0967  0.1867
 4299W        W20773  11.276  14.145  11.921 -0.1300  0.0333  0.0902
 4300W        W20774   6.069   6.625   2.957  0.0007  0.3600 -0.0225
 4301W        W20775   0.670   8.001   3.297 -0.2966 -0.2117  0.2236
 4302W        W20776   9.772   1.554  14.439  0.0536 -0.1418  0.0140
 4303W        W20777  10.085   9.896  14.851 -0.0536  0.2937  0.0381
 4304W        W20778   6.181   9.086  12.310  0.1778  0.3195 -0.3299
 4305W        W20779   2.481  14.666   5.112  0.0438  0.0557  0.2969
 4306W        W20780   6.967  10.704  13.137  0.0898  0.1686 -0.2823
 4307W        W20781   2.680  14.426  15.516 -0.0116 -0.0153  0.1311
 4308W        W20782  12.972  16.044  15.057 -0.2946 -0.1182  0.0006
 4309W        W20783   4.301   3.255  13.819 -0.1116  0.2369  0.1761
 4310W        W20784  18.051  14.129  12.054  0.0778  0.3038  0.0143
 4311W        W20785   6.774   4.278   3.422 -0.1912  0.2537  0.3473
 4312W        W20786   9.666   8.243  12.075  0.1561  0.0051  0.1628
 4313W        W20787  12.650   2.823  15.638  0.5914 -0.1778  0.1212
 4314W        W20788  14.483  15.093  14.119 -0.0779 -0.0664  0.1295
 4315W        W20789  16.964  11.405   5.177 -0.0609  0.0148 -0.0567
 4316W        W20790   0.524  14.661  15.575 -0.2080  0.0884 -0.1193
 4317W        W20791  18.315  13.406   1.226 -0.0322 -0.2394 -0.0384
 4318W        W20792  12.986   1.422  16.110  0.2158  0.2292  0.0056
 4319W        W20793   7.973   0.222  15.638  0.0300  0.0548  0.0559
 4320W        W20794   0.358  12.287  15.705 -0.2360 -0.1737 -0.1497
 4321W        W20795  17.439   3.270   4.709 -0.1269 -0.0778  0.0927
 4322W        W20796   2.534  17.128   5.135 -0.0755 -0.0384  0.0748
 4323W        W20797  13.702   3.148   4.203  0.0990 -0.1088 -0.1738
 4324W        W20798   9.335  15.043   1.965 -0.1056  0.0551 -0.0232
 4325W        W20799   4.098  13.819   0.790  0.0323 -0.0488 -0.1025
 4326W        W20800  10.968  15.795   3.076 -0.0210 -0.1840  0.1892
 4327W        W20801  11.711  12.344  16.317  0.1875  0.0987 -0.0056
 4328W        W20802  12.891  12.474  15.696 -0.0068 -0.0687  0.1718
 4329W        W20803  13.328  10.486   3.860  0.0512  0.1758  0.1582
 4330W        W20804   7.054  10.152   5.598  0.4069  0.2184 -0.1193
 4331W        W20805  17.634  10.475   2.433 -0.0380  0.0918 -0.2349
 4332W        W20806   2.158  17.459   4.978  0.0453 -0.1507 -0.1343
 4333W        W20807  10.895  17.860  13.225 -0.1395  0.1867  0.2487
 4334W        W20808   5.833  10.544  12.986 -0.1510  0.2695  0.1657
 4335W        W20809   6.805  16.527   2.554  0.0738  0.0520 -0.3247
 4336W        W20810   6.890  13.870  14.448 -0.0328 -0.2982  0.0552
 4337W        W20811  13.598   5.484  13.774  0.0357 -0.0807 -0.2281
 4338W        W20812   7.539   4.172  13.073  0.0907  0.1826  0.2416
 4339W        W20813   0.632  10.794   3.163  0.0400  0.1675  0.1682
 4340W        W20814  10.214  14.607  12.026  0.1193 -0.0965  0.1193
 4341W        W20815   7.664   2.077   5.050 -0.1455 -0.0283 -0.2482
 4342W        W20816   9.815   7.868   0.981 -0.1161 -0.1011 -0.0734
 4343W        W20817  13.282   2.027  14.326 -0.0004  0.2369 -0.1331
 4344W        W20818   8.241  16.760  13.406 -0.2823 -0.0495 -0.1295
 4345W        W20819   4.678   5.327   1.298  0.4133 -0.0667 -0.2149
 4346W        W20820  18.103   9.485   0.854  0.5001 -0.1531  0.3149
 4347W        W20821   4.708  12.327  14.705  0.2736  0.2344 -0.1383
 4348W        W20822  14.408   6.084  12.348  0.5023 -0.2320 -0.3016
 4349W        W20823  17.691   9.136  15.263 -0.1330 -0.2488 -0.1709
 4350W        W20824  10.582  14.456  12.898  0.1139 -0.3243 -0.1334
 4351W        W20825  14.800   8.081   4.233 -0.3691  0.2662 -0.2054
 4352W        W20826  11.561  11.257   1.216 -0.0743  0.2626 -0.0496
 4353W        W20827  17.478   5.762   3.260  0.2180  0.1257 -0.2083
 4354W        W20828  11.143  15.235   1.274  0.2877 -0.3469  0.1085
 4355W        W20829   4.015  13.139   1.379  0.3188  0.0011 -0.1593
 4356W        W20830   7.177   1.681  12.909 -0.1639 -0.1959 -0.0638
 4357W        W20831   8.407  10.549   0.991  0.0571  0.0076 -0.0385
 4358W        W20832   7.684  12.838   4.828 -0.2238 -0.3416 -0.1778
 4359W        W20833   5.414  16.772   0.028 -0.2907  0.5213 -0.1599
 4360W        W20834   7.622   2.636  10.455  0.0114  0.1861  0.3292
 4361W        W20835  11.585  11.254   3.769 -0.2732 -0.0281  0.2100
 4362W        W20836  16.829   3.973   1.467  0.1283  0.1313 -0.3251
 4363W        W20837  12.777   5.061   2.002  0.2376  0.0891  0.0363
 4364W        W20838  16.692  10.450  12.540  0.0064 -0.2065 -0.0624
 4365W        W20839  13.037  10.761   2.538  0.0060 -0.0762  0.0430
 4366W        W20840   0.678   1.131  12.451  0.4539  0.1111  0.0142
 4367W        W20841   8.208  17.351  12.947  0.2920 -0.0367  0.3489
 4368W        W20842   1.967  13.792   3.120 -0.0079  0.0189 -0.0495
 4369W        W20843   0.975   5.368   5.070  0.0922  0.1052  0.1446
 4370W        W20844  12.812   5.115   1.027  0.1924  0.0184  0.3133
 4371W        W20845   7.806   8.251   2.840 -0.1396  0.1146 -0.2124
 4372W        W20846   7.059   0.685  13.195 -0.0346  0.1770 -0.2661
 4373W        W20847   9.139   4.161  12.356  0.0005  0.2373  0.0872
 4374W        W20848  12.155  13.305   5.971 -0.1709 -0.0280  0.1917
 4375W        W20849   1.969  10.703   0.190  0.1631  0.1168  0.2668
 4376W        W20850  11.543   5.915   1.520  0.3590 -0.0110  0.1928
 4377W        W20851  12.129   2.131   0.511 -0.1069 -0.1504  0.0091
 4378W        W20852   4.692   4.327   2.156 -0.1834  0.0677  0.2804
 4379W        W20853  17.535   0.717   4.020 -0.0770 -0.1219  0.1347
 4380W        W20854  10.527   3.040  11.497 -0.1106 -0.2609  0.4628
 4381W        W20855  14.007  10.659  13.487 -0.0271  0.2456  0.5441
 4382W        W20856  11.097  12.833   5.430  0.1817  0.1935  0.5485
 4383W        W20857  16.210  10.282   4.697  0.3617 -0.0970 -0.2355
 4384W        W20858  14.418  17.095   5.401 -0.0770 -0.1130 -0.2660
 4385W        W20859  11.739  15.134   6.050  0.1637  0.1915  0.0569
 4386W        W20860  17.752   5.285   3.377 -0.3584  0.0410  0.0967
 4387W        W20861   2.896   6.307   2.257  0.0785 -0.0804  0.0142
 4388W        W20862  18.240  10.327   1.353 -0.0808  0.3261  0.0848
 4389W        W20863   4.719   6.189  10.654  0.0910 -0.1753 -0.1314
 4390W        W20864  14.387   9.599  11.872 -0.2231  0.1089  0.1349
 4391W        W20865   3.341  16.410   4.555  0.1368  0.1462 -0.1737
 4392W        W20866  12.904   8.989  13.111  0.0065 -0.3114 -0.3243
 4393W        W20867   6.128  13.001  15.045  0.2022 -0.0888  0.3228
 4394W        W20868  10.798  18.200   1.084  0.0009 -0.1180  0.1638
 4395W        W20869   7.114  15.277  11.931  0.0071 -0.1332 -0.1111
 4396W        W20870  17.847  13.461   5.519  0.0033  0.0240  0.6501
 4397W        W20871  18.046  12.071   1.866  0.3971  0.1982  0.3271
 4398W        W20872  10.095   1.784   0.333 -0.1734 -0.0225 -0.2003
 4399W        W20873  16.377   3.215   1.537 -0.1327 -0.2848 -0.3280
 4400W        W20874  11.007   4.394   1.991  0.2194  0.1659  0.0268
 4401W        W20875   2.051   1.823  11.926 -0.2602  0.0341  0.0674
 4402W        W20876   3.202   6.307   1.231  0.1935  0.0758  0.0515
 4403W        W20877   9.345   6.309   1.257 -0.5479  0.1249  0.1736
 4404W        W20878  17.337   7.519   1.211 -0.1440 -0.0499  0.1611
 4405W        W20879   6.379   3.239  12.270 -0.1274 -0.1103 -0.5271
 4406W        W20880   5.280  13.869   1.364  0.0466 -0.0196 -0.0045
 4407W        W20881   6.955  11.449   1.550  0.0911 -0.0635  0.1463
 4408W        W20882  10.779  13.556  13.015 -0.0673 -0.2913 -0.4440
 4409W        W20883   7.707  12.686  14.097 -0.2164 -0.4186  0.1313
 4410W        W20884  14.175   0.654   5.065 -0.1206  0.0052  0.2466
 4411W        W20885  11.081   8.617   3.794 -0.1158 -0.2379 -0.1614
 4412W        W20886  18.192   9.623  14.541 -0.1439  0.1230  0.2767
 4413W        W20887   0.341  16.926  12.083  0.0079 -0.0197  0.0954
 4414W        W20888   7.554  15.387   1.908 -0.0348 -0.0182  0.2791
 4415W        W20889  11.754  16.842   3.444 -0.0724  0.0929 -0.2759
 4416W        W20890   7.990  15.212  13.002 -0.0299 -0.3302 -0.2528
 4417W        W20891   7.071   0.396  15.108 -0.0516 -0.1618  0.0543
 4418W        W20892  12.412  10.133   0.156 -0.0175 -0.0025 -0.0367
 4419W        W20893  11.177  18.298  11.373  0.0008 -0.3518  0.1110
 4420W        W20894   7.040   7.635   1.295 -0.5096  0.3295  0.1359
 4421W        W20895   8.809   9.384   0.432 -0.1939  0.0882 -0.1833
 4422W        W20896   9.387   4.182  13.481 -0.1310 -0.3766  0.0975
 4423W        W20897  11.888   8.495   1.594  0.4654 -0.1717 -0.0541
 4424W        W20898   1.935  11.316   1.721  0.1591 -0.1913 -0.0649
 4425W        W20899  16.742   8.669   5.295  0.1000 -0.3299  0.2498
 4426W        W20900  17.260  14.231   4.017 -0.2027 -0.2863  0.3411
 4427W        W20901  11.281  17.560  13.966 -0.3663 -0.0675 -0.0374
 4428W        W20902   7.327   6.829   0.858 -0.3123  0.2399 -0.0987
 4429W        W20903   7.734   2.069   1.348  0.0192 -0.0205 -0.0679
 4430W        W20904   7.993  12.317   1.493 -0.0415 -0.1594  0.0352
 4431W        W20905  18.113   9.764  12.678  0.0523  0.2910 -0.0818
 4432W        W20906  16.840  11.843   5.459 -0.1563  0.0186  0.3106
 4433W        W20907   0.949  12.040   3.692  0.1704 -0.0910  0.1366
 4434W        W20908  15.770  12.435  11.573 -0.2057 -0.2966  0.1289
 4435W        W20909   7.778  10.073   3.458  0.1283 -0.1440 -0.0925
 4436W        W20910   0.460   6.705   0.536 -0.3476 -0.1750  0.3154
 4437W        W20911   3.420   1.342  11.899 -0.1177 -0.3579  0.0104
 4438W        W20912  16.704   4.697   5.212 -0.1471 -0.0135  0.1556
 4439W        W20913   1.213   3.796   3.429  0.1507  0.0816 -0.0742
 4440W        W20914   0.205   3.703  15.526  0.0061 -0.1633 -0.0829
 4441W        W20915   7.679   8.467  12.497  0.0297 -0.1445 -0.3218
 4442W        W20916   8.971   3.740  12.716  0.1503 -0.0055  0.2439
 4443W        W20917  10.540  14.192   3.302  0.0539  0.0744  0.0674
 4444W        W20918  14.068   5.185  12.309 -0.1172 -0.2085 -0.1278
 4445W        W20919  17.203  13.396   0.501  0.0911 -0.3939 -0.1321
 4446W        W20920  15.691   9.894  15.126 -0.2380  0.0074  0.2024
 4447W        W20921   8.764   6.739  13.452  0.2258  0.2146 -0.0583
 4448W        W20922  13.061  14.384   2.191  0.0208 -0.0598  0.1911
 4449W        W20923  15.735   4.465   0.478 -0.1031  0.2721 -0.0534
 4450W        W20924   4.603   5.972   5.720  0.0111 -0.2018  0.0426
 4451W        W20925   7.926   1.431   1.484 -0.0445  0.4453 -0.0788
 4452W        W20926  10.705   6.949   2.433  0.0035 -0.2224 -0.2248
 4453W        W20927  11.115   6.152  13.473  0.1415  0.1104  0.1327
 4454W        W20928   4.428   1.358   2.171  0.0689  0.0083 -0.1878
 4455W        W20929   0.153  17.605  10.955  0.0641 -0.0688 -0.0643
 4456W        W20930  11.865   0.005   5.422 -0.0249  0.1598  0.2257
 4457W        W20931   6.423   3.952   0.133 -0.0191 -0.2713 -0.1801
 4458W        W20932  11.819  10.653  14.164  0.0013 -0.0781  0.1384
 4459W        W20933  15.330  10.895  13.947 -0.0126  0.2839 -0.0818
 4460W        W20934  13.470   1.290   5.487  0.1421  0.0640  0.1313
 4461W        W20935  12.838   0.787   1.565 -0.0212  0.3097 -0.0800
 4462W        W20936   2.419   8.717  10.512  0.2882 -0.3158 -0.0374
 4463W        W20937  12.499   6.895   1.488  0.1511 -0.0308  0.1978
 4464W        W20938  11.823   3.518  10.890  0.0340 -0.1124 -0.0537
 4465W        W20939  17.246   2.597  12.579  0.2975  0.0053 -0.0012
 4466W        W20940   3.285   4.827  16.127  0.0648  0.4487 -0.2102
 4467W        W20941  12.915  13.265  14.618 -0.2446  0.0908  0.1216
 4468W        W20942  14.876  13.164  11.689  0.2696 -0.2345 -0.1231
 4469W        W20943  17.174   0.254  14.898 -0.0437 -0.2132 -0.0239
 4470W        W20944   1.267  11.521   4.134  0.1275 -0.0328  0.3045
 4471W        W20945   1.742  10.866  14.693  0.2493  0.2201 -0.0850
 4472W        W20946   1.427   6.702   3.737  0.1882  0.1245  0.0589
 4473W        W20947  16.487   3.016   4.246 -0.0109  0.1616 -0.1472
 4474W        W20948  17.796  17.654   3.887 -0.1453  0.1939 -0.3602
 4475W        W20949  11.271   5.905  15.758 -0.1466  0.1609 -0.0612
 4476W        W20950   9.876  16.694  15.998  0.5081  0.1034 -0.0008
 4477W        W20951   1.753  11.247  15.387  0.2568  0.0733 -0.2711
 4478W        W20952   4.636   7.194   4.582  0.0504  0.0230  0.0977
 4479W        W20953   7.108  10.287   3.625 -0.0969  0.1226  0.1328
 4480W        W20954  13.853  17.458   2.896  0.1096 -0.0465 -0.1488
 4481W        W20955   7.606   1.650  11.807 -0.1387  0.0809 -0.1067
 4482W        W20956  16.983   0.485   2.027 -0.0326 -0.3845 -0.2504
 4483W        W20957  13.617   4.908  13.012  0.0485 -0.0020 -0.2406
 4484W        W20958  14.280  14.836  13.122 -0.1274  0.1228  0.1246
 4485W        W20959  12.704  15.119  11.420  0.1093  0.0161 -0.2285
 4486W        W20960   4.991   9.933  13.576  0.1824 -0.0698 -0.4276
 4487W        W20961  12.229  16.273  11.859  0.0186 -0.3252  0.1754
 4488W        W20962  18.295   7.441  12.547  0.2025 -0.0932 -0.0338
 4489W        W20963  10.873   2.895  14.257  0.1618  0.1229 -0.0795
 4490W        W20964   9.488  13.446   0.834 -0.0487 -0.2833  0.1964
 4491W        W20965  10.646   3.085  12.484  0.2214  0.2015  0.1977
 4492W        W20966  16.792   7.343  13.662 -0.0636  0.1851 -0.1157
 4493W        W20967   6.240   5.448   4.534 -0.0835  0.1366 -0.0797
 4494W        W20968   0.770   4.497  15.997 -0.0882  0.0673  0.0967
 4495W        W20969   1.251  12.489   3.678  0.1671 -0.1912 -0.0920
 4496W        W20970   4.889  15.063  15.770 -0.0978 -0.0682 -0.0190
 4497W        W20971   3.225   9.115  11.518 -0.0941  0.3795  0.1158
 4498W        W20972  12.942  10.182   4.390  0.0668  0.0315 -0.0497
 4499W        W20973   7.934  13.374   3.702  0.3142  0.2090  0.1433
 4500W        W20974  15.246   2.402  13.668 -0.0490  0.0055  0.1630
 4501W        W20975  17.139   7.305  12.708 -0.2843 -0.1001  0.2295
 4502W        W20976   2.157   0.025  15.708  0.0140  0.2635 -0.3553
 4503W        W20977   5.761  14.692   2.332 -0.2516  0.0673  0.0882
 4504W        W20978   0.365   4.257   0.564  0.0374 -0.2067  0.0989
 4505W        W20979  11.986   4.957  12.941  0.3493 -0.0806  0.0263
 4506W        W20980  17.489   4.070  14.918 -0.2006  0.0197 -0.0055
 4507W        W20981  12.045   5.847  15.624 -0.0973  0.0540  0.0056
 4508W        W20982   2.611   7.313   5.677 -0.3107 -0.2183 -0.3972
 4509W        W20983   3.087  10.904   1.382 -0.1811  0.3816  0.1729
 4510W        W20984  14.422  10.619  15.326 -0.1933  0.0199  0.1586
 4511W        W20985  11.281  15.942   3.847 -0.2457  0.2125 -0.0759
 4512W        W20986   0.538   4.420  13.118  0.1141  0.0222  0.3214
 4513W        W20987   5.674  12.084   2.872 -0.0702  0.0216 -0.3713
 4514W        W20988  11.811  15.189  15.998 -0.0636 -0.0478 -0.0676
 4515W        W20989  10.848  11.684   3.458 -0.2870 -0.1512 -0.1085
 4516W        W20990  17.735   0.150   1.973 -0.2303 -0.0523  0.0542
 4517W        W20991   3.576   1.509  14.803 -0.1745  0.0320  0.1165
 4518W        W20992  13.190   8.560   2.656 -0.1822  0.0826 -0.0750
 4519W        W20993  17.109  12.508  13.377  0.1591 -0.3148 -0.0809
 4520W        W20994  17.604  18.196  12.042  0.2331 -0.3041 -0.0180
 4521W        W20995  13.951  10.361   5.595  0.0798 -0.1526  0.3624
 4522W        W20996   0.080   9.650  14.956  0.0989  0.1217 -0.0106
 4523W        W20997  14.403   2.615   3.928 -0.1708  0.0861  0.1792
 4524W        W20998   5.170  12.915   2.731 -0.1517  0.2088  0.2334
 4525W        W20999   6.402   4.081   2.507  0.4977  0.4598  0.0099
 4526W        W21000  16.615   4.060  13.402  0.2149  0.1873  0.1471
 4527W        W21001  10.066  13.347  14.152  0.1250 -0.0593 -0.1911
 4528W        W21002   1.328   4.582   1.418  0.0867  0.0581  0.2874
 4529W        W21003   5.987  11.343  11.736  0.0612 -0.0627  0.0574
 4530W        W21004   2.458   2.195   2.459 -0.0239 -0.1582 -0.0119
 4531W        W21005   9.293  15.297   1.437 -0.0901 -0.4159  0.1433
 4532W        W21006  11.305   1.211  15.514  0.1087 -0.1173  0.2152
 4533W        W21007   4.188   0.816   4.303 -0.1673 -0.3107 -0.3184
 4534W        W21008  15.278  11.099   5.402  0.3395  0.2465 -0.3250
 4535W        W21009   6.114  11.834  15.621  0.0352 -0.0436 -0.0989
 4536W        W21010  12.241   6.892  12.602 -0.1081  0.0629  0.0704
 4537W        W21011  14.849  13.301  10.413 -0.0952  0.0499 -0.0708
 4538W        W21012  10.087   4.533   2.858 -0.2400 -0.0237 -0.1708
 4539W        W21013   9.475  17.308   1.596 -0.0857  0.1366 -0.1214
 4540W        W21014  15.503   5.225   2.279  0.4633  0.1205  0.0340
 4541W        W21015   9.285   1.617   2.872 -0.2874  0.1862 -0.2429
 4542W        W21016   9.372   2.472  14.192  0.1275 -0.3449 -0.0913
 4543W        W21017   5.169  14.984   4.632  0.1093 -0.1981 -0.0939
 4544W        W21018   3.660   0.533   4.032  0.1683  0.2917  0.4713
 4545W        W21019  16.261  15.674   0.409  0.0298 -0.3422  0.2417
 4546W        W21020   1.950   3.217  15.185 -0.1099  0.1337  0.0236
 4547W        W21021   3.053  12.341   0.577  0.0938  0.1672  0.3002
 4548W        W21022  12.759  14.836   6.113  0.0216  0.0941  0.0245
 4549W        W21023  12.387  13.858  13.498 -0.0350  0.1250 -0.1768
 4550W        W21024   5.378   8.370  12.325 -0.0828 -0.0304 -0.0386
 4551W        W21025  12.357   4.632  11.068  0.2669 -0.2463  0.2271
 4552W        W21026   1.116   0.956  11.313  0.0793 -0.3793  0.1851
 4553W        W21027  16.974   3.857  12.311 -0.1918  0.2043  0.0240
 4554W        W21028  16.948   5.345   4.971  0.1442 -0.1017  0.1778
 4555W        W21029   4.079   1.586  12.434  0.1449  0.2555  0.0173
 4556W        W21030  11.299   2.461   3.894  0.1560 -0.0848 -0.2648
 4557W        W21031   9.433  12.652  15.692 -0.2543  0.2242 -0.3643
 4558W        W21032   6.521   8.552  13.397  0.0951 -0.1308  0.0270
 4559W        W21033  10.073   3.109   3.795  0.1483  0.1325  0.0030
 4560W        W21034   7.219  11.099   1.150  0.0432  0.4260 -0.2718
 4561W        W21035   0.104   5.940  12.275 -0.0388  0.2121 -0.1315
 4562W        W21036   3.639   8.390  14.351  0.1044 -0.0097  0.0737
 4563W        W21037   6.275  15.988   3.089  0.2112  0.1527  0.0478
 4564W        W21038   6.753  17.984  14.414 -0.5364 -0.1324  0.0196
 4565W        W21039   2.847   9.089   4.198  0.1981 -0.2148  0.0689
 4566W        W21040  17.036   5.250   2.912 -0.1925 -0.0271  0.0497
 4567W        W21041   3.207  12.481  13.630 -0.1354  0.1725 -0.3140
 4568W        W21042   1.460  17.974  14.906 -0.2163 -0.1130 -0.4486
 4569W        W21043   4.520   7.751   0.409 -0.1049  0.4792  0.0967
 4570W        W21044  14.255  16.289   3.447 -0.1200 -0.2792 -0.1638
 4571W        W21045   1.542  14.108  11.458  0.1966 -0.0710  0.0238
 4572W        W21046  12.672   5.836  11.160  0.2986  0.1165 -0.1436
 4573W        W21047   3.145   2.528   3.125  0.1459 -0.1885  0.3441
 4574W        W21048  12.141  12.880   1.270  0.1904 -0.1451 -0.0103
 4575W        W21049   3.963  15.669   1.521 -0.0206  0.0457  0.1270
 4576W        W21050  17.934   4.621  12.761  0.0555  0.0786 -0.3242
 4577W        W21051   9.512   9.891  12.839  0.1600  0.0629 -0.0499
 4578W        W21052   6.172  16.111   5.394 -0.0710 -0.2665  0.1442
 4579W        W21053   1.624  11.410  12.148 -0.0677 -0.0336 -0.0442
 4580W        W21054   1.915  13.296   4.228 -0.0100 -0.0792  0.1594
 4581W        W21055   4.308  17.962  15.112 -0.0572  0.0613 -0.1128
 4582W        W21056  15.911  13.615  14.949 -0.1258 -0.0230 -0.0495
 4583W        W21057   6.729   0.826   0.547  0.0648  0.3525  0.0042
 4584W        W21058  10.230   7.005  14.374  0.2989  0.2046 -0.0937
 4585W        W21059   0.717   0.009   3.447  0.0602 -0.1214  0.1524
 4586W        W21060   0.896   8.005   1.519  0.0317  0.2549  0.1666
 4587W        W21061   8.897   7.200   5.378 -0.3163  0.0962  0.2701
 4588W        W21062   2.889  15.413   1.384  0.1696  0.0799  0.0342
 4589W        W21063  16.166   5.977   0.997 -0.0877  0.2167 -0.2517
 4590W        W21064   7.649  10.160   1.594 -0.0495 -0.0121 -0.0119
 4591W        W21065   1.885   4.886  16.204  0.1602  0.0555 -0.3031
 4592W        W21066  11.371   6.810   4.428  0.0408 -0.1620  0.1677
 4593W        W21067   5.293   9.333   3.162  0.0022  0.1437 -0.1040
 4594W        W21068   1.630  17.724   5.162  0.0613  0.1127 -0.0629
 4595W        W21069  16.136  12.245   4.788 -0.1265 -0.0856  0.2789
 4596W        W21070   1.318   5.558  13.514  0.4290  0.1000  0.4038
 4597W        W21071  12.678   1.287  15.354 -0.2838  0.1771  0.0209
 4598W        W21072   6.846   8.858   1.013  0.2731 -0.0732  0.0177
 4599W        W21073  13.395   8.007  12.446 -0.0782 -0.2307 -0.0742
 4600W        W21074  15.480  14.179  12.729 -0.0008  0.2092  0.5522
 4601W        W21075   9.017   2.462  13.783 -0.1200  0.1773  0.0441
 4602W        W21076  12.661   9.078   4.179 -0.4019  0.2162 -0.0009
 4603W        W21077   9.449   3.144   1.945 -0.3335 -0.2352 -0.0848
 4604W        W21078  11.725   3.710  13.846  0.0644  0.0371 -0.0842
 4605W        W21079   2.692  14.573   2.049  0.1327 -0.0673 -0.1897
 4606W        W21080   1.539  14.388  12.339 -0.0552 -0.1740 -0.1281
 4607W        W21081   0.721  13.885  14.748  0.0980  0.1912  0.3386
 4608W        W21082   8.935   8.064   1.563 -0.3687 -0.3762 -0.0569
 4609W        W21083  10.379   3.052  13.416 -0.0387  0.3588 -0.1336
 4610W        W21084   6.333   9.486   4.549 -0.0827  0.3261 -0.0826
 4611W        W21085   5.508  17.551   3.623 -0.2260  0.0203  0.0592
 4612W        W21086   4.489  10.752   4.013  0.0015 -0.1359  0.1008
 4613W        W21087   5.151  13.351  15.345  0.0539  0.0641  0.2939
 4614W        W21088  13.379   6.659   3.892  0.1187 -0.1882 -0.1368
 4615W        W21089   9.590   1.153  13.959 -0.0890  0.1880  0.0577
 4616W        W21090   4.950  11.101  13.230  0.0260 -0.0019 -0.4097
 4617W        W21091   5.099   5.051  12.091  0.1095 -0.2961 -0.1907
 4618W        W21092  13.274  11.470   4.008 -0.3082 -0.2527 -0.0977
 4619W        W21093   5.887  11.529   5.280  0.1565  0.4999  0.2965
 4620W        W21094   7.126   9.830   2.516  0.0546  0.3291  0.2398
 4621W        W21095   8.118   4.714   1.576  0.3157  0.1490  0.2140
 4622W        W21096  14.140  14.222  14.904  0.1096 -0.0601 -0.0234
 4623W        W21097   1.825   9.644   2.867 -0.1116  0.1172  0.0906
 4624W        W21098   9.838  16.235   2.796  0.0101  0.4229 -0.1143
 4625W        W21099  15.693  13.343  16.165 -0.0406  0.1533  0.1283
 4626W        W21100  12.478  13.595  11.760 -0.2660  0.3247  0.3435
 4627W        W21101  15.887  14.860   5.411  0.1915 -0.0512 -0.0411
 4628W        W21102  11.009   2.779  11.577  0.0526  0.1573  0.1472
 4629W        W21103  10.337  18.066  11.647 -0.0936 -0.0732 -0.2030
 4630W        W21104   6.036   3.462  11.991  0.0334 -0.2457  0.1180
 4631W        W21105  11.114   2.460  11.150 -0.0869 -0.0104 -0.0821
 4632W        W21106  15.878  15.489   1.097  0.1858 -0.4867 -0.1374
 4633W        W21107  15.627  16.498  13.657  0.0588  0.0012 -0.4099
 4634W        W21108   7.018   8.244  12.070 -0.3109 -0.2677  0.1024
 4635W        W21109  17.795   3.427  16.282  0.1419  0.1328  0.0524
 4636W        W21110  14.925  13.972   5.320  0.2107 -0.5781 -0.3407
 4637W        W21111   0.442  14.245   4.059 -0.3052  0.0150 -0.2199
 4638W        W21112  15.701  11.704   4.096  0.0995  0.3229 -0.1463
 4639W        W21113   1.738  16.343   5.587  0.2146  0.4023  0.2470
 4640W        W21114   6.485  11.682  11.549 -0.1423 -0.2105 -0.3430
 4641W        W21115   7.281   6.085  14.195 -0.0015 -0.3245 -0.1250
 4642W        W21116   8.096  11.998  13.057 -0.1646 -0.2356  0.1625
 4643W        W21117   7.653   7.457  12.175 -0.1682 -0.0871 -0.3362
 4644W        W21118  11.454   4.397   4.133 -0.1232  0.1063  0.3741
 4645W        W21119  11.685   9.086   5.877  0.1693 -0.2356  0.1094
 4646W        W21120  17.411   2.993  14.783  0.1062 -0.0958  0.0423
 4647W        W21121  13.403   8.376  15.031  0.1892  0.3233 -0.0549
 4648W        W21122  16.040  17.979  15.388 -0.0105  0.2023  0.1219
 4649W        W21123   6.028  13.708   5.140 -0.0777  0.1575  0.1775
 4650W        W21124  17.292  14.680   0.180 -0.1250 -0.1575 -0.1293
 4651W        W21125   0.853   6.238  11.822  0.0408 -0.0708  0.1119
 4652W        W21126  10.620  11.819  14.764 -0.0362 -0.2607  0.0082
 4653W        W21127  12.156   7.986  10.925 -0.1360 -0.1003 -0.0035
 4654W        W21128  16.445  10.019   1.255 -0.0997  0.1305 -0.0415
 4655W        W21129   0.023  15.034   5.560 -0.1834  0.0465  0.1110
 4656W        W21130   2.146  11.693   4.032  0.0134  0.0664 -0.1026
 4657W        W21131   7.200  17.995  14.836 -0.0909  0.0150  0.2084
 4658W        W21132  13.480   4.500   1.468 -0.4268 -0.0490 -0.3594
 4659W        W21133   5.859   8.325  12.244  0.1125  0.0490  0.2155
 4660W        W21134  12.831   9.603   3.860 -0.0024  0.2500  0.0697
 4661W        W21135  16.318  17.162   4.942 -0.0214 -0.0876 -0.1693
 4662W        W21136   9.227   8.170  14.313 -0.0598 -0.0225  0.2488
 4663W        W21137  13.180   5.611  11.943 -0.2013  0.2822  0.1010
 4664W        W21138  12.855   5.514   1.337  0.1290  0.0503  0.1702
 4665W        W21139   2.821  17.837   4.237  0.2297 -0.1890 -0.1269
 4666W        W21140   8.970  17.646  13.309 -0.2280 -0.0163 -0.2671
 4667W        W21141  18.045  11.569   3.839 -0.1748  0.2306 -0.0168
 4668W        W21142   2.241   8.748  14.456 -0.1923  0.0810 -0.0622
 4669W        W21143   6.166  16.471   3.342  0.0424 -0.1501 -0.0441
 4670W        W21144  11.509  13.762   4.862 -0.1256 -0.0175 -0.1224
 4671W        W21145   5.582   3.077   2.148 -0.1816 -0.2110 -0.1572
 4672W        W21146   6.076   7.523   3.631 -0.0634 -0.1000 -0.2541
 4673W        W21147   3.288  16.567   0.560  0.4378  0.0338 -0.2571
 4674W        W21148   9.960  12.608   1.172 -0.0892 -0.0860  0.0336
 4675W        W21149   7.340   7.266   5.418  0.1009  0.1962 -0.1495
 4676W        W21150  11.147   6.795  10.841 -0.0488 -0.1871 -0.0021
 4677W        W21151   1.407   9.843  15.374  0.2765  0.0900  0.0202
 4678W        W21152   1.870  15.734   3.828 -0.1504 -0.1423 -0.0158
 4679W        W21153  18.054   7.773   4.157  0.2188  0.4277  0.0034
 4680W        W21154  12.789  16.860   4.003  0.3070 -0.2376  0.1218
 4681W        W21155   0.663   1.508   5.940 -0.3038  0.0386  0.2959
 4682W        W21156   2.903   2.796   2.776 -0.2611 -0.0527 -0.1205
 4683W        W21157   5.671  10.922   2.551  0.0480  0.0884 -0.0576
 4684W        W21158  14.936   6.404  12.005 -0.1241  0.0609 -0.1694
 4685W        W21159   8.226  18.102   1.127 -0.0955 -0.0695 -0.0010
 4686W        W21160   5.963   8.927   2.469  0.3405 -0.2306  0.0860
 4687W        W21161  13.497  15.882  16.249 -0.0201 -0.3517 -0.0089
 4688W        W21162  18.227  12.111  15.467 -0.0672 -0.0604 -0.0569
 4689W        W21163  13.912   9.692  13.034  0.1129  0.0206 -0.1904
 4690W        W21164   9.971   4.121  11.271 -0.1325 -0.0479 -0.0115
 4691W        W21165   4.697  12.957  12.342  0.4586 -0.0603 -0.2051
 4692W        W21166  16.126  14.723   0.044  0.0536 -0.1950  0.2009
 4693W        W21167  18.149  16.335   1.355 -0.2835  0.1375  0.2999
 4694W        W21168  13.134   5.654  13.539  0.1296 -0.3310 -0.0242
 4695W        W21169   7.975   9.685   2.738  0.2700  0.1088  0.0060
 4696W        W21170  15.055   8.751  15.887  0.0784  0.1860  0.1473
 4697W        W21171   0.694  17.746   2.330  0.0542  0.4613 -0.0597
 4698W        W21172  12.505  18.005  11.480  0.1616  0.1804  0.0972
 4699W        W21173  17.852  10.895  11.672 -0.0490 -0.1101  0.2559
 4700W        W21174   1.417  12.303   4.534 -0.0220 -0.0253  0.1664
 4701W        W21175  13.571   1.659   2.323  0.1444  0.0866  0.2470
 4702W        W21176  15.250   8.105  13.357  0.0018 -0.0545 -0.3367
 4703W        W21177  17.460  17.390  14.514 -0.1433  0.0500 -0.0954
 4704W        W21178   2.342  16.450   1.989 -0.2331 -0.1196  0.0126
 4705W        W21179  10.551   6.724   3.501 -0.0531 -0.0148 -0.1305
 4706W        W21180  13.271   6.720   0.474 -0.0979  0.3240 -0.3208
 4707W        W21181  10.504   3.261   3.951  0.0394 -0.2063 -0.2423
 4708W        W21182  17.448  15.126  16.151 -0.0014 -0.2212 -0.2169
 4709W        W21183   1.846   6.186   2.808 -0.1768  0.0039  0.1634
 4710W        W21184  13.919  18.320   1.297  0.0115 -0.0243  0.0674
 4711W        W21185   7.390   1.495   4.332  0.0540 -0.2206 -0.2260
 4712W        W21186  10.549  13.325   3.774 -0.3293  0.4342  0.2972
 4713W        W21187   2.363   6.037   3.508 -0.0739  0.1807  0.1635
 4714W        W21188   9.974  11.708  14.568 -0.0104 -0.0667  0.1324
 4715W        W21189   0.765   8.537  12.064  0.1619  0.2417 -0.0847
 4716W        W21190   9.657   3.458   0.509  0.1295  0.2508  0.1739
 4717W        W21191  13.322  13.629  14.715  0.2170  0.0952 -0.0207
 4718W        W21192  14.333  11.852   4.676 -0.1464 -0.0226  0.0270
 4719W        W21193   6.707  17.642  13.230  0.1174 -0.0270 -0.1683
 4720W        W21194   0.315   3.929   4.877 -0.0767  0.0843  0.1393
 4721W        W21195  13.938  14.311   3.936  0.0293 -0.1650  0.1807
 4722W        W21196   2.089  11.722  15.514 -0.3689 -0.2029 -0.1642
 4723W        W21197   7.324   7.453   4.966 -0.3096  0.0556  0.0645
 4724W        W21198  14.773  11.667   1.072  0.2049  0.1495  0.1562
 4725W        W21199  13.757   7.711  13.210  0.1706  0.1317 -0.0519
 4726W        W21200  14.458  18.131   1.967 -0.0783  0.0335 -0.0469
 4727W        W21201   1.533  17.355  13.287 -0.1998  0.0382  0.3763
 4728W        W21202   4.931   5.429   2.513  0.2961  0.0422  0.1850
 4729W        W21203  13.844   4.399  12.877  0.0269  0.0632 -0.0675
 4730W        W21204  10.108   7.734  15.448 -0.2486 -0.1435 -0.1392
 4731W        W21205   0.055   8.177   5.061  0.0933 -0.0569 -0.1649
 4732W        W21206   0.050   5.447   2.291 -0.3241  0.1706  0.1964
 4733W        W21207  13.800  12.757  15.431  0.0009 -0.2020 -0.0166
 4734W        W21208   3.691  17.709  13.362 -0.1466  0.0052 -0.1155
 4735W        W21209   0.086   9.729   5.207 -0.1673 -0.1667  0.1720
 4736W        W21210  18.230  16.804  16.188 -0.4129 -0.0908  0.3040
 4737W        W21211  13.906  15.978   3.614  0.1122  0.0379 -0.1011
 4738W        W21212   8.115   5.129  15.452 -0.1750 -0.0065 -0.3144
 4739W        W21213   0.106   1.161   1.264  0.0237  0.1549 -0.2472
 4740W        W21214  13.335   0.620  15.321  0.0707 -0.3620 -0.2884
 4741W        W21215   5.429  12.930   5.220  0.1139  0.3041 -0.2698
 4742W        W21216  17.440  17.180   5.014  0.0864  0.2312 -0.1057
 4743W        W21217   5.873   1.069   1.070 -0.1254  0.1117 -0.1388
 4744W        W21218  14.157  17.791   1.185 -0.0814 -0.1006 -0.2579
 4745W        W21219  16.189   4.609  15.921  0.2162  0.3503  0.0077
 4746W        W21220   3.226  12.635   2.658  0.1806 -0.1972 -0.3860
 4747W        W21221   6.756   9.186   0.413 -0.1333  0.1992  0.1496
 4748W        W21222  18.042   8.264   1.258  0.0897 -0.3387  0.0576
 4749W        W21223   4.620   8.632  15.332 -0.0190 -0.0879  0.0600
 4750W        W21224   9.878  15.147   4.513  0.0855  0.2853 -0.0930
 4751W        W21225  17.386   3.194  13.874 -0.0375 -0.0793  0.0936
 4752W        W21226   2.915  14.789  13.761 -0.0283  0.2367  0.1438
 4753W        W21227   4.963   9.869  11.781  0.0350  0.0055 -0.0452
 4754W        W21228   8.753   6.923   1.742  0.2224 -0.0083 -0.2515
 4755W        W21229  17.631  14.634   2.949 -0.1079 -0.0956 -0.0975
 4756W        W21230   0.953  11.130   5.889 -0.1193  0.2886 -0.0926
 4757W        W21231  15.709  18.032   0.452 -0.0584 -0.1936  0.0693
 4758W        W21232   0.485   6.097   5.339  0.0111  0.1265  0.0964
 4759W        W21233  10.972  16.652   6.037 -0.2409 -0.0162  0.1167
 4760W        W21234  15.961   2.134   1.755  0.0017  0.1663 -0.0402
 4761W        W21235  16.438   6.165  11.147  0.0243 -0.0536  0.1853
 4762W        W21236  11.834   2.635   0.131  0.1559  0.0127  0.1934
 4763W        W21237   9.042   0.538   3.022 -0.0984  0.3250 -0.1768
 4764W        W21238   6.410  13.676  15.869 -0.0119  0.0348  0.0803
 4765W        W21239   8.192  14.567   2.929 -0.3280 -0.0537 -0.0840
 4766W        W21240   2.598  12.479  16.096  0.0224  0.0626  0.1860
 4767W        W21241   2.334  17.130  13.981  0.0034 -0.1583 -0.3606
 4768W        W21242  11.780   4.656   2.616 -0.0632 -0.1681 -0.0904
 4769W        W21243   8.008   6.221   4.834 -0.1046  0.0829  0.0120
 4770W        W21244  10.850   8.332   5.800  0.0482 -0.0159  0.1148
 4771W        W21245  15.641   4.368  15.155 -0.1359  0.0565  0.2450
 4772W        W21246   7.358   1.181   5.091 -0.0475  0.1619 -0.1301
 4773W        W21247   2.219  16.971  11.428 -0.2029 -0.0958 -0.3081
 4774W        W21248   2.017  14.940  11.399 -0.0957 -0.1352  0.0892
 4775W        W21249  10.747  17.527  14.842 -0.1104 -0.0431  0.2867
 4776W        W21250   9.698  17.251  15.470 -0.0263  0.1607 -0.3871
 4777W        W21251  13.163  15.224   4.113 -0.2106 -0.2851  0.3431
 4778W        W21252  14.080  14.766  15.764  0.0996  0.0658 -0.0571
 4779W        W21253   2.663  10.674   2.637  0.0047  0.0652  0.1851
 4780W        W21254   3.877  10.004  13.641 -0.0058  0.0250  0.1671
 4781W        W21255   5.650   1.965  13.098 -0.0159  0.0963 -0.5517
 4782W        W21256   7.342   6.311  15.139 -0.0374  0.1273 -0.0055
 4783W        W21257   7.326   4.736   4.197 -0.1553  0.1605 -0.3633
 4784W        W21258   5.334  17.350   4.031  0.0924  0.0547  0.2700
 4785W        W21259   7.944   3.836   0.560 -0.1754 -0.2346  0.1688
 4786W        W21260  17.942   9.705   0.325  0.2977  0.1420  0.0871
 4787W        W21261   5.247  10.506   0.531 -0.1356  0.0410 -0.0930
 4788W        W21262  12.595  10.079  15.001  0.1311 -0.3656  0.0920
 4789W        W21263   1.902   9.505   5.576  0.3560  0.2055 -0.0436
 4790W        W21264   5.021   3.008  12.819 -0.0896  0.2049  0.1079
 4791W        W21265   8.164   6.723  15.110  0.1461  0.0394  0.3907
 4792W        W21266  16.749   6.422  14.668 -0.0310  0.1493  0.1144
 4793W        W21267   6.853   6.697   3.453 -0.1846  0.2244  0.1443
 4794W        W21268   7.658   4.231   3.008  0.0388  0.1873 -0.1267
 4795W        W21269  15.778   4.866  16.112  0.4264 -0.1900 -0.1813
 4796W        W21270   3.219  17.166  11.193 -0.0273 -0.1175  0.1784
 4797W        W21271   4.634   6.636   0.646 -0.0546  0.1355  0.1367
 4798W        W21272  12.419  13.901  12.592  0.0210  0.1236  0.2243
 4799W        W21273  14.865  15.446  13.841 -0.1860 -0.1699  0.4528
 4800W        W21274  15.375  18.162   2.046  0.0864  0.1347 -0.0899
 4801W        W21275   7.366   2.950   4.512  0.0412  0.4554  0.0688
 4802W        W21276   4.973   4.077   4.529  0.4570  0.0683 -0.1734
 4803W        W21277   5.483  10.035  15.242 -0.2428  0.0188  0.0769
 4804W        W21278   2.959   9.031  12.890  0.1347 -0.1485  0.2865
 4805W        W21279   9.808   8.247  13.267  0.2369  0.1370 -0.2836
 4806W        W21280   4.553   3.207  10.945  0.1351  0.0202 -0.3088
 4807W        W21281  12.115   0.369   2.238 -0.0301  0.3806 -0.1350
 4808W        W21282   5.206  12.840  12.240  0.0763 -0.0077 -0.3214
 4809W        W21283  11.936  13.525  15.555  0.3762 -0.1650 -0.1193
 4810W        W21284  17.320  10.621  14.656 -0.1194  0.0941 -0.0715
 4811W        W21285   6.789  11.141   4.742 -0.4048 -0.1937  0.2905
 4812W        W21286  11.880  14.651   3.834  0.0739 -0.0758 -0.3232
 4813W        W21287   7.275   6.338   5.513 -0.3279  0.1069  0.0875
 4814W        W21288  11.182   0.158   2.993  0.1856  0.0522 -0.2569
 4815W        W21289  14.995   4.591  15.676 -0.1718  0.1315 -0.0468
 4816W        W21290   9.331  10.950   5.155  0.0293 -0.1228  0.3407
 4817W        W21291   3.281   2.819  16.152  0.3795 -0.2245 -0.0006
 4818W        W21292  10.255   0.413  12.457 -0.0048  0.5568  0.0173
 4819W        W21293   0.182   1.659   5.776  0.2388  0.2244 -0.3029
 4820W        W21294   7.551   0.027   2.796 -0.1582 -0.0008  0.2318
 4821W        W21295   1.947   3.204   0.058 -0.0718  0.3545 -0.0226
 4822W        W21296  18.310   0.465  11.985 -0.0106 -0.1178  0.0673
 4823W        W21297   1.321   3.434   4.251  0.1360 -0.0391  0.1117
 4824W        W21298  18.289   3.228  12.158  0.0451  0.0784 -0.4366
 4825W        W21299   8.135  13.076  15.067 -0.1203 -0.1756  0.1172
 4826W        W21300  10.570   9.384   3.609 -0.4049  0.1663  0.1145
 4827W        W21301  14.121   1.477  16.180  0.0780 -0.0072 -0.1706
 4828W        W21302   9.677  10.070  13.393 -0.0569 -0.1185 -0.0448
 4829W        W21303  11.712   6.447  14.059  0.1649 -0.1852  0.3347
 4830W        W21304  17.758  12.468   1.164  0.0310 -0.0065  0.0773
 4831W        W21305   6.821   4.133  11.311 -0.1426  0.3876  0.3390
 4832W        W21306  11.310  17.067   3.231 -0.2131  0.1248  0.1507
 4833W        W21307  16.586   1.983   2.427  0.0769 -0.0181  0.1795
 4834W        W21308   4.964   6.677   3.914  0.1121 -0.1128  0.1481
 4835W        W21309   2.445   3.061   2.141  0.1109 -0.1120  0.0516
 4836W        W21310   0.801   3.866   4.694  0.2385  0.1279 -0.3710
 4837W        W21311   4.557  11.625  15.530 -0.0404  0.3219  0.2541
 4838W        W21312   3.578   5.601  15.659  0.2950 -0.2204 -0.0125
 4839W        W21313   4.330   9.576  15.332  0.1805 -0.0399 -0.0954
 4840W        W21314   5.721   1.307   3.987  0.0606  0.1445  0.1771
 4841W        W21315   5.131  16.893  14.758  0.0819  0.0951 -0.1169
 4842W        W21316   4.712   6.712  14.996 -0.0764  0.0365 -0.1544
 4843W        W21317   4.652   0.023  14.938  0.3702  0.0510 -0.0189
 4844W        W21318   5.850  15.108   2.706  0.1402 -0.1318 -0.3097
 4845W        W21319   8.170   8.479  12.594 -0.1201  0.0760 -0.0433
 4846W        W21320  11.581  14.609   0.667  0.0013  0.2152  0.1608
 4847W        W21321   9.095   4.110  15.977  0.1181  0.3121 -0.1943
 4848W        W21322   5.735  13.987  11.171  0.1540 -0.4219 -0.1427
 4849W        W21323   2.859  16.210   0.768 -0.1837 -0.2044 -0.0315
 4850W        W21324  16.901   7.809  11.501  0.0059 -0.1581  0.0293
 4851W        W21325   1.621  18.119  12.443 -0.1513  0.0174 -0.0971
 4852W        W21326  17.213   4.741  11.820  0.0158  0.1632  0.0216
 4853W        W21327   3.765   0.654   3.548 -0.0347  0.1421  0.0469
 4854W        W21328  16.655   0.627   0.282 -0.0969 -0.2114  0.3216
 4855W        W21329   5.256  11.778  13.024 -0.0800  0.0369  0.1922
 4856W        W21330  10.125  16.566   5.514  0.0118  0.0228  0.0133
 4857W        W21331   3.749   1.117   2.496 -0.0300  0.4062  0.2266
 4858W        W21332   1.568  11.426  15.820 -0.0395 -0.1395  0.2631
 4859W        W21333  10.051  10.733   2.893 -0.1713  0.0430 -0.0414
 4860W        W21334  13.092  14.730   5.757 -0.2804  0.0458 -0.0401
 4861W        W21335   7.234   0.909  11.876 -0.2892 -0.0332  0.1633
 4862W        W21336  17.345   7.810   4.002  0.0641  0.1393 -0.3394
 4863W        W21337  16.227  14.925  15.015  0.2833  0.0746  0.1700
 4864W        W21338   2.421   4.581   4.900  0.1496  0.1119  0.1316
 4865W        W21339   3.957   9.333  12.967  0.1585  0.0738 -0.0842
 4866W        W21340  12.262   8.780   6.144  0.2363 -0.1225  0.0702
 4867W        W21341   6.048   2.906   2.441  0.1133 -0.0607 -0.2082
 4868W        W21342   0.586   8.845   2.834 -0.2776  0.0926  0.0957
 4869W        W21343   3.422   5.572   0.325  0.0727 -0.2996 -0.1393
 4870W        W21344   4.327   8.497   5.576 -0.1744  0.2043 -0.0710
 4871W        W21345  14.338  12.611  12.945 -0.2667 -0.0298 -0.1094
 4872W        W21346   0.856  16.318  12.442  0.0800  0.1010  0.0075
 4873W        W21347   0.351  13.017   5.326 -0.0710 -0.0711 -0.0815
 4874W        W21348   9.327  10.391  14.112 -0.0907 -0.2844  0.1468
 4875W        W21349   2.161  14.970  14.820 -0.2350  0.1749 -0.1233
 4876W        W21350  10.048  15.438   5.071 -0.0862  0.2077 -0.2729
 4877W        W21351   5.143  12.921  11.772  0.0222 -0.1344 -0.2124
 4878W        W21352  17.541  13.992  11.663 -0.1714  0.1340 -0.0210
 4879W        W21353  13.608  13.388  12.442  0.2701  0.0830  0.0421
 4880W        W21354   3.303   8.142   5.217  0.0460  0.0557 -0.2171
 4881W        W21355   0.281  12.515   2.618 -0.0512  0.2969 -0.2306
 4882W        W21356  12.772   7.147   0.538  0.0613  0.1225 -0.0488
 4883W        W21357   4.054   6.097  15.609  0.2205 -0.1001 -0.0834
 4884W        W21358  14.121   8.795  12.227  0.0956  0.3139  0.0736
 4885W        W21359   6.037   0.377  15.147  0.1331  0.0480  0.1661
 4886W        W21360   4.143   2.882   4.930 -0.2642 -0.2207  0.0074
 4887W        W21361   9.733   0.595  12.428 -0.2392 -0.2101  0.0846
 4888W        W21362   6.372   1.277   1.172 -0.3136  0.2582 -0.0198
 4889W        W21363  16.336  16.500  12.946  0.1038 -0.0543 -0.2176
 4890W        W21364   5.700  11.798   3.821  0.1498  0.0087  0.1040
 4891W        W21365  16.121  10.732   5.086 -0.0825 -0.1332 -0.1437
 4892W        W21366   3.054  14.958  12.733 -0.1423 -0.0521 -0.1927
 4893W        W21367   5.141  15.637   1.145  0.3482 -0.0770  0.1833
 4894W        W21368  13.355  11.697   3.577 -0.2560 -0.0820 -0.0454
 4895W        W21369   4.835   4.437   4.161  0.2831 -0.2367 -0.3377
 4896W        W21370  12.040  15.002   4.236 -0.1487  0.0685 -0.1095
 4897W        W21371   3.609   4.106   1.112  0.0430 -0.2303 -0.1228
 4898W        W21372  13.920   2.466  11.231  0.1082  0.0689  0.0413
 4899W        W21373   2.347  11.883  14.583 -0.1744 -0.1165 -0.2669
 4900W        W21374  15.443  11.169   3.099 -0.0130  0.2664  0.0551
 4901W        W21375  12.581   0.880  11.534  0.1853 -0.2935 -0.0108
 4902W        W21376   1.094  16.359   2.431  0.0260  0.0253  0.0422
 4903W        W21377   7.003   1.435   2.503  0.3089 -0.2954  0.1291
 4904W        W21378  17.591   7.270   0.169  0.0862 -0.0032  0.1143
 4905W        W21379   7.771  17.137  11.307 -0.0950  0.3715  0.2107
 4906W        W21380   2.386  17.027  16.242 -0.1537 -0.0595  0.0456
 4907W        W21381   6.635   2.722  11.139  0.0655 -0.2862  0.1969
 4908W        W21382  16.169  12.245   3.436 -0.2683 -0.0048  0.0419
 4909W        W21383  17.499   5.665   3.775  0.2502 -0.1126  0.0814
 4910W        W21384  16.656  14.508   3.392 -0.3329  0.0969 -0.0115
 4911W        W21385  14.627  14.713  11.844 -0.0005  0.2877  0.2105
 4912W        W21386   8.577  15.221   5.439  0.1176 -0.3130  0.1719
 4913W        W21387   4.126  15.748   0.763  0.1278  0.1025 -0.0296
 4914W        W21388  17.332  11.664  15.448  0.0556 -0.0029 -0.2962
 4915W        W21389  12.188   2.629  10.774  0.3134  0.0192  0.2393
 4916W        W21390  15.951   1.177  11.648 -0.0756  0.3154 -0.0539
 4917W        W21391   1.346   2.071   0.385 -0.0458  0.1678  0.0067
 4918W        W21392  10.860   7.511   2.387  0.0010  0.1006 -0.1775
 4919W        W21393   3.200   1.849   2.307 -0.0110  0.2948 -0.0511
 4920W        W21394  10.087  16.557  14.897 -0.1253 -0.1184 -0.1102
 4921W        W21395   5.379  11.741   2.758  0.1461 -0.0954 -0.0007
 4922W        W21396   0.124   1.757   4.913 -0.0539  0.0351 -0.2266
 4923W        W21397  17.404   0.186   3.952  0.2203  0.1237 -0.4452
 4924W        W21398  15.548   9.818   0.509  0.1822  0.3633 -0.0498
 4925W        W21399  10.421  10.642  14.517 -0.1515  0.2693 -0.0507
 4926W        W21400   3.658  14.744   2.218  0.3861  0.1056  0.1003
 4927W        W21401   5.750  18.162   5.581  0.1441  0.1322  0.0174
 4928W        W21402   3.017   5.968  12.445 -0.2969 -0.0899 -0.1946
 4929W        W21403  13.118  12.814  14.700 -0.2686  0.1753 -0.1001
 4930W        W21404   7.855   1.664   5.445  0.0786 -0.0309 -0.0147
 4931W        W21405   9.504   8.544   5.529 -0.0507 -0.1043 -0.3006
 4932W        W21406  13.250   1.359   2.880  0.2207  0.2981 -0.2147
 4933W        W21407  17.576   7.986  15.618  0.0095 -0.0774  0.1612
 4934W        W21408   3.496   7.519   0.610  0.0302 -0.1675  0.3501
 4935W        W21409   9.062  11.721  14.432 -0.1754  0.1014 -0.1019
 4936W        W21410   8.032   0.332  13.389  0.2694 -0.1079  0.0018
 4937W        W21411   1.322   6.478  13.172 -0.0993  0.0117 -0.0484
 4938W        W21412  10.018  11.678   0.229  0.3162 -0.2282  0.4234
 4939W        W21413  11.530   9.743  15.991 -0.0066 -0.0644 -0.1451
 4940W        W21414   5.203   8.695  12.659  0.0405  0.0547  0.1619
 4941W        W21415   8.213  12.785   2.375  0.0276 -0.3458 -0.0774
 4942W        W21416  15.083  13.317   6.091  0.3549  0.1408 -0.1335
 4943W        W21417  11.544   9.042   4.667  0.1244  0.0830  0.1531
 4944W        W21418   9.872  14.560  13.133 -0.0756  0.3752  0.1632
 4945W        W21419   5.183   1.769   9.915 -0.1309  0.0799 -0.1799
 4946W        W21420   7.078  13.170   4.470  0.1960  0.0248  0.1216
 4947W        W21421   8.470   0.651  11.256 -0.1133 -0.1855  0.1840
 4948W        W21422  11.321  14.207  11.363 -0.0469  0.2435  0.0304
 4949W        W21423   0.803  11.646  12.084  0.2081 -0.0979  0.0523
 4950W        W21424  17.984   3.745  12.885  0.2341  0.2928 -0.0531
 4951W        W21425  16.599   7.438  11.343 -0.0940  0.3395  0.0182
 4952W        W21426   5.783   3.477   0.603  0.0822 -0.0817 -0.4205
 4953W        W21427   1.087  13.137   1.332  0.1108 -0.0401  0.1968
 4954W        W21428   6.451  15.138   3.603 -0.0332 -0.0922  0.1476
 4955W        W21429   1.284  10.917   2.402  0.0727  0.1267  0.2580
 4956W        W21430  13.713  18.170  11.863 -0.2991 -0.0671  0.0464
 4957W        W21431  16.283  11.602  11.402 -0.3416 -0.1140  0.1463
 4958W        W21432   3.640  18.281  12.925  0.0986  0.1246  0.0903
 4959W        W21433  15.462   6.316  16.114 -0.1416 -0.3027  0.2334
 4960W        W21434   1.042   2.198  12.070 -0.3168  0.0882  0.4248
 4961W        W21435  12.408   1.615   3.569 -0.2599 -0.0414  0.1086
 4962W        W21436   0.171  12.374  13.468 -0.0138 -0.0999 -0.1717
 4963W        W21437   2.330  11.220  12.682  0.0602 -0.0025 -0.0366
 4964W        W21438   9.346  11.759  11.972 -0.3979  0.2215 -0.0503
 4965W        W21439   2.683   4.181   0.600  0.0614  0.3182 -0.1233
 4966W        W21440  14.234   3.968  13.778 -0.1372  0.2072  0.3180
 4967W        W21441  11.529  16.896   2.647  0.5182  0.1888  0.2372
 4968W        W21442  11.973  11.077   4.002  0.4100 -0.0760  0.5191
 4969W        W21443  13.075   1.736   2.288  0.0640  0.1102  0.0544
 4970W        W21444  16.236   8.488  12.383 -0.0566 -0.4565 -0.0293
 4971W        W21445  11.559   3.662   3.561 -0.2141 -0.0279 -0.0487
 4972W        W21446  17.009  16.886  12.726  0.0158 -0.0620 -0.0250
 4973W        W21447  13.856   6.700  11.846  0.0121  0.1641  0.0296
 4974W        W21448  13.783  17.651  15.045 -0.0593  0.1402 -0.0749
 4975W        W21449   1.563   7.924  15.916 -0.0453  0.1236  0.3249
 4976W        W21450  16.749   6.740  12.354  0.1760  0.1869  0.2402
 4977W        W21451   0.099   8.731  12.933  0.0756 -0.1155  0.1104
 4978W        W21452   8.843   3.885   4.852  0.2723 -0.2392 -0.1086
 4979W        W21453  11.834   2.955  10.903  0.0605 -0.0254  0.0290
 4980W        W21454   8.409  10.162   0.446  0.0417  0.2540 -0.0791
 4981W        W21455   9.394   3.379  12.759  0.2473  0.0840  0.0788
 4982W        W21456   4.101   8.188   2.498  0.0564  0.1315 -0.0309
 4983W        W21457  17.384  12.564   2.018  0.3169  0.1320  0.1038
 4984W        W21458   4.151   4.801  14.540  0.2197  0.1680  0.0585
 4985W        W21459   1.250  16.326  14.314  0.1827 -0.2154  0.0940
 4986W        W21460   4.364   7.996  15.145  0.0104  0.0241 -0.2244
 4987W        W21461   8.734  14.865   5.073  0.3474 -0.1492 -0.2356
 4988W        W21462  18.174   4.630  15.682  0.0173  0.0253  0.0772
 4989W        W21463   6.025   0.947   3.802 -0.4014  0.2872 -0.0251
 4990W        W21464  13.934  15.858   1.327 -0.1799  0.0458  0.2759
 4991W        W21465   8.205   4.621  11.976 -0.0805 -0.1953 -0.3713
 4992W        W21466   9.093  15.480   6.183  0.2590 -0.6339  0.4519
 4993W        W21467  12.030   4.755   2.186  0.1116  0.0277  0.1921
 4994W        W21468  12.782   2.975   4.669  0.1077  0.3225 -0.1727
 4995W        W21469  11.598   9.982  12.881  0.0196  0.3200 -0.0190
 4996W        W21470   4.549  12.042   2.582  0.0103  0.0445 -0.1439
 4997W        W21471  16.833   9.236   3.018 -0.0437 -0.3198  0.1696
 4998W        W21472  13.011   8.154  13.902 -0.1034  0.0766 -0.2179
 4999W        W21473  13.023  16.062   2.346 -0.2091 -0.3083 -0.0150
 5000W        W21474   7.962  12.265  12.421  0.0370 -0.0173 -0.0034
 5001W        W21475  11.923  10.926   5.289  0.1407 -0.2213  0.0828
 5002W        W21476   4.386   9.030  16.081  0.2021  0.2028 -0.1517
 5003W        W21477   0.285   6.562  12.849 -0.0755 -0.0970  0.3504
 5004W        W21478   2.413  13.790  13.502  0.0342 -0.3254 -0.1785
 5005W        W21479   5.435  10.841   3.485 -0.0134  0.2668 -0.0292
 5006W        W21480   7.925   8.251   0.982 -0.1872 -0.0168 -0.0745
 5007W        W21481   9.604   6.705   0.516 -0.0629  0.3283  0.2353
 5008W        W21482  10.530   2.568  11.723 -0.0974 -0.0850 -0.2187
 5009W        W21483   0.845   2.209   0.581 -0.0626  0.1781  0.2272
 5010W        W21484   6.679   3.911   3.837  0.2753  0.2023 -0.0907
 5011W        W21485   0.905   2.861  11.159 -0.0453 -0.2273  0.0721
 5012W        W21486   2.342   7.605   2.184  0.2408  0.0481 -0.0095
 5013W        W21487   8.146   3.384  12.931 -0.1671  0.0736 -0.2009
 5014W        W21488   1.438   8.420   0.774  0.1015  0.3092 -0.0171
 5015W        W21489  17.186  11.206  11.012 -0.3542  0.3656 -0.2385
 5016W        W21490   1.648  10.929   1.470  0.0151  0.3010  0.0397
 5017W        W21491  14.109   1.780  11.445 -0.1461  0.0175 -0.3351
 5018W        W21492   1.367  12.241   0.403 -0.0658 -0.0036 -0.2729
 5019W        W21493  14.428   9.696   3.907  0.2471 -0.1864  0.0408
 5020W        W21494   8.827   2.162   5.900 -0.1603 -0.0085 -0.0271
 5021W        W21495  10.460  11.425   0.857  0.2847  0.4299 -0.0514
 5022W        W21496   6.088   8.621  12.539 -0.4566 -0.0367  0.1619
 5023W        W21497  17.081   2.095  13.410 -0.2284  0.1062  0.1022
 5024W        W21498  17.626   7.694   2.694 -0.1438  0.1043 -0.1179
 5025W        W21499   9.304   6.153  13.134 -0.0037  0.1377 -0.2602
 5026W        W21500  11.114  18.121   1.477 -0.1538  0.0695  0.1517
 5027W        W21501   1.873   2.396   1.276 -0.1328 -0.1179  0.1916
 5028W        W21502   6.393   7.800   0.490  0.0705 -0.0643  0.3006
 5029W        W21503   4.334  17.470  14.887  0.0944 -0.0862 -0.1048
 5030W        W21504  11.316  15.169   4.862  0.0073 -0.1796 -0.1451
 5031W        W21505   7.794  13.870  15.284  0.0963 -0.0234 -0.0677
 5032W        W21506  18.060   3.307   2.255 -0.1860 -0.0944 -0.0612
 5033W        W21507  12.426   5.116  14.669  0.1147 -0.1200 -0.0222
 5034W        W21508   4.078  17.330  11.218 -0.1611 -0.0217  0.2308
 5035W        W21509  10.581  13.927  14.691  0.0723  0.1685  0.4040
 5036W        W21510  11.702   1.818  12.372 -0.2896 -0.0936  0.1960
 5037W        W21511   6.466   2.041  14.916  0.2260 -0.0469  0.0460
 5038W        W21512   1.932  17.239   5.965  0.0290 -0.0428 -0.2916
 5039W        W21513   5.072   1.915  14.288  0.0967  0.0103  0.0127
 5040W        W21514  16.135   7.952  15.776  0.0140  0.3870  0.1058
 5041W        W21515   1.084  12.650  14.853 -0.1171  0.1616  0.2057
 5042W        W21516  17.877   0.714   3.497 -0.1268 -0.2935  0.1172
 5043W        W21517   6.886  18.243   1.888 -0.0959  0.1385 -0.0265
 5044W        W21518  11.834   3.993   1.832 -0.1811  0.1465  0.3227
 5045W        W21519   0.135   4.369   4.707 -0.1294  0.2696 -0.1697
 5046W        W21520  12.388   3.224  14.250  0.4686 -0.0178 -0.0867
 5047W        W21521   2.550   6.626  11.706  0.1499 -0.2452 -0.2881
 5048W        W21522  15.014   5.288  14.523  0.1813 -0.2897 -0.0610
 5049W        W21523  13.620  15.237   3.918  0.1546  0.1096  0.1302
 5050W        W21524   2.602   1.946  13.761  0.0519  0.2226  0.1642
 5051W        W21525  12.474   9.387   2.459  0.2380  0.0545  0.1992
 5052W        W21526   8.205   9.134   0.775  0.2744 -0.2600  0.4007
 5053W        W21527   1.728   3.082   4.078  0.2005 -0.0310  0.1950
 5054W        W21528   3.448   1.271  11.170 -0.4174  0.1239  0.0719
 5055W        W21529  10.200   2.960  15.785  0.0821  0.1789  0.1247
 5056W        W21530   2.191   5.538  13.850  0.0969  0.0771 -0.1008
 5057W        W21531   3.802   5.665   3.981 -0.5572  0.4562 -0.0587
 5058W        W21532   9.028  10.945  16.241  0.0913 -0.1522  0.0460
 5059W        W21533   5.455  11.327   3.917  0.1638 -0.0497 -0.0535
 5060W        W21534   2.708  11.429  11.571 -0.0477  0.1844  0.1682
 5061W        W21535  11.687  15.890   0.072  0.1640 -0.1928 -0.1317
 5062W        W21536   7.144  11.305   2.173 -0.1492  0.0698 -0.0450
 5063W        W21537  17.545   8.841  12.990  0.0001 -0.1191 -0.1095
 5064W        W21538   0.933   3.129  11.711 -0.1632 -0.2549  0.1641
 5065W        W21539  12.872   1.259  12.189 -0.0528  0.0583 -0.1390
 5066W        W21540   1.723  14.106   2.573 -0.1140 -0.0814  0.1371
 5067W        W21541   5.120   6.899   3.002 -0.1371  0.1035 -0.5177
 5068W        W21542   4.717   0.768  14.584 -0.0402  0.1894 -0.0376
 5069W        W21543  16.114  17.581   1.377 -0.0481 -0.1606  0.1300
 5070W        W21544   1.730   3.018   2.270 -0.0389  0.1242  0.1087
 5071W        W21545  17.234  17.940   2.214 -0.0074 -0.0781  0.1188
 5072W        W21546  13.897   3.210   0.118  0.0795  0.0449 -0.1577
 5073W        W21547  14.927   7.015  14.912  0.2516  0.3752  0.2052
 5074W        W21548  15.712   6.218   0.754 -0.0290 -0.2115 -0.1625
 5075W        W21549  10.755  18.087  14.556  0.1897 -0.0552  0.0186
 5076W        W21550   0.702  10.558  16.232  0.1962  0.0240 -0.0189
 5077W        W21551   5.337  10.947   4.343 -0.3252  0.2959 -0.4216
 5078W        W21552  11.000  10.837  13.002  0.2180  0.1085  0.2214
 5079W        W21553   9.504  11.444  14.132  0.0580  0.1522 -0.2485
 5080W        W21554   9.740   3.610  11.830 -0.0242 -0.2323 -0.0434
 5081W        W21555   4.411  16.203  12.964  0.2839  0.1555 -0.0928
 5082W        W21556   5.477  18.199   1.708  0.1383 -0.0099 -0.2932
 5083W        W21557  10.410   5.078   1.520  0.0723  0.0663  0.1749
 5084W        W21558  12.406  18.048  16.149 -0.0121 -0.0972 -0.1601
 5085W        W21559   2.704  13.788   4.433  0.2923  0.0428 -0.2406
 5086W        W21560   1.088   0.459  13.504  0.0547 -0.1500 -0.1143
 5087W        W21561  17.841  14.894   5.659  0.0811 -0.2769 -0.1605
 5088W        W21562   4.128   2.613   6.151  0.0082  0.2201  0.0685
 5089W        W21563  13.894  14.893   1.183  0.1388 -0.1116 -0.0658
 5090W        W21564  14.992   0.307   4.835  0.1273 -0.0259 -0.0668
 5091W        W21565  12.760  13.312   4.040 -0.2874 -0.0496  0.1284
 5092W        W21566   3.991   2.682  14.375  0.1017  0.1962  0.1295
 5093W        W21567   1.161  14.410   3.668 -0.0570  0.0128 -0.1085
 5094W        W21568  13.144   8.878  12.252  0.2444 -0.0856 -0.1364
 5095W        W21569  13.281  11.789  13.010  0.0921  0.2175  0.2779
 5096W        W21570  11.414   2.784   5.578  0.1066 -0.0145  0.1835
 5097W        W21571   0.935  15.127   5.845  0.2450 -0.0107 -0.1550
 5098W        W21572   0.208  14.909  13.014 -0.2096  0.1247 -0.1433
 5099W        W21573   3.118  17.834  14.693  0.3077  0.3483 -0.2430
 5100W        W21574   9.047  17.608   3.690 -0.3338  0.2028 -0.1058
 5101W        W21575  13.377   3.246  15.346 -0.1039  0.3733  0.0858
 5102W        W21576  10.627  10.961  14.929  0.2298 -0.2331 -0.1564
 5103W        W21577   6.650   6.057   1.930 -0.0114  0.2766  0.1477
 5104W        W21578   3.822  14.012   5.976  0.0607  0.1093 -0.1210
 5105W        W21579   5.298  15.617  15.841 -0.0149  0.3400  0.2658
 5106W        W21580   8.489  13.911   5.047  0.0602 -0.1120  0.2328
 5107W        W21581   9.849  14.885  16.252  0.0789  0.0897  0.0216
 5108W        W21582  12.708   7.842   4.265  0.1639 -0.0119 -0.1880
 5109W        W21583  11.216  17.371  15.300  0.1758  0.4105 -0.3102
 5110W        W21584  10.319  18.011   0.932 -0.1580  0.0229 -0.0961
 5111W        W21585   2.203  16.472   3.379  0.1085 -0.0235 -0.0947
 5112W        W21586  11.631  14.247  12.849  0.0525  0.1055 -0.1428
 5113W        W21587  15.925   3.230  11.813 -0.1014  0.3647 -0.1097
 5114W        W21588   6.755   0.602   2.731  0.0649 -0.0675  0.1416
 5115W        W21589  18.248  15.482   4.749 -0.0608  0.3720 -0.2977
 5116W        W21590  14.296   7.521  14.700  0.0753  0.1248 -0.0047
 5117W        W21591   8.199  13.435  13.618 -0.0131 -0.0348 -0.0299
 5118W        W21592   2.130   4.244   3.679 -0.2061 -0.1010  0.2827
 5119W        W21593   2.580   6.746  13.969  0.2990  0.3850 -0.1415
 5120W        W21594  10.316   5.776   4.944  0.1403  0.1383 -0.1859
 5121W        W21595   7.891   4.002  13.990 -0.1590 -0.0343 -0.5050
 5122W        W21596   8.395   8.370   4.931  0.1051  0.2538 -0.0360
 5123W        W21597  12.528   2.997  16.186  0.0696  0.0347 -0.1324
 5124W        W21598   6.538   8.809   4.854  0.0115 -0.0291 -0.0871
 5125W        W21599  12.395  12.955   4.281 -0.1813  0.1059  0.0676
 5126W        W21600   9.331  13.690  14.498 -0.2681  0.0922  0.1237
 5127W        W21601  10.472  15.196   4.905 -0.3008 -0.0740 -0.2448
 5128W        W21602  10.428  15.939  13.422 -0.2535 -0.6117 -0.0322
 5129W        W21603   3.795   3.012  12.634  0.2379 -0.1961 -0.0310
 5130W        W21604   5.861   3.710   5.426 -0.2528  0.0680  0.3135
 5131W        W21605  16.533   1.139  15.190  0.0195  0.0057  0.1032
 5132W        W21606  15.790   0.983   5.425 -0.1395 -0.3780  0.0274
 5133W        W21607   2.214  11.408   4.690 -0.0004 -0.0327 -0.0109
 5134W        W21608  11.697  12.115   0.409 -0.1640  0.3290 -0.1295
 5135W        W21609  13.369   7.743   3.146 -0.1910  0.1265 -0.1933
 5136W        W21610   6.740  14.927   4.019  0.0587  0.1622  0.0317
 5137W        W21611  15.289   0.432   2.144 -0.1421 -0.0196  0.0854
 5138W        W21612   8.768  15.873   2.211  0.2002 -0.2634 -0.1054
 5139W        W21613  15.217   0.872  15.749  0.1097  0.2489  0.2119
 5140W        W21614  10.001  17.491   3.602 -0.0370  0.0060  0.0049
 5141W        W21615  16.626   0.216   2.542  0.1527  0.1707 -0.5021
 5142W        W21616   1.915   7.967   1.095 -0.0279 -0.3938  0.2822
 5143W        W21617  14.430   4.349   0.986  0.1245  0.0612 -0.4607
 5144W        W21618   9.970  17.547  13.186  0.0452 -0.1558  0.3573
 5145W        W21619   6.344   6.208  13.498 -0.0736  0.0613  0.2631
 5146W        W21620   0.263   4.278   3.179 -0.0126  0.1472 -0.1891
 5147W        W21621  16.722   7.603  12.341  0.1465 -0.2969 -0.1211
 5148W        W21622   1.304  11.683   0.853  0.1482 -0.0137 -0.1368
 5149W        W21623   3.808   3.057  13.154 -0.1563  0.1409  0.0541
 5150W        W21624  13.342   6.720  11.558 -0.0889 -0.0752  0.1971
 5151W        W21625   4.659   1.844  11.001 -0.4257 -0.2204  0.2536
 5152W        W21626  16.449   1.608   2.695  0.2102  0.3018  0.2878
 5153W        W21627  12.928  15.223   2.757 -0.0102 -0.0003  0.0201
 5154W        W21628   8.640   0.196  15.849  0.2296  0.0323 -0.0625
 5155W        W21629   6.174  10.157   5.936  0.3169  0.0348 -0.0814
 5156W        W21630  13.179  16.497   5.145  0.0003  0.0491  0.2234
 5157W        W21631   4.277   7.723   1.613 -0.0098  0.0406 -0.0044
 5158W        W21632   1.864  12.619   2.164 -0.1069  0.3713  0.0386
 5159W        W21633  16.041   0.598   3.258  0.0074 -0.0673  0.2114
 5160W        W21634   2.175  13.447  13.869 -0.0989  0.1670  0.1664
 5161W        W21635  16.604   6.993  14.135 -0.0628 -0.0784 -0.0950
 5162W        W21636  15.930  17.225  14.324 -0.0040 -0.0218  0.0777
 5163W        W21637   9.169  15.858   2.520  0.0159 -0.1276 -0.1138
 5164W        W21638   8.261   0.089   2.116  0.1617  0.1633  0.0600
 5165W        W21639   2.040   2.509   3.395  0.0691 -0.0771 -0.2051
 5166W        W21640   3.146  10.337   1.574  0.2067 -0.1040  0.2676
 5167W        W21641  17.171   5.464  15.397  0.1769  0.1064  0.3779
 5168W        W21642   5.542   3.553  10.236  0.3024  0.0755 -0.1526
 5169W        W21643   7.295  17.208  14.280  0.0946 -0.0353 -0.0256
 5170W        W21644   0.404   5.149   3.768  0.1047 -0.0554 -0.0140
 5171W        W21645  10.439  12.572   2.792 -0.2571  0.1396  0.3267
 5172W        W21646  15.335   9.276   1.718 -0.3321 -0.3222 -0.0062
 5173W        W21647  17.250  12.119  15.653 -0.1007  0.0919 -0.4645
 5174W        W21648  15.063   0.032   1.705  0.1240 -0.3642 -0.3712
 5175W        W21649  16.552  18.266   5.770 -0.1310  0.1383 -0.0660
 5176W        W21650   4.595  12.632   0.605  0.2196  0.3646 -0.1498
 5177W        W21651   6.094   7.606  11.405  0.5061 -0.1849  0.3874
 5178W        W21652   7.317  14.804   1.295  0.1183  0.2080  0.2631
 5179W        W21653  15.177  13.463  15.359 -0.1708 -0.0555 -0.3966
 5180W        W21654   4.219   4.522  15.940  0.2314  0.0369 -0.2586
 5181W        W21655  11.840  18.231   3.909  0.2334 -0.2136 -0.0473
 5182W        W21656   6.517  18.248   0.962  0.1197  0.0363  0.3392
 5183W        W21657  12.953  16.013  13.306 -0.0667  0.2233  0.0596
 5184W        W21658  14.199  10.718  14.882 -0.0114  0.1202 -0.1541
 5185W        W21659  11.191  13.186  12.213  0.1570 -0.0808 -0.1745
 5186W        W21660   1.130  12.147  13.031 -0.2334 -0.0039  0.1484
 5187W        W21661  14.167  13.359  14.394  0.1482  0.4244 -0.0407
 5188W        W21662   3.704   6.591  14.352 -0.0605  0.1239 -0.0423
 5189W        W21663  15.897   8.383   5.071 -0.1161 -0.1105 -0.2091
 5190W        W21664   6.334  15.532  12.622  0.1358 -0.2761 -0.3178
 5191W        W21665   2.621   1.166  14.011  0.3512  0.0633 -0.1960
 5192W        W21666   2.151   4.996   1.549 -0.1665 -0.0596 -0.1854
 5193W        W21667  14.279  10.547   4.279  0.1358  0.1995  0.1127
 5194W        W21668  17.187  15.305  14.884  0.1380 -0.1288  0.2410
 5195W        W21669  12.351  13.854   1.461  0.2482  0.4542  0.1966
 5196W        W21670  14.221   3.262   1.769 -0.0103  0.0752  0.0094
 5197W        W21671   3.134   6.671   0.887 -0.2482  0.1391 -0.1404
 5198W        W21672   0.635   8.871   5.313  0.2043 -0.0397  0.0351
 5199W        W21673   7.394  13.580   2.003  0.0245  0.0007  0.1403
 5200W        W21674  13.279   0.577   3.266 -0.1307 -0.0199  0.0842
 5201W        W21675   3.799  15.170   1.616  0.0859  0.0259  0.2561
 5202W        W21676   9.440   4.580   3.479 -0.0242  0.1217 -0.6145
 5203W        W21677   9.152   0.875  13.988  0.0012 -0.1393  0.1443
 5204W        W21678   5.776  13.935   3.232  0.1651 -0.1532 -0.1443
 5205W        W21679   6.481   9.480   3.202  0.0375 -0.2497 -0.1391
 5206W        W21680  11.355  12.841  14.231 -0.3113 -0.0034 -0.0626
 5207W        W21681   2.668   0.185   1.827  0.1233  0.1519 -0.0065
 5208W        W21682  17.610  15.077   6.117  0.0157 -0.1655 -0.1587
 5209W        W21683   3.162   3.260  11.297  0.2811 -0.0262 -0.0111
 5210W        W21684   1.998   7.311   3.459 -0.0598  0.1780  0.0377
 5211W        W21685   9.465   0.634  15.581  0.1870  0.0015 -0.0706
 5212W        W21686   8.462   0.534   1.890  0.3529  0.3018 -0.3386
 5213W        W21687   3.087  17.815   4.796 -0.2887  0.1803 -0.1248
 5214W        W21688   9.786   8.008  16.277 -0.0710 -0.0272  0.3790
 5215W        W21689  15.389   5.020  15.326  0.1600 -0.0105 -0.4908
 5216W        W21690   9.954   1.119  16.031 -0.0318 -0.1937  0.1182
 5217W        W21691   8.024  16.473   4.655 -0.2414  0.2309 -0.1305
 5218W        W21692   0.468  11.080   4.274 -0.1006 -0.0061  0.2397
 5219W        W21693  18.056  13.832   3.876  0.0662  0.0347  0.0393
 5220W        W21694  10.080   1.948  12.244 -0.0347 -0.3731  0.1948
 5221W        W21695   3.764   0.874   2.972  0.0934 -0.3259  0.2933
 5222W        W21696  14.973   4.286  12.675  0.2698 -0.1625 -0.2368
 5223W        W21697  14.687  14.732   0.842  0.0858 -0.0393  0.0643
 5224W        W21698   0.736  15.442   4.990  0.0526 -0.2470  0.0111
 5225W        W21699   9.982   3.128   3.276  0.0259  0.0801 -0.1069
 5226W        W21700  12.783   3.864  14.534 -0.0054 -0.0097  0.0793
 5227W        W21701   5.348   5.411  13.014  0.0996 -0.0452  0.1470
 5228W        W21702   2.475  17.069   0.891  0.5593 -0.0321 -0.0377
 5229W        W21703   3.209   9.285  11.999  0.0433  0.1236 -0.2858
 5230W        W21704  15.938   4.067  10.257  0.0655  0.2842  0.0332
 5231W        W21705   5.986  15.561   2.397  0.5812 -0.0900  0.2867
 5232W        W21706   5.380  12.649  16.298 -0.2992  0.1769 -0.0527
 5233W        W21707   2.820   5.374   2.077  0.1828 -0.1299  0.0495
 5234W        W21708  16.892  17.332   4.304 -0.1764 -0.0323 -0.1611
 5235W        W21709   2.425  11.055   0.242  0.0339  0.2202 -0.0199
 5236W        W21710  11.146   8.624   0.546 -0.0218 -0.1547 -0.0614
 5237W        W21711   1.545  17.100  11.722  0.1109  0.0423 -0.0495
 5238W        W21712   6.093  17.701   1.776  0.3630  0.0966  0.0947
 5239W        W21713   6.629   9.240   2.823 -0.1950 -0.0742  0.0122
 5240W        W21714   8.783   4.636  12.881  0.2515 -0.1143  0.1104
 5241W        W21715  18.127  12.237   5.088  0.1254 -0.1071 -0.2332
 5242W        W21716   4.296   7.470  12.585 -0.2161  0.1141  0.2009
 5243W        W21717  17.179  15.708   5.260 -0.0162  0.0024 -0.2407
 5244W        W21718  10.896   5.996   3.988  0.3114 -0.0777  0.0333
 5245W        W21719   2.479   5.800  11.731 -0.0086  0.1138 -0.0031
 5246W        W21720   5.964  15.567   4.618 -0.1833  0.0605  0.3266
 5247W        W21721  12.514  11.431   1.164  0.0007  0.2437 -0.0961
 5248W        W21722  15.643  12.484  15.617 -0.1096 -0.1640  0.5428
 5249W        W21723   2.832   3.289   4.021  0.3737 -0.0360 -0.0809
 5250W        W21724  12.221   4.125  11.212  0.3667  0.2032 -0.0119
 5251W        W21725  12.070   7.160   2.250 -0.1700  0.2003 -0.1177
 5252W        W21726   4.236   2.636   0.052 -0.0472  0.0916 -0.1169
 5253W        W21727   7.701  13.469  11.949  0.1939 -0.1618  0.1191
 5254W        W21728  11.595  11.459  14.553  0.1315  0.0561  0.2841
 5255W        W21729   2.722  13.715   1.301 -0.0149 -0.3301 -0.0549
 5256W        W21730   4.654  13.523  15.390 -0.3106  0.1318 -0.1245
 5257W        W21731   5.470  12.797   0.423 -0.1351  0.0685  0.1186
 5258W        W21732   8.253  17.799  11.658  0.3282  0.1611 -0.0492
 5259W        W21733   0.972   1.400  16.259  0.0426 -0.4312  0.0077
 5260W        W21734   2.602   4.960  11.898  0.1264  0.2710  0.3919
 5261W        W21735  10.634   8.315  11.680 -0.3309 -0.2243  0.0970
 5262W        W21736   8.600  13.075  15.470 -0.0580  0.0133 -0.0782
 5263W        W21737  17.161  17.926   0.560 -0.1590 -0.1276  0.1812
 5264W        W21738   7.546   5.343  13.267  0.2208 -0.2201  0.0975
 5265W        W21739  12.615  15.252   1.757  0.2013 -0.2286 -0.0607
 5266W        W21740  10.207   3.992  13.149 -0.1990  0.0381 -0.1007
 5267W        W21741   3.398  10.395  10.664  0.0214 -0.1627 -0.1040
 5268W        W21742  15.880   6.344   1.881 -0.0967 -0.1487 -0.0095
 5269W        W21743   6.163  17.018   0.367  0.0676 -0.0481  0.0073
 5270W        W21744  13.197  13.375  11.716  0.2430 -0.5569 -0.3127
 5271W        W21745   4.782   4.142   3.676 -0.0215  0.0693  0.0775
 5272W        W21746   3.412   2.887   1.907 -0.1812 -0.0679 -0.1969
 5273W        W21747  12.116   7.323  16.112  0.2442 -0.1857 -0.3124
 5274W        W21748   7.272  10.964   5.024 -0.1515  0.2768  0.2291
 5275W        W21749   2.502   0.588   3.338 -0.0447 -0.1151  0.1826
 5276W        W21750  11.530  17.545   2.717  0.2731  0.1007 -0.3152
 5277W        W21751  15.928   4.924   0.722  0.0260 -0.0889  0.0237
 5278W        W21752  15.414   5.810   0.821 -0.0545 -0.0885  0.1903
 5279W        W21753  12.308   8.944  12.581 -0.1657 -0.0692 -0.0098
 5280W        W21754  14.695  11.097   3.446  0.1964 -0.4780 -0.4477
 5281W        W21755  17.242  10.884  15.150  0.1414  0.0104  0.0208
 5282W        W21756  15.096   9.536   0.259 -0.2837 -0.0121  0.1781
 5283W        W21757   8.994   7.046  12.556  0.0112 -0.1612 -0.2440
 5284W        W21758   8.532  18.304   5.201  0.1048 -0.3633  0.1509
 5285W        W21759  14.327  10.947  13.853 -0.1809 -0.1270  0.4708
 5286W        W21760  15.277  17.998  14.550 -0.0069  0.0975 -0.0491
 5287W        W21761   3.263  18.145   5.535 -0.0905  0.0779 -0.1051
 5288W        W21762   6.964   2.096  12.261  0.1768  0.0234 -0.4227
 5289W        W21763   0.079  11.506  14.313 -0.0135 -0.2493 -0.0502
 5290W        W21764   7.514   4.707  13.276  0.2618  0.2575 -0.3472
 5291W        W21765   5.827  14.679   0.787  0.2554 -0.2968 -0.2764
 5292W        W21766  14.558  11.176   1.310  0.0770  0.2379  0.1100
 5293W        W21767  15.915   5.448  12.687  0.2790  0.0721 -0.1583
 5294W        W21768   9.191   1.198  13.630  0.1639  0.0325 -0.0928
 5295W        W21769  15.254   2.261   4.936 -0.4078 -0.1040 -0.0430
 5296W        W21770   1.545   3.089  13.314  0.0836 -0.1628 -0.3580
 5297W        W21771  13.257   3.803   1.609  0.1071  0.2245 -0.2463
 5298W        W21772  17.408   7.687   5.414 -0.1973  0.0927  0.1697
 5299W        W21773   5.522   4.823   0.412  0.1514  0.0289  0.1807
 5300W        W21774   2.361   4.808  14.531  0.1538  0.0591 -0.0171
 5301W        W21775  11.132   4.885   0.359  0.3076 -0.1099 -0.2933
 5302W        W21776   7.879   0.228  15.135 -0.0444 -0.0250  0.1162
 5303W        W21777  17.428  11.339   2.895 -0.2807 -0.1189 -0.1487
 5304W        W21778   5.850  18.251  15.230  0.3972  0.0077 -0.1324
 5305W        W21779   5.485   8.750  14.280 -0.3578  0.1288 -0.2095
 5306W        W21780   3.517  10.519   0.296 -0.2603  0.1075  0.0547
 5307W        W21781   4.377   5.646  13.413 -0.5025  0.2797 -0.2712
 5308W        W21782  17.264   4.819  13.208 -0.0859 -0.0149  0.0787
 5309W        W21783   4.143   6.329   2.850 -0.2810 -0.1239 -0.2178
 5310W        W21784  12.620   7.184  11.665 -0.1466 -0.2829  0.0737
 5311W        W21785   9.508  14.334   4.043  0.1101 -0.2105  0.0128
 5312W        W21786   5.570  11.007  11.742  0.0829 -0.1497 -0.1313
 5313W        W21787  14.377   1.445   4.440  0.0703 -0.2937  0.0370
 5314W        W21788  11.236   4.955   3.297 -0.0759 -0.2823 -0.0382
 5315W        W21789  12.649   8.603  13.711 -0.0401  0.0010 -0.1134
 5316W        W21790  13.622  13.366  16.020 -0.1065  0.3612 -0.1304
 5317W        W21791   4.939  14.121  11.416  0.5191  0.0749  0.3307
 5318W        W21792  16.337   1.970  15.100 -0.0658  0.0928 -0.0677
 5319W        W21793   3.337   6.624   2.332  0.1268  0.0917  0.1345
 5320W        W21794  17.097   8.665  11.542 -0.1302 -0.1801  0.0320
 5321W        W21795  16.202  10.062   5.223 -0.0604  0.1482  0.1696
 5322W        W21796   2.088   1.757   4.035 -0.2710 -0.0646 -0.0954
 5323W        W21797   8.009  11.534   4.291  0.4074 -0.1508  0.0924
 5324W        W21798   9.498   9.733   4.379  0.1283 -0.0673 -0.0817
 5325W        W21799  13.247   7.218  11.516  0.1938 -0.1708 -0.0117
 5326W        W21800  11.093   4.738   2.762  0.0673  0.0872 -0.2796
 5327W        W21801   7.148   8.633  14.351  0.1010  0.0498 -0.1612
 5328W        W21802  11.755   4.828  11.938  0.1267 -0.0857  0.1159
 5329W        W21803   9.311  16.105   4.535  0.3049  0.1362 -0.0937
 5330W        W21804  15.667  11.283   1.598  0.2246 -0.0561 -0.3337
 5331W        W21805  11.719  10.800   0.093  0.0951 -0.0208 -0.0566
 5332W        W21806   2.843   5.757   3.408  0.0068  0.1138 -0.3448
 5333W        W21807  16.801  14.793   2.863  0.0469  0.0928 -0.3757
 5334W        W21808   1.446   2.697  11.253 -0.1307 -0.2267 -0.3416
 5335W        W21809  10.022   0.993   2.633  0.2052 -0.1260 -0.2536
 5336W        W21810  10.817   6.289   3.546 -0.1256  0.1412 -0.0446
 5337W        W21811   1.098  17.055  11.981 -0.0104  0.1246 -0.0894
 5338W        W21812  14.728   3.181   0.263  0.0212 -0.1848 -0.1316
 5339W        W21813  15.153  13.198   3.427  0.0888  0.3847 -0.0952
 5340W        W21814  11.209   0.688   0.455 -0.1771 -0.1330  0.3259
 5341W        W21815   5.249   8.114  12.782 -0.0813 -0.1675 -0.1501
 5342W        W21816  16.066  18.221  13.065  0.1135  0.0621 -0.0287
 5343W        W21817   5.617   8.112  13.241 -0.1773  0.1776 -0.3064
 5344W        W21818   3.496   8.912  13.696  0.3071 -0.0199  0.0278
 5345W        W21819   8.682  15.721   1.715 -0.0951  0.1940  0.2847
 5346W        W21820   7.579   6.304   2.239 -0.4565 -0.3437 -0.0747
 5347W        W21821   1.291  10.959   0.619 -0.2206 -0.0805  0.0344
 5348W        W21822   9.617  13.545   3.231  0.1616 -0.2065  0.3356
 5349W        W21823  12.928  16.039  12.714  0.0449 -0.2629 -0.0527
 5350W        W21824   9.491   6.172   5.153 -0.0764 -0.1064  0.2531
 5351W        W21825   6.046   2.868  13.267 -0.4830  0.0265  0.0209
 5352W        W21826  11.587  12.258  15.081 -0.3513  0.0039 -0.2590
 5353W        W21827   2.271   7.044   4.328  0.1848  0.0462 -0.1517
 5354W        W21828  13.959   2.690  13.050 -0.1208 -0.0342 -0.0753
 5355W        W21829   0.895  11.477   3.772  0.0230 -0.2527 -0.0326
 5356W        W21830   2.192   0.901   3.622  0.0002  0.1972  0.5349
 5357W        W21831   4.289   3.295  11.601  0.0278  0.3937 -0.1507
 5358W        W21832  10.173  17.994  16.298  0.0135  0.2155 -0.1686
 5359W        W21833  12.947   3.648   4.080 -0.0567 -0.1520 -0.3183
 5360W        W21834   3.280  15.661   3.774 -0.1448 -0.0163  0.2761
 5361W        W21835  18.296  16.226   0.550 -0.0706  0.0801  0.0719
 5362W        W21836  16.567  12.998  11.979 -0.0811  0.1277  0.1246
 5363W        W21837  11.127  12.151   1.634  0.1195 -0.3567  0.2327
 5364W        W21838  15.647  11.833   2.130  0.3424 -0.1121 -0.3471
 5365W        W21839  14.663   0.405   3.430 -0.0672 -0.1895 -0.0597
 5366W        W21840   1.602   1.357   1.910  0.1896  0.0207  0.3096
 5367W        W21841   7.156  11.950   0.857 -0.3057 -0.0833  0.0177
 5368W        W21842  13.900  17.323  13.375 -0.2702  0.1844  0.1211
 5369W        W21843  12.126   0.769  13.159 -0.2349  0.1247  0.0532
 5370W        W21844   0.651  15.497   0.724 -0.1557  0.1110  0.0868
 5371W        W21845   7.330  16.918   5.834 -0.0641  0.2077  0.1949
 5372W        W21846  12.685   5.588  15.901  0.1652 -0.1078  0.0948
 5373W        W21847  16.169  11.498   0.256  0.1405  0.3024  0.1452
 5374W        W21848  12.463   2.807   4.296  0.1621  0.2867  0.2623
 5375W        W21849  15.681   8.753  16.037  0.0027  0.0663  0.0155
 5376W        W21850  11.655  16.250   4.159  0.3430  0.3323  0.0124
 5377W        W21851  10.874  10.677  14.243 -0.2066 -0.1424  0.1539
 5378W        W21852   0.115  15.616  14.010 -0.2366 -0.0194  0.0926
 5379W        W21853  13.320  11.615   2.736  0.2359 -0.0152 -0.0308
 5380W        W21854   2.476   4.320  13.772  0.1902 -0.1208  0.2070
 5381W        W21855   7.382  16.155  15.945 -0.1822  0.2821  0.0752
 5382W        W21856   3.827   2.277   1.275 -0.0432 -0.0690  0.0420
 5383W        W21857   9.051   2.805   4.815  0.4633  0.1021  0.0758
 5384W        W21858   8.280   9.516   5.787  0.1186  0.0700  0.1452
 5385W        W21859  18.213   6.326   3.709 -0.0481  0.2070  0.0705
 5386W        W21860  17.512  15.594   0.030 -0.0576 -0.1571 -0.0708
 5387W        W21861  12.841   7.896   4.861 -0.0921 -0.1361 -0.2486
 5388W        W21862   8.008  13.595  14.869  0.0697  0.1212 -0.3021
 5389W        W21863   0.204  15.156  11.185  0.0174 -0.5445  0.0112
 5390W        W21864  15.259  14.106   4.367  0.0517 -0.0429 -0.1723
 5391W        W21865   0.646  14.799  11.261 -0.1023  0.5440 -0.0936
 5392W        W21866  13.131  16.906  13.380  0.0559  0.1506 -0.2108
 5393W        W21867   9.237   4.764  12.663  0.4162  0.3151  0.0774
 5394W        W21868  16.508   0.080   1.624 -0.0132 -0.1486 -0.1792
 5395W        W21869  11.569  14.382  13.329 -0.1231 -0.2942  0.1345
 5396W        W21870   8.996   8.031   3.045 -0.3620 -0.2588  0.1710
 5397W        W21871   5.499   2.358  11.048 -0.0404 -0.0132 -0.4148
 5398W        W21872  11.201   7.039  13.343  0.2207 -0.0429 -0.1958
 5399W        W21873   3.779  11.203   0.787 -0.5450  0.0108  0.0848
 5400W        W21874   4.295  14.100   3.647 -0.0383  0.1672 -0.0122
 5401W        W21875   3.651   8.889   3.964 -0.3234  0.0889 -0.2118
 5402W        W21876   6.539   4.462  13.810 -0.3107 -0.0324 -0.1133
 5403W        W21877   9.885   3.476   2.939 -0.2048 -0.1408  0.0610
 5404W        W21878  14.391   7.531  13.677 -0.0535  0.2309  0.1583
 5405W        W21879  14.280  18.185   0.944  0.0832  0.0099  0.0084
 5406W        W21880  10.368   0.663  14.348 -0.1502 -0.0051 -0.2237
 5407W        W21881   7.732   5.869  14.377 -0.3741 -0.1975 -0.0205
 5408W        W21882   0.775  16.714  12.088 -0.2028  0.2144  0.0267
 5409W        W21883   8.971   1.017  12.698 -0.0224  0.3387  0.1259
 5410W        W21884  11.423   3.040  14.360 -0.2798 -0.0805  0.0417
 5411W        W21885  16.489  13.980   2.478 -0.0650 -0.0522 -0.0536
 5412W        W21886  10.581   8.037   3.589 -0.0186  0.1002 -0.0334
 5413W        W21887  14.651  17.426  15.093  0.1060 -0.1222 -0.5186
 5414W        W21888   8.460   5.081   4.754  0.0971  0.0502 -0.0401
 5415W        W21889   7.702  17.527   2.327 -0.2148  0.1104  0.2802
 5416W        W21890   6.915  10.765   5.444 -0.0295 -0.2616 -0.1365
 5417W        W21891   4.680   6.268   0.322  0.0062  0.1890 -0.1137
 5418W        W21892   1.229  11.486   5.045  0.0080 -0.0310  0.0226
 5419W        W21893  18.325  13.411  15.482 -0.1646 -0.0410 -0.0060
 5420W        W21894  17.188  17.018   4.598 -0.1423 -0.0314  0.0067
 5421W        W21895   4.866   8.929   1.160  0.5261 -0.0182  0.0086
 5422W        W21896   6.923   2.132   5.514  0.2439 -0.0597 -0.0750
 5423W        W21897   3.573  18.221   4.003  0.1434  0.1597 -0.0130
 5424W        W21898   4.063   3.486   1.529  0.0965  0.0673  0.1629
 5425W        W21899  11.314  13.275  12.885  0.1352 -0.2077  0.4156
 5426W        W21900   5.973   5.411   4.099 -0.3722  0.1459  0.0302
 5427W        W21901  16.681   3.775  11.526  0.0340  0.1578 -0.0216
 5428W        W21902   4.995   1.094   0.226 -0.0319 -0.2488  0.1337
 5429W        W21903  17.800   4.272  10.802  0.0159  0.3685  0.2030
 5430W        W21904   6.395  15.871  11.731  0.0196  0.0847 -0.0374
 5431W        W21905  16.854  10.310   1.367  0.2279  0.0853  0.1249
 5432W        W21906  10.150  16.633   3.423  0.3161  0.1558  0.1863
 5433W        W21907  13.330  11.301  15.609  0.0800  0.2775 -0.1401
 5434W        W21908  14.003   7.185  10.409 -0.3420 -0.1902  0.1251
 5435W        W21909   5.725  10.380   3.611  0.1806  0.1063 -0.0974
 5436W        W21910   4.946   9.763  14.499  0.0280 -0.0685 -0.1293
 5437W        W21911   8.827  10.757   4.103  0.4220  0.3615  0.1654
 5438W        W21912  10.965  12.980  15.228  0.1252 -0.1708 -0.0686
 5439W        W21913   0.666   6.670  12.576 -0.1623  0.0942  0.0238
 5440W        W21914  16.041   9.282  12.841  0.0694  0.0889  0.2074
 5441W        W21915  15.331  12.819   4.850  0.0715 -0.2412  0.2297
 5442W        W21916   6.559   6.598   0.460 -0.2437 -0.0640 -0.0584
 5443W        W21917  14.484   1.745  15.279  0.0783 -0.0855  0.2567
 5444W        W21918   1.756  15.232   2.062 -0.2023 -0.0908 -0.2373
 5445W        W21919   2.498  15.421   4.408  0.0472  0.1885 -0.1126
 5446W        W21920   4.565   0.171  13.158 -0.0811 -0.2007 -0.0842
 5447W        W21921   4.651  16.631  14.693 -0.2995 -0.0661  0.1895
 5448W        W21922   8.303  14.169   4.602 -0.1916 -0.1913  0.1476
 5449W        W21923  18.139  12.524  13.143  0.1477 -0.0532  0.0464
 5450W        W21924  16.933   3.402  15.982 -0.1964  0.2945  0.1973
 5451W        W21925   8.494   0.119   1.623 -0.2018 -0.2615  0.1052
 5452W        W21926  14.823   7.150   4.985  0.0748  0.1229 -0.0282
 5453W        W21927  14.293  13.766  13.102  0.0349  0.0367  0.2446
 5454W        W21928  17.555   2.709   3.162 -0.0504 -0.4543  0.1009
 5455W        W21929   9.084   0.614  15.993 -0.0142 -0.0452 -0.1736
 5456W        W21930  13.040   8.200   4.497 -0.1521  0.1705  0.0203
 5457W        W21931   3.773  10.219   3.755 -0.1232 -0.0241 -0.0574
 5458W        W21932   7.617   4.391  15.359 -0.1475  0.2610 -0.3814
 5459W        W21933   0.547   6.260   4.703 -0.0410 -0.2657  0.1123
 5460W        W21934   7.674  13.657   0.240 -0.2051  0.0216  0.1027
 5461W        W21935  12.733  17.973   5.478  0.2235 -0.0218 -0.1187
 5462W        W21936  14.356  13.538   1.473 -0.2579  0.0648  0.7845
 5463W        W21937  12.560   9.189   3.657  0.3802 -0.0764  0.0217
 5464W        W21938   0.398  13.942  14.278 -0.0603  0.0367  0.2472
 5465W        W21939   6.838  15.032   4.882  0.1267 -0.3512 -0.0663
 5466W        W21940  11.462  10.500   1.865 -0.2570  0.1964 -0.0312
 5467W        W21941   8.700   1.545   4.175 -0.0294  0.2360 -0.0484
 5468W        W21942   2.625  11.475   3.009 -0.1312 -0.2184 -0.0801
 5469W        W21943  10.896  13.822   5.540  0.4196 -0.0109 -0.0755
 5470W        W21944  14.802   4.712  12.895  0.0563 -0.2092  0.2643
 5471W        W21945   9.713   5.462  14.249 -0.2401  0.2717 -0.2814
 5472W        W21946  13.468   0.741   0.177 -0.0560  0.0173 -0.2310
 5473W        W21947   5.898   5.682  14.660  0.1449  0.1067  0.0780
 5474W        W21948   5.898   6.666   4.077 -0.2091 -0.0283 -0.2403
 5475W        W21949   9.175   9.817   0.785  0.1394  0.0779 -0.2441
 5476W        W21950  13.237   9.471  13.455  0.0088 -0.1871 -0.1696
 5477W        W21951  17.925   2.832   4.456  0.2310 -0.0880  0.1278
 5478W        W21952  18.102   8.960   3.579  0.1835  0.0338  0.0538
 5479W        W21953   8.971  13.955  10.698 -0.1038  0.0188 -0.1075
 5480W        W21954  13.317  16.038   1.783 -0.0568 -0.1476  0.1976
 5481W        W21955  13.716   4.580  15.573 -0.0210 -0.1152  0.0049
 5482W        W21956  11.608   3.847   2.599  0.3095  0.1442  0.1688
 5483W        W21957   2.712   2.468   5.144  0.2076  0.2380  0.2683
 5484W        W21958   6.263  14.600   3.536 -0.0088 -0.0915 -0.2697
 5485W        W21959  10.767  12.182  16.286  0.1973 -0.0362  0.0369
 5486W        W21960   2.691   5.372   4.754 -0.1029 -0.1246 -0.2941
 5487W        W21961   0.852   6.967  14.263  0.0945 -0.0248 -0.1054
 5488W        W21962   6.717  13.108   3.576 -0.2385 -0.1438 -0.1272
 5489W        W21963  18.256   6.687  12.439  0.3479  0.4688  0.0699
 5490W        W21964  11.844   7.126   4.393 -0.1582 -0.1754 -0.1648
 5491W        W21965   6.810   3.316   3.937  0.2718 -0.2189  0.3215
 5492W        W21966   0.102   8.343  13.358  0.2816 -0.2248 -0.2740
 5493W        W21967   4.686   2.349  10.797 -0.2819 -0.1083 -0.0055
 5494W        W21968  17.910  12.320  13.562  0.3417  0.2041 -0.1055
 5495W        W21969  16.485  18.256   1.079  0.1680 -0.0128  0.0009
 5496W        W21970  12.897  14.732   4.201  0.2447  0.0797  0.0564
 5497W        W21971   9.300  17.251  12.447  0.0704 -0.1257 -0.1178
 5498W        W21972   8.056   5.756  13.889 -0.0383 -0.1775 -0.0843
 5499W        W21973   4.109  10.808  11.607  0.0757 -0.1311  0.0490
 5500W        W21974  16.941   9.231  14.083  0.1086  0.0211  0.0924
 5501W        W21975   0.774   9.943   1.612  0.2612  0.2451  0.1266
 5502W        W21976  11.169   8.573   2.557 -0.4056 -0.1157  0.1666
 5503W        W21977   6.903   3.877   1.843 -0.4418  0.3237  0.1358
 5504W        W21978   0.461   2.397   2.964  0.3621  0.1068  0.2314
 5505W        W21979   9.124  13.064  15.651  0.0216 -0.1787  0.2227
 5506W        W21980   0.163   9.888   2.349  0.0186 -0.1585 -0.1121
 5507W        W21981  12.685  17.267   3.148  0.0821  0.0118 -0.0865
 5508W        W21982  11.966  16.649  12.206  0.1111  0.0873  0.0956
 5509W        W21983  16.224   8.129  14.625 -0.0521  0.1398  0.1276
 5510W        W21984  15.927   6.536   4.834 -0.1528 -0.0422  0.1227
 5511W        W21985  14.293   7.661   4.457 -0.0310 -0.0337 -0.1504
 5512W        W21986  12.802  11.103  15.648 -0.3077  0.1437  0.1907
 5513W        W21987   7.390  11.259  15.170  0.1704  0.2557 -0.1613
 5514W        W21988   2.274  17.514   0.982 -0.1317 -0.3595 -0.3407
 5515W        W21989   5.673   3.348  15.012 -0.1063  0.0780 -0.1724
 5516W        W21990   8.009  10.507   3.243 -0.1013  0.0335 -0.0008
 5517W        W21991  13.526   7.619  12.764 -0.1975 -0.0019 -0.5531
 5518W        W21992  14.019   8.787   1.199  0.1093  0.3215 -0.1905
 5519W        W21993   4.798  13.179  15.752 -0.1301 -0.0131 -0.0429
 5520W        W21994  17.286  12.290   2.552  0.0486 -0.2272  0.2034
 5521W        W21995   4.856   6.419   1.567 -0.3036  0.0422 -0.1188
 5522W        W21996   5.503  12.309  14.229  0.0161 -0.2260  0.0347
 5523W        W21997  12.826   5.407  14.832  0.1413 -0.0236 -0.1953
 5524W        W21998   7.206   8.194  12.537  0.0457 -0.1819 -0.2132
 5525W        W21999  18.049  17.722   2.387 -0.0365  0.0696  0.0862
 5526W        W22000  13.789   0.435  15.251 -0.5197  0.2342 -0.0551
 5527W        W22001   0.007  11.196  12.651  0.0058 -0.2665 -0.2547
 5528W        W22002  15.593   1.100   3.272 -0.0932  0.4170 -0.0174
 5529W        W22003   1.895   9.115   2.582 -0.0412  0.1311  0.1797
 5530W        W22004   7.820   4.059   2.056  0.0784 -0.1209  0.0466
 5531W        W22005  15.892  10.582   1.041 -0.1776  0.0263  0.3684
 5532W        W22006  10.635  16.610   0.828  0.0966  0.0244 -0.0918
 5533W        W22007   3.944   4.294  13.083  0.1306 -0.4312 -0.0487
 5534W        W22008  14.167   5.687   0.759  0.0137 -0.5107  0.0940
 5535W        W22009  17.613  10.119   5.034  0.1759  0.0106  0.0487
 5536W        W22010   3.014  17.628  14.227  0.0853 -0.0759  0.1473
 5537W        W22011  10.009   9.729   2.916 -0.2388  0.0484  0.0885
 5538W        W22012  10.882  12.287   2.774 -0.2318 -0.1143 -0.2041
 5539W        W22013   9.477  15.435   2.311  0.1198  0.1286  0.0476
 5540W        W22014   9.781   6.961   1.950  0.1994  0.3391  0.0565
 5541W        W22015   4.966   2.392   2.927 -0.1040 -0.0278 -0.0995
 5542W        W22016  12.685  11.395  13.868 -0.0884  0.1399  0.3328
 5543W        W22017   4.876  13.662  11.120 -0.6228 -0.0524 -0.1280
 5544W        W22018   5.966  17.926  13.324 -0.0470  0.0548  0.1085
 5545W        W22019   2.754  12.258   0.202 -0.0321 -0.3221  0.0876
 5546W        W22020  16.509  17.381   3.870  0.0688 -0.1733 -0.1427
 5547W        W22021   2.214  13.616   6.041  0.1429 -0.0028 -0.0208
 5548W        W22022  14.080   9.341  12.626 -0.0885 -0.5592 -0.2214
 5549W        W22023  16.363   2.126   0.452 -0.0958  0.0751 -0.2016
 5550W        W22024   3.107   1.128   4.026  0.2150 -0.1518 -0.2378
 5551W        W22025   7.724   0.972  11.982  0.3346 -0.1023  0.0204
 5552W        W22026   4.999  13.311  14.602 -0.3106 -0.2130  0.2354
 5553W        W22027   2.430  13.017   0.709 -0.1605 -0.0843 -0.1042
 5554W        W22028   3.399  13.907  15.055  0.1048 -0.0408  0.0444
 5555W        W22029  17.947   5.827   3.661  0.1236 -0.0400 -0.2276
 5556W        W22030  11.979   6.017   2.302 -0.0007  0.2487 -0.2438
 5557W        W22031  14.236  14.030   0.966  0.2019 -0.0980 -0.0365
 5558W        W22032  18.046   6.576   4.523  0.1753  0.2256 -0.2820
 5559W        W22033   3.790   1.893  15.622  0.1580 -0.0027 -0.1465
 5560W        W22034   7.977   8.753   1.171  0.1100 -0.1667 -0.3537
 5561W        W22035   0.127  11.011  11.705 -0.0040  0.0443  0.1917
 5562W        W22036   5.547  18.233  13.239  0.0657 -0.3480 -0.3420
 5563W        W22037  14.462  11.562  15.345 -0.2966  0.4001  0.0076
 5564W        W22038   5.150   7.826   3.899 -0.1864  0.1515  0.0369
 5565W        W22039   4.474  16.749  13.643  0.0882  0.0706 -0.3813
 5566W        W22040   5.576  12.979   3.128  0.0983  0.1631  0.1279
 5567W        W22041  13.253  16.679   0.627 -0.1103  0.0351 -0.0338
 5568W        W22042   9.957  10.567   2.404 -0.0112 -0.0484 -0.1182
 5569W        W22043   2.838   0.605   4.192 -0.3462 -0.1598  0.1201
 5570W        W22044   0.200  16.552   1.513 -0.4080  0.3397  0.2960
 5571W        W22045  17.511   2.764  14.352 -0.2030  0.2246  0.1823
 5572W        W22046   4.013  17.105  14.814  0.0408  0.5429 -0.0487
 5573W        W22047  15.841  15.041   4.294  0.0053  0.1662 -0.0287
 5574W        W22048   7.205   6.949  15.449 -0.1639  0.1151  0.3121
 5575W        W22049  10.010   0.777  13.900 -0.4178  0.0615 -0.0627
 5576W        W22050   4.559  15.025   1.706 -0.1038  0.1973  0.3396
 5577W        W22051  18.004   6.420  14.511  0.0073  0.3511  0.1883
 5578W        W22052   7.957  16.708   5.707  0.0459 -0.0925  0.0890
 5579W        W22053   1.164  17.836  12.351 -0.0778 -0.3470  0.1291
 5580W        W22054   7.114   1.203  13.170  0.1297 -0.0492 -0.1072
 5581W        W22055   5.786   2.097   1.954 -0.0789 -0.0935 -0.3682
 5582W        W22056   4.368  17.865   5.560  0.2692 -0.0256 -0.0686
 5583W        W22057   6.179  10.079   3.639 -0.0778  0.1412  0.0330
 5584W        W22058  11.063   5.780   4.413 -0.2043 -0.0097 -0.0430
 5585W        W22059   3.573   3.756   4.831 -0.0045 -0.1928 -0.2299
 5586W        W22060   9.114   3.651   4.480 -0.1628  0.0281  0.0007
 5587W        W22061   8.244   4.995   1.115  0.0877  0.1363  0.2928
 5588W        W22062  12.106   9.439  12.547 -0.0974 -0.1420 -0.0531
 5589W        W22063  13.958   9.239  14.433  0.7939  0.1053 -0.1053
 5590W        W22064  14.630   0.201  16.011 -0.3325  0.1119 -0.0979
 5591W        W22065   9.944  10.098  11.543 -0.0997  0.1297 -0.1600
 5592W        W22066  10.251  11.642   1.230 -0.0230 -0.4323  0.2147
 5593W        W22067  16.441   6.643   2.858 -0.2679 -0.2405  0.0738
 5594W        W22068   7.747  10.670  14.590  0.1109 -0.1717 -0.0217
 5595W        W22069   6.259  11.265   5.507  0.0405 -0.2476  0.0823
 5596W        W22070  14.220  15.592   0.678 -0.0807  0.0551  0.3717
 5597W        W22071  16.510  15.190  13.088 -0.1675  0.5863  0.2039
 5598W        W22072  13.881  13.906   0.678  0.1062 -0.0626 -0.1006
 5599W        W22073  16.523  13.744   5.556  0.2119  0.2102  0.1387
 5600W        W22074   5.994  14.172   0.114 -0.0361 -0.3256  0.4517
 5601W        W22075  10.558  12.370  12.381 -0.4416  0.0234 -0.0383
 5602W        W22076   5.856   9.795   3.869  0.1559  0.4529 -0.1832
 5603W        W22077   4.671   5.702  15.026  0.3661  0.1128  0.0852
 5604W        W22078   4.789  17.676   1.904  0.0756  0.1933  0.0289
 5605W        W22079   4.420  13.047  14.161 -0.1386 -0.2337  0.2093
 5606W        W22080  11.517   5.779  11.332  0.2002  0.0292 -0.4268
 5607W        W22081   0.774   1.616   4.411 -0.3358  0.1904  0.2536
 5608W        W22082   0.495   4.550   4.240 -0.4371 -0.1024 -0.0466
 5609W        W22083   8.801   6.762   5.995 -0.1158 -0.0679  0.1745
 5610W        W22084   3.875   2.989   2.702 -0.2438 -0.1367  0.1367
 5611W        W22085   6.994  12.901  11.079 -0.0180  0.2935  0.1658
 5612W        W22086   6.338  13.812  12.434  0.2575  0.2391  0.3937
 5613W        W22087  10.939  13.123  12.650 -0.1425  0.0946 -0.0793
 5614W        W22088  14.005   2.245  13.662  0.1344  0.2682 -0.3334
 5615W        W22089   8.229  18.264  14.870  0.0870  0.2053 -0.1980
 5616W        W22090   8.960   0.686   1.558 -0.0354 -0.1663  0.1283
 5617W        W22091   6.022  13.457   5.676 -0.1095 -0.1202 -0.0334
 5618W        W22092   1.645  17.091   3.069 -0.4345 -0.0275 -0.2007
 5619W        W22093  16.445  14.997  14.033  0.0366 -0.0897 -0.0508
 5620W        W22094  16.592  10.521  11.994 -0.3070 -0.0801 -0.0475
 5621W        W22095   2.603  11.836   4.704 -0.1391 -0.2481  0.1795
 5622W        W22096  10.493  10.863   0.815  0.2192  0.1266 -0.1862
 5623W        W22097  10.592   1.450   2.906  0.0988  0.0047 -0.0086
 5624W        W22098  16.581  10.289  14.045 -0.0434  0.2126  0.1016
 5625W        W22099  17.058   3.335  12.406  0.0656 -0.0527 -0.0308
 5626W        W22100  13.742   0.090  14.517  0.3794 -0.2173  0.3289
 5627W        W22101  10.434   9.284  12.472  0.0231  0.3547  0.3083
 5628W        W22102  11.241   6.080   3.574  0.0046 -0.0594 -0.0079
 5629W        W22103   6.382   3.199  11.715  0.0300  0.1803  0.0745
 5630W        W22104  13.292   1.844   2.741  0.0180 -0.0942  0.1745
 5631W        W22105  16.567   6.948   5.332  0.0095  0.2373  0.0625
 5632W        W22106   9.113   4.941  11.795 -0.2875 -0.0666  0.0964
 5633W        W22107   6.424   2.661   4.340  0.2121 -0.0719  0.1478
 5634W        W22108   2.834   9.286  12.383  0.2240 -0.0620 -0.0433
 5635W        W22109  16.966  11.388  16.110 -0.1957 -0.1036 -0.0209
 5636W        W22110   0.393   9.628   4.032  0.3475 -0.1895 -0.0582
 5637W        W22111   4.119   1.511  15.479  0.5340  0.3177 -0.0212
 5638W        W22112   4.396  17.196  14.098  0.1795  0.4128  0.2473
 5639W        W22113  13.611   0.837  10.510  0.0939  0.3269  0.1283
 5640W        W22114   6.372   6.978   2.256  0.0639  0.0688  0.2448
 5641W        W22115  12.889   3.869  12.579 -0.3373  0.2419  0.4708
 5642W        W22116  17.409   9.444  10.591 -0.3484  0.1852  0.0525
 5643W        W22117   6.479  15.893   6.144  0.1377  0.1322  0.0062
 5644W        W22118  15.310  14.547   4.662 -0.0559 -0.2130 -0.1230
 5645W        W22119  13.228  11.930   4.398  0.1788  0.0528  0.0027
 5646W        W22120  10.847   5.368   2.080  0.3655 -0.3263 -0.0066
 5647W        W22121  12.672  14.123   5.174 -0.0150  0.1437  0.0263
 5648W        W22122  13.687   6.421   2.364  0.3206  0.4064 -0.2037
 5649W        W22123  16.594  15.520  14.074 -0.0374 -0.0232 -0.3196
 5650W        W22124  14.643  11.052   2.883 -0.3801 -0.0426 -0.0369
 5651W        W22125  13.062   4.182  10.934  0.2107  0.1648  0.3112
 5652W        W22126   7.698  14.880   2.326 -0.0836 -0.0770  0.1117
 5653W        W22127  15.873   8.626  13.526  0.1781 -0.0926  0.0332
 5654W        W22128  14.867   6.875  12.122 -0.1179 -0.1767  0.1655
 5655W        W22129   8.266  10.639  15.822  0.0323 -0.1970 -0.1716
 5656W        W22130   3.268  13.784   0.805  0.0688 -0.0397 -0.3057
 5657W        W22131  17.065   8.056   1.190  0.4855 -0.0725  0.1322
 5658W        W22132   3.867   5.258   3.694  0.1705  0.1053  0.1611
 5659W        W22133  14.547   8.726  14.757 -0.4147 -0.2185 -0.1318
 5660W        W22134   3.214   8.987  13.310 -0.2672  0.0905  0.1262
 5661W        W22135   0.392  12.640   0.779  0.2824 -0.0545  0.0743
 5662W        W22136   4.964   9.968   1.390  0.1816  0.1528 -0.0173
 5663W        W22137   5.814  13.285  15.912  0.4466 -0.2898 -0.1913
 5664W        W22138   0.013  10.099  12.940  0.2867  0.0238 -0.3829
 5665W        W22139   1.151   0.880   4.928  0.0407  0.1883  0.4114
 5666W        W22140  16.461  11.548  15.779 -0.0727 -0.1349  0.1993
 5667W        W22141  14.732   7.339  12.155  0.1529 -0.2403 -0.1649
 5668W        W22142   7.338   6.320  13.329  0.2187 -0.1846 -0.1813
 5669W        W22143  10.876  15.396   2.643  0.0907  0.0204  0.1960
 5670W        W22144  13.289   2.983  13.559  0.1852 -0.4089 -0.1639
 5671W        W22145   3.723   8.332   4.991 -0.2665  0.1948 -0.1026
 5672W        W22146   8.391   7.193  12.614  0.1498 -0.1688 -0.3893
 5673W        W22147  17.710  17.492  11.637 -0.2084 -0.1422 -0.2767
 5674W        W22148  15.178   7.693  13.038  0.1330 -0.4149  0.0789
 5675W        W22149  17.385   3.381   5.389 -0.2093  0.1525  0.0355
 5676W        W22150  17.843  18.240  11.161  0.0687  0.0573 -0.1043
 5677W        W22151  10.972  12.705   0.023  0.3258  0.2661 -0.0513
 5678W        W22152   2.796   2.916  16.042 -0.0150  0.2309  0.2591
 5679W        W22153   9.077  15.064   0.425 -0.0203 -0.0434  0.2478
 5680W        W22154   1.327   1.829  12.534  0.2180 -0.1674  0.2512
 5681W        W22155  18.128   9.644  12.055 -0.1650 -0.0123 -0.0979
 5682W        W22156  15.460  12.346   2.174  0.2005  0.1250  0.0182
 5683W        W22157   4.215  10.061   5.114 -0.1362  0.1031 -0.0078
 5684W        W22158  14.802  11.891   3.500 -0.0084 -0.0180  0.2476
 5685W        W22159   6.058  14.058   6.385  0.1883  0.0845 -0.1908
 5686W        W22160  15.045   8.639   0.428 -0.2817  0.0586  0.2003
 5687W        W22161  16.068  11.602   3.591 -0.1663 -0.0708 -0.0725
 5688W        W22162   3.245  16.458   0.091  0.0911  0.3202  0.0296
 5689W        W22163  14.626  15.711  13.397  0.2308 -0.0902  0.0938
 5690W        W22164   0.611  17.909  13.423 -0.1989  0.0934  0.0763
 5691W        W22165   8.449   2.543  10.813  0.2345  0.1833  0.3674
 5692W        W22166  14.958  17.064   4.311 -0.0160 -0.4004 -0.2338
 5693W        W22167   4.529   2.232  14.440 -0.3104 -0.0540 -0.2659
 5694W        W22168  13.839   3.710   0.984 -0.2570  0.0586  0.2067
 5695W        W22169   3.129  10.740  15.454  0.4270  0.2392 -0.2855
 5696W        W22170   5.467   9.876   3.551 -0.0509  0.1407  0.2775
 5697W        W22171  10.705  15.173  11.253  0.0636  0.2363  0.2768
 5698W        W22172   0.759   7.461  11.261 -0.3903  0.0055  0.0150
 5699W        W22173  14.646  14.899   3.995  0.3687 -0.0646 -0.1191
 5700W        W22174  18.000   8.284  14.992 -0.0904  0.0135  0.2351
 5701W        W22175  10.558   8.942  15.712 -0.2176 -0.1352 -0.2775
 5702W        W22176  13.834  11.824  13.876  0.0753 -0.0708 -0.1584
 5703W        W22177  12.196   7.846   0.489  0.0331 -0.2032 -0.1342
 5704W        W22178  11.712  13.060  12.232 -0.1862 -0.0578 -0.0299
 5705W        W22179  14.563   5.195   4.338 -0.0970  0.1377 -0.0994
 5706W        W22180  14.688   3.530  15.843  0.0327  0.0767  0.3530
 5707W        W22181   6.862  13.814   2.896  0.0373 -0.0253  0.2369
 5708W        W22182   4.815   7.609  12.380  0.2233 -0.2450  0.0969
 5709W        W22183   7.671   6.294   0.720 -0.0817 -0.1175  0.0790
 5710W        W22184  11.308   5.474   4.777 -0.0661 -0.4225 -0.1870
 5711W        W22185   3.858   4.416   1.513 -0.0153  0.1100 -0.0827
 5712W        W22186  17.031   5.570   3.399 -0.1701 -0.1756 -0.1655
 5713W        W22187  16.039  17.120   2.645  0.0830  0.1141 -0.4139
 5714W        W22188   4.690   3.438  12.347  0.0016  0.1031 -0.0675
 5715W        W22189   4.859  13.194   5.633  0.3638 -0.3310 -0.0136
 5716W        W22190   8.634   3.686   3.049 -0.1399 -0.0260 -0.0404
 5717W        W22191  17.334   9.154  11.491 -0.2033 -0.2605 -0.1908
 5718W        W22192  12.865  17.301  15.896 -0.1093 -0.0322  0.0200
 5719W        W22193  17.193   1.704  14.502 -0.4294  0.1024 -0.0330
 5720W        W22194  11.836  15.017   5.130  0.1662  0.0552 -0.1469
 5721W        W22195  10.406   3.182  14.794 -0.2633  0.1004 -0.0023
 5722W        W22196  14.410  13.241  13.009 -0.0373 -0.0112  0.2800
 5723W        W22197   3.236  14.971   1.493  0.1276 -0.1342  0.0306
 5724W        W22198   3.451   9.201  14.634  0.2028 -0.0853  0.0548
 5725W        W22199   0.173  14.719   0.976 -0.0121  0.2317 -0.1647
 5726W        W22200  15.631   3.071   4.580 -0.1146 -0.1823 -0.1628
 5727W        W22201  13.991   5.248   0.898 -0.0082  0.0532 -0.2287
 5728W        W22202   7.947   8.535   4.965 -0.2396  0.1163  0.0396
 5729W        W22203   2.834   2.262   2.846  0.0498  0.2166  0.3671
 5730W        W22204   8.118  10.494   4.832 -0.0809  0.0397 -0.3081
 5731W        W22205   4.442   9.799  13.569  0.3647  0.2795  0.1659
 5732W        W22206   8.218   7.134   1.737  0.0127  0.0315  0.0551
 5733W        W22207   0.277   3.465  14.529  0.1251 -0.1928 -0.4746
 5734W        W22208   9.687   1.429   3.888 -0.1104  0.0390 -0.2720
 5735W        W22209  15.968  18.262   1.920 -0.1176 -0.0292  0.2012
 5736W        W22210   0.674  11.910  15.722 -0.0123  0.0621 -0.0298
 5737W        W22211   8.317  14.114   0.749  0.1974 -0.0155  0.1462
 5738W        W22212   0.888  10.346   4.679  0.0688  0.1073  0.0459
 5739W        W22213   4.207   6.013  16.110 -0.0066 -0.1133 -0.1600
 5740W        W22214  15.848  16.455   0.802 -0.3109  0.2199 -0.0768
 5741W        W22215  14.332  10.329   5.244  0.0816  0.2636 -0.1322
 5742W        W22216   7.549   4.935  16.065 -0.0284 -0.1820  0.1621
 5743W        W22217  13.674  11.158   1.544  0.1244 -0.2237  0.1021
 5744W        W22218   0.081  15.603   4.302  0.2326 -0.1610 -0.1166
 5745W        W22219  10.560   0.234  14.543 -0.3953 -0.2076  0.1648
 5746W        W22220  12.212  16.036  15.419  0.0528  0.2413 -0.1071
 5747W        W22221  17.029   2.722  14.539  0.1089  0.0580 -0.1258
 5748W        W22222   9.469  17.704  11.417  0.0678 -0.0633  0.0526
 5749W        W22223  14.612  14.529  15.075  0.0591 -0.1119 -0.2442
 5750W        W22224   2.091   9.649   4.586 -0.0286 -0.0153 -0.2101
 5751W        W22225   7.281  11.917   3.214 -0.0889 -0.1939  0.2981
 5752W        W22226   8.776   1.691  13.006  0.1773 -0.1201  0.0474
 5753W        W22227  11.842  17.503   5.486  0.2585  0.0264  0.0426
 5754W        W22228  17.424   3.737  12.420  0.0307  0.1459  0.0315
 5755W        W22229   4.439   3.472   5.017 -0.0095  0.1622 -0.0379
 5756W        W22230   9.756   4.034   2.742 -0.3310  0.2079 -0.1227
 5757W        W22231  15.386  11.302   2.562  0.1139  0.0674 -0.1593
 5758W        W22232   5.253  12.976  14.949 -0.0833 -0.0747 -0.1510
 5759W        W22233   3.674   3.645  14.077  0.0321 -0.0498 -0.3171
 5760W        W22234  13.131   0.980   1.881  0.2425 -0.0659  0.0770
 5761W        W22235   1.610  13.182   4.683  0.0201  0.0685  0.0357
 5762W        W22236  16.985   6.712  14.294 -0.0376 -0.0201  0.3515
 5763W        W22237   4.818   8.196   5.667 -0.0487  0.2950  0.2068
 5764W        W22238   3.521  13.430  16.324 -0.2342 -0.3024  0.0680
 5765W        W22239   5.102  14.152  16.182  0.3260  0.2114 -0.0623
 5766W        W22240  11.629   4.902   1.859  0.1289  0.0278 -0.3346
 5767W        W22241   3.822  11.675   4.837 -0.0008  0.2377 -0.0060
 5768W        W22242   2.840   7.539   1.257 -0.2702 -0.1005  0.1320
 5769W        W22243  17.468  14.554  13.538 -0.2183 -0.3351 -0.2119
 5770W        W22244   9.153   1.545   4.593 -0.0102  0.0582  0.0801
 5771W        W22245  13.976  13.799  14.551  0.3073 -0.0037 -0.0082
 5772W        W22246   4.537  11.968   3.643  0.1182 -0.0178 -0.0193
 5773W        W22247   8.689  17.547  11.809 -0.0921 -0.0314  0.1790
 5774W        W22248   8.801  16.617  16.144 -0.3207 -0.0082  0.1569
 5775W        W22249  11.875   4.874  13.872 -0.1567 -0.1638 -0.1881
 5776W        W22250   2.595   5.515  13.567 -0.2978  0.0281  0.3323
 5777W        W22251   5.438  15.064   5.277 -0.0311  0.0130  0.1358
 5778W        W22252   6.871  10.596  12.130 -0.1752 -0.0882 -0.4004
 5779W        W22253  10.552   6.689  14.165 -0.2057  0.1273  0.0780
 5780W        W22254  16.446  18.269  11.457  0.0103  0.0515  0.0162
 5781W        W22255  10.167  11.131   5.309 -0.0239  0.0901 -0.0015
 5782W        W22256  13.380  10.183  10.686  0.2479  0.0665  0.1925
 5783W        W22257  13.142   1.632  11.083 -0.2187  0.1169  0.0750
 5784W        W22258   0.246   7.424  13.082 -0.0889 -0.2077  0.2477
 5785W        W22259   7.508   3.491  15.584 -0.1324  0.1599 -0.2635
 5786W        W22260   8.774   2.318  12.470  0.1341 -0.1203  0.1710
 5787W        W22261   0.921   7.036   3.065 -0.1774 -0.0097 -0.0132
 5788W        W22262  18.289   4.242   0.921  0.1358 -0.2450  0.0364
 5789W        W22263   2.370  11.136   2.654  0.2228  0.1276 -0.0367
 5790W        W22264  11.065   4.803  15.413  0.1563  0.0666 -0.2764
 5791W        W22265  14.545   1.811  12.185  0.0032 -0.1688 -0.3145
 5792W        W22266   5.419  12.401   5.406 -0.0232 -0.0723  0.2079
 5793W        W22267   7.115   5.522   0.194 -0.1439 -0.2893  0.1653
 5794W        W22268   6.829   6.406  14.365 -0.0002 -0.0348 -0.3629
 5795W        W22269   9.192   7.253  14.841  0.3741  0.0205 -0.0423
 5796W        W22270   8.909  15.390  15.590 -0.0025  0.1814 -0.1865
 5797W        W22271   9.051   5.835  14.685 -0.2871 -0.2404 -0.2488
 5798W        W22272   3.609   2.828  15.664 -0.2138  0.0931  0.1079
 5799W        W22273  12.295  10.755  14.283  0.0418  0.0234 -0.3279
 5800W        W22274  17.340   0.065   2.286  0.2932  0.1388  0.1912
 5801W        W22275   5.013  11.877   1.175 -0.1985 -0.0834  0.2920
 5802W        W22276   2.713  17.747   0.709 -0.1989  0.1936  0.1210
 5803W        W22277   6.352  18.247   4.373 -0.1902  0.2343  0.0989
 5804W        W22278   4.113   4.830  10.950  0.5634 -0.1065  0.1701
 5805W        W22279   5.947  10.225   4.089 -0.0403 -0.2611 -0.1643
 5806W        W22280   5.686   8.870   3.353  0.1406  0.3808  0.0948
 5807W        W22281   6.296  10.456   1.500 -0.1261 -0.2859 -0.2119
 5808W        W22282   2.836   1.020  12.740  0.1824 -0.2261 -0.0274
 5809W        W22283   6.508  13.929   4.319  0.0869  0.0648 -0.3693
 5810W        W22284   2.377   1.691   1.504  0.0213 -0.2801 -0.2003
 5811W        W22285  13.429   4.780  15.112  0.0439 -0.1435 -0.0443
 5812W        W22286   9.559  14.782  15.745 -0.0249 -0.1294  0.0139
 5813W        W22287   3.456   3.722   2.120  0.3374  0.1747 -0.0352
 5814W        W22288  14.564   4.650   3.204 -0.0534  0.5074 -0.0564
 5815W        W22289   8.507   6.522   5.178  0.1867 -0.1491  0.1294
 5816W        W22290  11.738   6.327   1.860 -0.2521 -0.0592 -0.0636
 5817W        W22291  10.011  17.645  11.624  0.0236 -0.1091  0.2748
 5818W        W22292   0.476   8.889   1.234  0.0424 -0.0914  0.0956
 5819W        W22293   7.910  10.923   5.740 -0.1743  0.3009  0.3578
 5820W        W22294   8.712  17.738  13.757 -0.1479  0.0906  0.2010
 5821W        W22295   2.550   0.388   1.329 -0.0688  0.1250 -0.2090
 5822W        W22296   6.500   5.460   2.670  0.3121 -0.2649 -0.5706
 5823W        W22297   6.571  13.401   1.232 -0.1664  0.1465  0.0441
 5824W        W22298   5.649  15.443   0.779 -0.0598 -0.0647 -0.2271
 5825W        W22299  12.169  11.862   5.823  0.0438  0.0583 -0.2697
 5826W        W22300  12.254  17.363   0.254 -0.1450 -0.0743  0.0219
 5827W        W22301   9.030   5.860   6.197  0.0044  0.1413  0.1471
 5828W        W22302  14.900   3.040   1.281 -0.2700 -0.0744 -0.2041
 5829W        W22303  12.910  11.908   4.874  0.1646 -0.2830 -0.0971
 5830W        W22304  13.143   6.858   4.890  0.2116  0.0247  0.1955
 5831W        W22305  14.851  11.889  15.649 -0.0169 -0.0406 -0.5012
 5832W        W22306   9.025  12.201  14.280  0.0351  0.1350 -0.0718
 5833W        W22307  10.880   6.207   0.327  0.0822 -0.2601  0.3130
 5834W        W22308  14.499   4.003  11.860 -0.0009 -0.0610  0.3826
 5835W        W22309   8.218   7.580   2.008 -0.1140  0.0577 -0.3011
 5836W        W22310   1.783  17.831  14.391 -0.1706 -0.0816  0.5882
 5837W        W22311  13.181  14.772  15.534  0.0006 -0.0552  0.1381
 5838W        W22312   0.969   5.757  11.747 -0.0266  0.0029 -0.1605
 5839W        W22313   4.523  12.587  14.319 -0.0030 -0.1029  0.0742
 5840W        W22314   6.497   1.712   2.899  0.1175  0.0377 -0.0671
 5841W        W22315   8.898  10.282  15.046  0.1625  0.2097  0.2311
 5842W        W22316   0.693  11.942   4.814 -0.0746  0.0882  0.0446
 5843W        W22317  15.502   6.137  12.183 -0.2477 -0.0735 -0.1236
 5844W        W22318  17.197  16.404   4.273 -0.0972  0.1367  0.2475
 5845W        W22319  16.925  11.979   5.908  0.1159 -0.2068 -0.2992
 5846W        W22320  15.999   2.904   1.272  0.0640  0.0689 -0.1444
 5847W        W22321  16.669  15.612   5.276  0.0754  0.0444  0.0272
 5848W        W22322   4.261  10.353   2.470 -0.1840  0.1330 -0.1274
 5849W        W22323   0.343   2.731   0.956 -0.0955  0.0871  0.1021
 5850W        W22324   7.885   6.656   2.477 -0.2216  0.0262  0.1873
 5851W        W22325  12.273   9.785   3.299  0.2009  0.0423  0.1636
 5852W        W22326  14.255  16.457   0.666 -0.2490  0.2377 -0.0401
 5853W        W22327  17.149   9.734  15.210 -0.2928 -0.2275 -0.0278
 5854W        W22328   1.058  14.664   0.381 -0.2616 -0.0855 -0.0183
 5855W        W22329   1.714   7.533  15.583 -0.0029  0.1188 -0.4602
 5856W        W22330   9.845  11.592   5.957  0.0004  0.0362 -0.2657
 5857W        W22331  14.504   4.165  14.170  0.2361  0.1049  0.0223
 5858W        W22332  16.369  17.241   0.841  0.1675  0.1347 -0.0280
 5859W        W22333  18.186  18.218   5.948  0.1772 -0.1703 -0.2126
 5860W        W22334  15.840  11.524   3.119 -0.2205  0.3191  0.2535
 5861W        W22335   0.534  13.055   2.472  0.1447  0.1509 -0.1360
 5862W        W22336   3.459  10.268   2.852 -0.2524  0.1247 -0.0533
 5863W        W22337   3.907  17.838  14.202  0.1881  0.1456 -0.1712
 5864W        W22338  12.887  11.547   0.889 -0.1599  0.1537 -0.2009
 5865W        W22339   1.738   2.067  13.564  0.3568 -0.2948  0.2748
 5866W        W22340   4.263  16.960  11.517  0.0533 -0.0218  0.0292
 5867W        W22341  10.106  13.885  12.516  0.1632 -0.3144 -0.0241
 5868W        W22342  11.991  18.234  15.954 -0.1419 -0.0955  0.0221
 5869W        W22343  16.434   1.468   4.102 -0.0042  0.2238 -0.2298
 5870W        W22344   5.431   0.157   4.431 -0.1008 -0.0784  0.0322
 5871W        W22345  13.248   4.431   3.322  0.1107  0.0148 -0.1681
 5872W        W22346   0.817   3.662   4.242  0.0046 -0.0703  0.1315
 5873W        W22347  11.836  11.872   0.865 -0.5836 -0.1776  0.0519
 5874W        W22348  17.214  10.062  13.220  0.0001  0.3780  0.0159
 5875W        W22349   3.863   5.584   1.164  0.1237  0.3816  0.0559
 5876W        W22350   5.381   7.832   0.127 -0.0530  0.1459 -0.0505
 5877W        W22351   0.559   0.749  11.483 -0.1353  0.0141  0.1653
 5878W        W22352  17.636   0.428  15.741 -0.0257  0.2431 -0.2037
 5879W        W22353   8.961   1.705   3.605  0.0274 -0.0254  0.0121
 5880W        W22354   6.040   7.925   1.497 -0.0803 -0.1747 -0.3865
 5881W        W22355  10.186  11.142   2.317 -0.0290 -0.1602  0.1344
 5882W        W22356  15.607   2.139  14.958 -0.2319 -0.1214 -0.0237
 5883W        W22357  12.552   6.738  13.445 -0.0672  0.2634  0.1288
 5884W        W22358  14.506  16.259   5.872 -0.0889 -0.3059  0.1445
 5885W        W22359   9.747   1.555  12.323 -0.2562 -0.1930  0.0930
 5886W        W22360   1.643  10.075  10.886 -0.0506  0.2017 -0.0229
 5887W        W22361   6.072   8.652   0.342  0.0776 -0.1871 -0.0613
 5888W        W22362  17.364   1.117  13.323 -0.1812  0.0192 -0.2337
 5889W        W22363  16.602  13.702   1.115 -0.0172 -0.1679 -0.0380
 5890W        W22364  17.016  12.628   0.720 -0.0987  0.0320  0.4200
 5891W        W22365   1.671   3.958   3.644  0.1454 -0.3472 -0.2188
 5892W        W22366  12.362   6.496   5.110  0.0067  0.2589 -0.2799
 5893W        W22367  15.225   2.757   4.869  0.1306 -0.2425  0.0429
 5894W        W22368   6.602   2.219   1.660 -0.0430  0.1161 -0.2743
 5895W        W22369   0.009  18.267  15.064 -0.1631 -0.0979  0.0101
 5896W        W22370   9.402   8.236  14.899  0.1718  0.1001  0.3788
 5897W        W22371  13.724   6.149  11.857 -0.0545  0.0772  0.2688
 5898W        W22372   5.704   6.255  13.380 -0.0025 -0.1273  0.1698
 5899W        W22373   3.528  17.466  14.113  0.4095  0.1626 -0.0417
 5900W        W22374   6.936   0.805  15.496 -0.3114 -0.2640 -0.0576
 5901W        W22375   3.009   4.848  13.209  0.0406 -0.2791 -0.4575
 5902W        W22376  11.895  12.045   3.855 -0.4841 -0.1172  0.0845
 5903W        W22377  10.146   1.122   2.105 -0.1024 -0.0205  0.0067
 5904W        W22378   8.614   4.650   1.417 -0.2612 -0.3085  0.0500
 5905W        W22379   7.500  11.782   5.274 -0.0410 -0.1237  0.0776
 5906W        W22380   5.896  13.818  16.006  0.1921 -0.0135  0.1305
 5907W        W22381  15.632  17.593  16.267 -0.0102 -0.0552 -0.0527
 5908W        W22382  13.906  12.233   4.812 -0.1513 -0.0266 -0.2717
 5909W        W22383   0.305  14.868   2.669 -0.0786 -0.1556 -0.0666
 5910W        W22384  14.685   5.332   1.962 -0.1159 -0.1930  0.0495
 5911W        W22385   3.572   9.309   4.186  0.1975 -0.1444 -0.1468
 5912W        W22386  17.719   2.131  16.243  0.0591  0.3384  0.2953
 5913W        W22387   9.560   5.843   4.332  0.0822 -0.1646 -0.0953
 5914W        W22388  11.251  14.886  15.992 -0.1474  0.0997 -0.1516
 5915W        W22389   3.120  14.180   4.270  0.3018  0.0625  0.1048
 5916W        W22390  17.629   7.535   0.606 -0.0043  0.1414 -0.0663
 5917W        W22391   8.203   8.011  15.865  0.1175  0.1457 -0.1079
 5918W        W22392   5.734  12.337  16.129 -0.2176  0.0606 -0.3229
 5919W        W22393  16.132   2.723  11.869  0.2446  0.0594  0.0505
 5920W        W22394   6.791   8.442   1.334  0.0344  0.3569 -0.0514
 5921W        W22395   6.204   3.024   0.115 -0.1969  0.5347 -0.3119
 5922W        W22396  14.451  14.153   1.554  0.0939 -0.1879 -0.0850
 5923W        W22397  15.701   6.820   3.737 -0.0262 -0.0162  0.4065
 5924W        W22398   6.376   3.371  16.035 -0.3924  0.0679  0.0095
 5925W        W22399  17.738  15.471   4.896 -0.0340  0.2391 -0.1671
 5926W        W22400  16.740   4.095   1.944  0.1437  0.1054 -0.0026
 5927W        W22401   2.958   6.064  14.384  0.0433 -0.1888  0.0877
 5928W        W22402  15.591  16.687   4.701 -0.2831  0.5546  0.1668
 5929W        W22403  18.038   2.733   2.258 -0.0800 -0.1278 -0.0513
 5930W        W22404   3.216  16.109  12.049  0.1699  0.1193  0.1382
 5931W        W22405   4.835  14.011  10.610  0.1927  0.0229 -0.0363
 5932W        W22406  11.371   6.234   4.374 -0.1319  0.0964 -0.2092
 5933W        W22407   1.879  13.359  11.204  0.0198  0.2655  0.2085
 5934W        W22408  17.565   9.435   0.710  0.0657  0.1577  0.0505
 5935W        W22409  10.622   0.048  12.573 -0.1886  0.0068 -0.0579
 5936W        W22410   0.709  13.761   0.306 -0.0054  0.0223  0.2110
 5937W        W22411   5.120   6.234   5.534 -0.1499  0.2468  0.2075
 5938W        W22412   0.357  15.991   1.912  0.3072 -0.0992 -0.2836
 5939W        W22413   6.247  10.037  13.957  0.0118 -0.0439 -0.2483
 5940W        W22414  12.820  13.990   1.148 -0.1627 -0.1369  0.0411
 5941W        W22415   2.888  14.013   1.717  0.0858  0.2646 -0.0508
 5942W        W22416  17.582   2.103  13.495 -0.0096  0.1028 -0.1407
 5943W        W22417   9.727   7.443   1.487 -0.2071 -0.0680 -0.2507
 5944W        W22418   7.221   1.433  11.095  0.2577  0.1264 -0.0327
 5945W        W22419   3.205  17.222   2.103  0.2563  0.0207  0.0482
 5946W        W22420   8.178  17.388  14.664  0.1164  0.2380  0.0332
 5947W        W22421  14.842  10.976  14.238 -0.2048  0.1351 -0.3555
 5948W        W22422   1.290  11.133   3.738 -0.0968  0.0752  0.1835
 5949W        W22423   2.885   4.719  11.514  0.1022  0.0722  0.4446
 5950W        W22424  11.480   9.044   0.409  0.0631 -0.2715  0.2078
 5951W        W22425   3.354  14.050   2.679  0.1237  0.2303 -0.1058
 5952W        W22426   8.278  11.331  15.287  0.0515 -0.0250  0.0223
 5953W        W22427  18.066   6.339   1.399 -0.3585  0.0963 -0.0655
 5954W        W22428  17.848   6.261   3.219 -0.0319  0.4477  0.0562
 5955W        W22429   3.198   2.599  14.893  0.2483 -0.0570 -0.0311
 5956W        W22430  10.131  13.169  13.053  0.0121 -0.0561 -0.1340
 5957W        W22431  11.508  18.134  15.891 -0.1346 -0.0070  0.2387
 5958W        W22432   6.478  13.928  10.503 -0.0084 -0.2455 -0.1947
 5959W        W22433   3.476  11.135  15.449  0.0215 -0.0924  0.0842
 5960W        W22434   6.463  15.440   3.147  0.2619 -0.0148 -0.3299
 5961W        W22435   3.265   1.583   3.478  0.2548  0.1345  0.2682
 5962W        W22436  13.645  13.828  12.748  0.2900  0.1524  0.1177
 5963W        W22437   7.690   4.864   4.530  0.1648 -0.0975  0.0216
 5964W        W22438   0.135  16.080  13.626 -0.0707 -0.3829  0.3797
 5965W        W22439   4.695   8.404   4.597  0.2582 -0.0834  0.1445
 5966W        W22440   1.134   5.777   3.884 -0.1136  0.1842  0.0031
 5967W        W22441  15.394   9.093   0.330 -0.1130 -0.0952  0.2251
 5968W        W22442   0.793  14.139   4.729 -0.5885  0.2764  0.0788
 5969W        W22443  11.304   5.127   2.172  0.0972 -0.1845  0.1245
 5970W        W22444  17.034   7.608  14.694  0.0693  0.1694  0.1201
 5971W        W22445  12.731   8.465   0.441 -0.1869  0.0210 -0.4162
 5972W        W22446  10.995  16.409  12.360 -0.0282 -0.1152 -0.0627
 5973W        W22447   3.720   2.959   5.322 -0.1632  0.2363  0.1221
 5974W        W22448   6.387  14.440   6.310  0.2196 -0.1898 -0.2857
 5975W        W22449  14.490  16.991  14.906 -0.0758  0.0685  0.2102
 5976W        W22450   1.252  14.488   2.436 -0.1071  0.0655 -0.2729
 5977W        W22451   7.026   5.862  11.825  0.2693  0.0326  0.0015
 5978W        W22452   5.861   4.594   1.907  0.1115  0.0644  0.2265
 5979W        W22453   3.710  14.658   0.599 -0.0602  0.2116 -0.3032
 5980W        W22454   8.341   2.612   9.663 -0.1688 -0.2950 -0.0963
 5981W        W22455   0.392   1.814   5.352  0.2635 -0.0860  0.0319
 5982W        W22456  10.501  13.506   2.831  0.1989  0.0718  0.0543
 5983W        W22457   9.977   4.291   1.507 -0.0273  0.0691 -0.1532
 5984W        W22458  17.927  11.772   0.442 -0.1638 -0.0556 -0.0032
 5985W        W22459  12.407   6.787   1.993  0.0195  0.2113  0.4796
 5986W        W22460   6.465   5.180  14.579  0.0853  0.1606  0.0702
 5987W        W22461   2.397   1.071   2.408  0.1369 -0.0859 -0.0269
 5988W        W22462   3.104   7.440  13.852 -0.2499 -0.0231  0.0772
 5989W        W22463   8.013   7.162  15.388  0.1942  0.0136  0.2207
 5990W        W22464  13.584  15.608  12.273 -0.5022 -0.0463 -0.1109
 5991W        W22465   3.741   6.166   0.618 -0.2620 -0.1783 -0.0760
 5992W        W22466  10.161   4.168  15.628  0.1460  0.1451  0.1958
 5993W        W22467   8.132   1.000   2.794  0.3111  0.0623  0.1098
 5994W        W22468   8.916   8.530   4.041 -0.0175 -0.0161 -0.1792
 5995W        W22469  12.685   3.783   0.212 -0.0875  0.0469  0.1744
 5996W        W22470   1.992  17.490  14.029 -0.1391 -0.2045 -0.1387
 5997W        W22471  11.349   0.104   2.579 -0.1204  0.2781 -0.2272
 5998W        W22472  17.186  15.524  15.931  0.1843  0.0451 -0.0022
 5999W        W22473  11.298   5.334  13.476  0.1053  0.0601  0.1663
 6000W        W22474  13.232  14.044   1.899 -0.1550 -0.3722  0.1461
 6001W        W22475  10.218   0.115  11.983  0.0342 -0.0314  0.1871
 6002W        W22476  12.870   6.926   1.928 -0.2007 -0.0288 -0.1590
 6003W        W22477   3.249   7.734  12.267 -0.1351 -0.0676  0.0123
 6004W        W22478   5.912   4.236   2.702 -0.2167 -0.1438 -0.2122
 6005W        W22479  11.780   6.849  14.784  0.1901 -0.0768 -0.2864
 6006W        W22480  14.506  15.382   2.940  0.2383 -0.1119 -0.1567
 6007W        W22481  16.174  12.054   3.929  0.0535  0.0416 -0.1453
 6008W        W22482   7.878  17.728   1.435  0.1487  0.1222 -0.1655
 6009W        W22483  16.607  11.259   1.069 -0.2509 -0.2328  0.0935
 6010W        W22484   5.274  14.383  11.671  0.3345  0.6040 -0.0591
 6011W        W22485  13.759   0.717  12.366  0.0278  0.1373  0.2212
 6012W        W22486   3.554   5.131  15.860 -0.1054 -0.1046 -0.0521
 6013W        W22487  14.184  16.387   2.982  0.1281 -0.1244 -0.0035
 6014W        W22488   1.199   4.731   0.586  0.1040  0.3700 -0.0231
 6015W        W22489   9.631  15.165  15.464 -0.0779 -0.2524 -0.0216
 6016W        W22490  17.769   2.019   0.767 -0.0962  0.0981  0.0155
 6017W        W22491   9.907  17.986   5.093  0.0449 -0.2312 -0.2094
 6018W        W22492   2.572   5.173  13.045 -0.1200 -0.0094 -0.0816
 6019W        W22493   5.301   7.248   6.086  0.1832 -0.3006 -0.4687
 6020W        W22494   8.877  18.004   2.867  0.2956 -0.2729 -0.1979
 6021W        W22495   4.593  14.727   1.187 -0.0723  0.0601 -0.0317
 6022W        W22496  15.836  16.151   4.741 -0.0731  0.1156  0.0896
 6023W        W22497  13.923   9.614   2.313 -0.1081 -0.1120  0.0435
 6024W        W22498  15.363   4.131   2.586 -0.1096  0.0142  0.2079
 6025W        W22499   3.828   2.043  11.450 -0.1207  0.0809 -0.0073
 6026W        W22500  10.481   1.189  11.914 -0.0947 -0.0408 -0.0045
 6027W        W22501   7.380   3.207  14.307 -0.2945  0.0956  0.3542
 6028W        W22502   3.355  13.884   0.044 -0.1973 -0.0180 -0.1927
 6029W        W22503   5.949  10.745  14.253 -0.0750  0.2681  0.1036
 6030W        W22504  15.733   1.178  14.088 -0.2043  0.0104  0.0547
 6031W        W22505   9.237   6.149   2.958  0.2973  0.1657 -0.2131
 6032W        W22506  15.484   8.038  14.010 -0.1057  0.3260 -0.2986
 6033W        W22507  13.353  13.301   3.035 -0.0815 -0.0520  0.0301
 6034W        W22508  15.494   0.103   4.439  0.2693  0.3111  0.3566
 6035W        W22509  12.665   5.881   0.942  0.1227 -0.1279 -0.2786
 6036W        W22510   6.780  17.209   0.173  0.0107 -0.0465  0.0551
 6037W        W22511   3.485   3.334  15.639 -0.2035 -0.0674  0.2124
 6038W        W22512   2.364  14.922   4.070 -0.1157 -0.0159 -0.0671
 6039W        W22513   0.794   2.101   5.284 -0.1741  0.0799 -0.1009
 6040W        W22514  17.280   5.263  11.617  0.0310 -0.0475  0.2345
 6041W        W22515  13.075  15.478   4.996  0.2013  0.1940  0.0428
 6042W        W22516  17.071   7.184   0.192 -0.0700 -0.1255  0.1438
 6043W        W22517   0.743  16.008   4.239 -0.1310 -0.1825 -0.1128
 6044W        W22518  12.969   2.296   1.595 -0.1386  0.2667 -0.3413
 6045W        W22519   2.400  10.567   4.855 -0.0797  0.0967 -0.1912
 6046W        W22520  12.281  14.415   5.262  0.1228  0.0385 -0.1417
 6047W        W22521  12.253  16.512  15.198 -0.0717  0.2508  0.0617
 6048W        W22522   0.925   6.631   2.708  0.0617  0.0114  0.0848
 6049W        W22523   3.965  14.996  11.353  0.0143  0.1065  0.2699
 6050W        W22524  10.022   1.598  15.360 -0.2249  0.0779 -0.2087
 6051W        W22525   7.593  15.535  14.172 -0.1849  0.3132 -0.1275
 6052W        W22526   9.694   6.581  12.272 -0.3695  0.2222 -0.0886
 6053W        W22527  12.879  13.277  14.084  0.0399 -0.0779  0.1678
 6054W        W22528   8.688  15.598  15.977  0.2745  0.2867 -0.0156
 6055W        W22529   6.484  17.372   3.790 -0.1751  0.2263 -0.2004
 6056W        W22530   8.706  14.222   1.631  0.2401 -0.0722 -0.0422
 6057W        W22531   7.263   8.981   1.242  0.2613 -0.0876 -0.1846
 6058W        W22532  16.785   5.349   5.684  0.0528  0.0002 -0.0413
 6059W        W22533  11.116   9.482  16.106  0.3128 -0.2435 -0.3348
 6060W        W22534  13.986  14.570  13.957 -0.6035  0.1471 -0.1625
 6061W        W22535   5.646  15.869   5.026 -0.1603 -0.0033 -0.0022
 6062W        W22536  10.730  15.059   4.262 -0.1676  0.0924 -0.4902
 6063W        W22537   3.445  11.101   3.488  0.0080 -0.0798 -0.1859
 6064W        W22538   0.202   0.437   4.419  0.2263 -0.0629  0.2464
 6065W        W22539  15.912   3.438  14.892 -0.0496 -0.3020 -0.2841
 6066W        W22540   2.211  14.144  11.850 -0.1434  0.4882  0.1872
 6067W        W22541   4.671   1.539  13.040 -0.2234 -0.0096 -0.1210
 6068W        W22542  14.296   2.789  14.019  0.0759  0.0292 -0.1828
 6069W        W22543   4.915  13.235   3.706 -0.2387 -0.2171 -0.0870
 6070W        W22544   9.323  14.495   0.832  0.1995 -0.1015  0.1753
 6071W        W22545  15.683   7.606  13.269  0.1405  0.1272 -0.0400
 6072W        W22546  13.858   1.922  16.067 -0.4518 -0.0593  0.1111
 6073W        W22547   6.979   3.595  13.585 -0.1406  0.1305 -0.1319
 6074W        W22548   6.384   7.771  12.600  0.1781  0.0772  0.1192
 6075W        W22549   1.413   9.525   0.169  0.0704 -0.0793 -0.4834
 6076W        W22550   5.941  17.177   4.041  0.2168 -0.0279 -0.4698
 6077W        W22551  11.825  11.910   6.277  0.1358  0.0743  0.2829
 6078W        W22552  16.811   2.224  14.295  0.1051 -0.1317  0.0492
 6079W        W22553  10.043   7.395  14.633  0.0176  0.0630  0.1329
 6080W        W22554   6.989  10.680  14.051  0.0006 -0.0898  0.2940
 6081W        W22555  17.604  12.857   1.528  0.2150 -0.4136 -0.0889
 6082W        W22556   0.169  13.080   1.519  0.1948  0.0201 -0.0323
 6083W        W22557   1.402  17.020  16.228 -0.0001  0.2778 -0.0938
 6084W        W22558  12.802   0.496  12.897 -0.0773  0.0265  0.0856
 6085W        W22559  12.670   4.921  13.679  0.3539  0.3132 -0.0065
 6086W        W22560  13.476   2.718   1.704  0.1711 -0.0849  0.2377
 6087W        W22561  15.354  17.075   1.344 -0.2271 -0.0990  0.0998
 6088W        W22562  16.839   4.406   0.335 -0.0191 -0.0592  0.0406
 6089W        W22563   1.077  10.663  15.221  0.0288  0.0522  0.0756
 6090W        W22564  12.875  13.618   0.723 -0.1354 -0.0294 -0.0630
 6091W        W22565  15.485  14.637   4.162  0.3277 -0.0457  0.1510
 6092W        W22566   6.862   6.900   0.686 -0.1519 -0.0448 -0.1179
 6093W        W22567   0.910   6.350  11.019 -0.1286 -0.0135 -0.1435
 6094W        W22568   4.262  15.073   4.079  0.3777  0.1138  0.1268
 6095W        W22569  11.008  16.961  12.185 -0.1819 -0.1657 -0.1389
 6096W        W22570   2.836  11.748  14.813 -0.0203 -0.1633 -0.1918
 6097W        W22571  16.332   9.745  14.972  0.0348  0.3406 -0.0272
 6098W        W22572   3.160  11.723  12.502 -0.3559 -0.3016  0.0064
 6099W        W22573  16.206  16.029   3.351  0.2758  0.1154 -0.2098
 6100W        W22574  16.239  10.228  16.139  0.1140  0.0778  0.1269
 6101W        W22575  11.701  17.618   4.938  0.2142  0.6058  0.0711
 6102W        W22576   3.450   5.954  11.329  0.1460  0.0757  0.2281
 6103W        W22577   4.707   1.122   1.205  0.0445  0.2012 -0.5119
 6104W        W22578  11.803  17.264  14.520  0.1136 -0.2090 -0.0778
 6105W        W22579   9.595   1.864  15.448 -0.0749 -0.0200  0.0841
 6106W        W22580  14.055  13.570  11.628 -0.0255 -0.1612 -0.3640
 6107W        W22581  10.515  14.275  14.346  0.0932 -0.0611  0.0362
 6108W        W22582  16.072  12.012  12.370 -0.1679  0.0309 -0.1500
 6109W        W22583  16.288  12.924  15.262 -0.0798  0.0723  0.1518
 6110W        W22584  17.833   9.277  11.944 -0.0161  0.2970  0.1475
 6111W        W22585   4.596  16.790  15.545  0.6625 -0.2656  0.0077
 6112W        W22586   0.770  17.343  15.396  0.1999 -0.3032  0.1088
 6113W        W22587  15.590   8.523  13.111 -0.2476  0.0189 -0.1547
 6114W        W22588   8.504  14.302   6.200  0.2511 -0.2205 -0.0626
 6115W        W22589  17.927  17.131   3.997 -0.1330 -0.1594  0.0567
 6116W        W22590  15.137   3.770  15.809 -0.0061  0.1302  0.4039
 6117W        W22591  12.537  13.414   3.541 -0.2373 -0.0386 -0.0334
 6118W        W22592  16.139  16.363  11.429  0.2022  0.2560  0.2245
 6119W        W22593   5.220   5.295   2.080 -0.2232  0.2029  0.0185
 6120W        W22594   6.590   0.620  13.477  0.0282 -0.2310 -0.0265
 6121W        W22595  11.126   2.863  12.496 -0.4338  0.1770 -0.0539
 6122W        W22596  13.178   4.415  11.832  0.1024  0.0392 -0.1993
 6123W        W22597   9.073   8.565  14.674 -0.0557 -0.2661 -0.1472
 6124W        W22598  17.054   3.642   1.995  0.1734 -0.3458 -0.0573
 6125W        W22599  14.108   7.828   1.422  0.1463  0.0388 -0.0201
 6126W        W22600  17.958  16.351  15.026 -0.0729 -0.1986  0.2961
 6127W        W22601  10.841   0.331   2.655  0.3195 -0.1917  0.0346
 6128W        W22602   7.781  14.765   5.758 -0.0739 -0.2274  0.0957
 6129W        W22603  11.590  16.199  12.856  0.0550  0.2119  0.4069
 6130W        W22604   3.604  17.440  11.079  0.2256 -0.3604  0.1515
 6131W        W22605   7.568  13.150  12.339  0.1016  0.3025  0.3603
 6132W        W22606  12.762  16.987   3.541  0.2312 -0.0512 -0.1747
 6133W        W22607  17.773   3.730  10.895 -0.0802  0.0644 -0.3081
 6134W        W22608  12.792  12.500  11.378  0.0548  0.0447  0.3459
 6135W        W22609   0.133   2.063  11.717 -0.1108  0.0972 -0.4699
 6136W        W22610   6.818   9.243  11.512  0.2165  0.2451 -0.3028
 6137W        W22611  12.601   2.863   2.993 -0.2990 -0.2335  0.0319
 6138W        W22612   8.990  13.449  12.653  0.1515 -0.3217  0.0361
 6139W        W22613   9.347   6.106  13.770 -0.1743  0.2360  0.0053
 6140W        W22614  17.085   7.936  13.299 -0.1192 -0.0325  0.2087
 6141W        W22615   3.788   3.868   1.520 -0.0053  0.1266 -0.0050
 6142W        W22616   7.066   5.682  14.066  0.0943 -0.1969  0.0409
 6143W        W22617   6.543  12.139   4.987 -0.3393 -0.0147 -0.0657
 6144W        W22618   6.861   4.447   2.748 -0.0035  0.0200 -0.1179
 6145W        W22619   2.283   8.153  13.635  0.1892  0.2436  0.1710
 6146W        W22620   1.616   0.828   5.287 -0.2841 -0.0746 -0.1635
 6147W        W22621   1.303   6.180   0.112  0.0054 -0.1795 -0.2394
 6148W        W22622   9.091  12.731  14.954  0.0113  0.3186  0.1058
 6149W        W22623   7.048   8.451   2.177 -0.1197 -0.0395  0.0165
 6150W        W22624   1.593   4.525   4.498 -0.0812  0.2344  0.2038
 6151W        W22625   6.669   2.989  12.603  0.0697  0.1775 -0.2113
 6152W        W22626  16.635  11.325   4.188 -0.0726  0.1352  0.2398
 6153W        W22627  18.108  12.951   2.440 -0.0982 -0.1862  0.0125
 6154W        W22628  13.377   0.403   2.524 -0.2303  0.2511 -0.2504
 6155W        W22629   0.814  10.215   0.222  0.1532 -0.1591  0.0860
 6156W        W22630  17.985  15.167   0.700 -0.1183 -0.1290  0.1652
 6157W        W22631  17.436   1.625   1.960  0.2027 -0.0524 -0.2696
 6158W        W22632   5.264  11.462  16.246  0.1204  0.0148 -0.1093
 6159W        W22633   3.912  16.307  15.405  0.2012 -0.0270 -0.1862
 6160W        W22634  16.467   5.104   2.948  0.3898 -0.1060  0.0386
 6161W        W22635   0.244   2.001   2.058  0.1839 -0.0156  0.1628
 6162W        W22636   1.002   7.554  12.342  0.0115  0.3211  0.2298
 6163W        W22637  14.183  12.411  14.460 -0.0949  0.0611  0.0206
 6164W        W22638   2.433   3.550  16.292 -0.1520 -0.2392 -0.2964
 6165W        W22639   4.658   6.275   4.018  0.1274  0.0105 -0.3385
 6166W        W22640  14.094   9.296   4.015  0.1979 -0.0873 -0.0722
 6167W        W22641   6.677   8.184   0.543 -0.0149 -0.3362  0.2832
 6168W        W22642  16.997   4.408  11.421  0.1525 -0.1966  0.3756
 6169W        W22643   0.169   2.363  12.702  0.1948  0.0451  0.1541
 6170W        W22644  11.882   8.541   2.691  0.3056  0.2156 -0.0980
 6171W        W22645   1.631  16.785   5.251 -0.0977  0.1557  0.1331
 6172W        W22646   0.896  11.011   0.220 -0.1210  0.1368  0.2296
 6173W        W22647   6.645  14.771   0.141 -0.0407  0.1037 -0.0194
 6174W        W22648  17.016   0.010  11.803  0.3175 -0.1318 -0.2087
 6175W        W22649  16.488   4.470  13.567  0.1452 -0.2033 -0.2225
 6176W        W22650   0.126  11.870  11.989 -0.4744  0.5215 -0.1101
 6177W        W22651   0.680   4.587   3.024 -0.0090  0.0655 -0.2136
 6178W        W22652   1.134  13.934   1.776  0.0024  0.0621  0.2338
 6179W        W22653   8.482   4.282  15.724 -0.1727 -0.5046 -0.3190
 6180W        W22654   7.704   3.768   5.299  0.1552  0.0693  0.0481
 6181W        W22655   6.584  13.522   0.726 -0.0143 -0.3345  0.0381
 6182W        W22656   0.499   0.203   4.901 -0.1580 -0.1463 -0.4685
 6183W        W22657   8.554   1.298  11.152 -0.1754  0.0987  0.1041
 6184W        W22658  18.033  14.099  14.818 -0.0746 -0.4816 -0.0683
 6185W        W22659  13.674   6.398   0.378 -0.2063 -0.0519 -0.1789
 6186W        W22660  14.229   4.880   3.577 -0.2842  0.0726 -0.1795
 6187W        W22661  12.951   3.439   1.818 -0.2022  0.1259 -0.1720
 6188W        W22662   2.254  17.478  12.207 -0.0100 -0.0685 -0.0420
 6189W        W22663   5.591   2.076  13.605  0.1930  0.2003  0.1128
 6190W        W22664  16.340  13.200  11.453  0.2708 -0.1308 -0.2557
 6191W        W22665  12.597   9.852   4.195 -0.2229  0.1648 -0.1396
 6192W        W22666   5.566   0.146   0.897  0.3306  0.0681 -0.0172
 6193W        W22667   8.513  11.730  14.362  0.2868 -0.0106  0.2370
 6194W        W22668   5.160  14.813  14.152 -0.2121 -0.2062  0.1685
 6195W        W22669  10.039   8.984  14.470  0.0757 -0.2421  0.0360
 6196W        W22670  12.462   5.647  14.391 -0.1989 -0.1074  0.0395
 6197W        W22671   0.214  15.642  11.451 -0.0783  0.0303 -0.1790
 6198W        W22672  17.389  14.141  13.116 -0.4363  0.1023  0.3518
 6199W        W22673  18.231  13.542   0.701  0.0793  0.1691 -0.0566
 6200W        W22674   5.749   0.468  15.572  0.0895 -0.2683 -0.0826
 6201W        W22675   9.590  13.451  13.962 -0.3407  0.0649  0.3262
 6202W        W22676   2.400   1.408   2.775  0.2120  0.1009 -0.0323
 6203W        W22677   6.048   1.205  14.043 -0.0165  0.2681 -0.2928
 6204W        W22678  12.889  11.453   1.960  0.1044  0.1638  0.0395
 6205W        W22679   0.442  14.273  14.633  0.1718 -0.1703  0.1539
 6206W        W22680   0.697   5.994   0.418  0.0455 -0.2280  0.4318
 6207W        W22681   8.140  15.037  14.578  0.3424 -0.2111 -0.1027
 6208W        W22682   1.522  14.587   1.313  0.2695  0.0214 -0.0405
 6209W        W22683  11.127   6.592  15.198  0.3853 -0.1117 -0.1707
 6210W        W22684   7.996   3.319  14.345  0.0629 -0.1256 -0.2234
 6211W        W22685  11.514   5.757  15.362 -0.1398 -0.2126  0.0950
 6212W        W22686  11.377  12.734   4.030  0.2169  0.1249  0.1095
 6213W        W22687  11.605  12.788   3.115  0.0234  0.1085 -0.0741
 6214W        W22688  10.190   3.285   1.308 -0.2506 -0.1421  0.1473
 6215W        W22689  15.744   3.403  11.103 -0.0401  0.1157 -0.0733
 6216W        W22690   3.585   0.301   4.511 -0.1076 -0.2418  0.0946
 6217W        W22691   3.265  13.280   0.828 -0.1443  0.0359 -0.1112
 6218W        W22692   4.120  13.529  13.977  0.0034  0.2529  0.1567
 6219W        W22693  17.562   7.909   3.528  0.0318 -0.2693 -0.3327
 6220W        W22694   0.094   4.061  11.274  0.1047 -0.1121  0.1597
 6221W        W22695  17.679   2.725  11.718  0.1999 -0.1555 -0.4004
 6222W        W22696  18.116   9.270   4.014 -0.2414 -0.2015  0.1281
 6223W        W22697  12.297   5.604   0.631 -0.0000  0.2004  0.4296
 6224W        W22698   1.913  15.653  11.420 -0.1022  0.2226  0.0261
 6225W        W22699  10.325   3.788  14.145  0.2560 -0.2088 -0.0932
 6226W        W22700  15.879   7.363   2.046 -0.3982  0.2749  0.0506
 6227W        W22701  12.479  17.036  15.935  0.5179  0.2885  0.1099
 6228W        W22702   5.126   7.818  15.630  0.3940 -0.1311 -0.1276
 6229W        W22703   7.342  17.801   0.292 -0.1593 -0.3126 -0.0136
 6230W        W22704   2.915  14.404   5.118 -0.1644 -0.1481 -0.0097
 6231W        W22705  11.798   4.546  15.563 -0.0134 -0.1496  0.2098
 6232W        W22706  11.820   9.098   0.095  0.1377 -0.2543  0.1010
 6233W        W22707   9.537  17.283  13.982 -0.1121  0.1674 -0.3167
 6234W        W22708   6.339  12.304  13.372 -0.0448  0.1589 -0.2310
 6235W        W22709   1.537   1.947   2.706 -0.3916  0.1102 -0.0621
 6236W        W22710   5.000   7.865  14.741  0.0220 -0.3896 -0.1399
 6237W        W22711   8.550   2.864   3.232 -0.2934 -0.2215  0.0116
 6238W        W22712  13.595  15.588   2.534 -0.0656 -0.2593 -0.2722
 6239W        W22713  17.238  17.022   3.388 -0.1840  0.0971 -0.0233
 6240W        W22714   2.918  12.517  11.879 -0.0896  0.3169  0.1821
 6241W        W22715  17.976  11.209   2.148  0.3696  0.0417  0.1582
 6242W        W22716  17.595   1.302   0.482  0.1744  0.2925 -0.3346
 6243W        W22717   1.216   9.429   4.762  0.0750  0.0981 -0.1608
 6244W        W22718  15.497   4.239  10.018  0.3300 -0.0178  0.4721
 6245W        W22719   8.779  16.966   5.263 -0.0605 -0.2370 -0.0120
 6246W        W22720  11.122  12.442  13.754 -0.1647 -0.1017 -0.1767
 6247W        W22721   5.855  16.154  15.916 -0.1517  0.0267 -0.2800
 6248W        W22722  11.575   7.365   2.174  0.1342  0.2152 -0.0416
 6249W        W22723  16.450   8.952   5.767  0.1559  0.1160  0.1288
 6250W        W22724  12.008  15.232  14.006  0.1637 -0.3860  0.0269
 6251W        W22725  10.719   6.344  11.768 -0.0026  0.1649 -0.2362
 6252W        W22726  13.596   8.241   0.684  0.3729 -0.0507  0.0227
 6253W        W22727  18.114  16.730   0.340  0.0424 -0.0089  0.1320
 6254W        W22728  11.810   8.995   5.383  0.0345  0.1949  0.1954
 6255W        W22729  10.099   0.058   0.470  0.2323 -0.0422  0.2000
 6256W        W22730  16.908   3.803   4.598 -0.0857  0.3638 -0.0033
 6257W        W22731   2.194   6.644   5.328 -0.2374 -0.0785 -0.3054
 6258W        W22732   0.373   7.763  15.276 -0.0578 -0.1977 -0.0066
 6259W        W22733   1.977   8.736   3.646  0.0381  0.5018  0.0612
 6260W        W22734   6.304  16.423   4.564 -0.0068  0.1053 -0.2578
 6261W        W22735  13.323   1.930  13.485 -0.1224  0.4230  0.1730
 6262W        W22736  14.901   9.128  11.640  0.2358  0.1946  0.0117
 6263W        W22737   1.577   7.767  12.340  0.1722 -0.1351  0.1995
 6264W        W22738  13.561  12.826  12.969 -0.0711  0.0481 -0.0272
 6265W        W22739  13.645  16.124   0.397  0.2192 -0.1007  0.0527
 6266W        W22740  10.041   2.419  15.490  0.0628  0.1109  0.1514
 6267W        W22741  12.565   2.062  11.961 -0.2124  0.2936  0.0426
 6268W        W22742  15.198  10.929  12.748  0.2362  0.2050  0.3238
 6269W        W22743   9.774  16.355  12.830 -0.0598  0.0900 -0.0715
 6270W        W22744   2.589   1.858   2.788  0.0777  0.6190 -0.0303
 6271W        W22745   9.366   3.869   0.548  0.1493 -0.1297  0.0750
 6272W        W22746   6.708  14.338  13.952  0.6471  0.3007 -0.0625
 6273W        W22747   6.058  12.349   3.735 -0.0038  0.0010  0.0198
 6274W        W22748   5.069  14.440  15.741  0.2411 -0.0686 -0.0282
 6275W        W22749   0.703  14.184   1.870  0.4194 -0.1786 -0.1931
 6276W        W22750  18.077   9.765  14.004 -0.1216 -0.1588  0.1410
 6277W        W22751   2.393  17.762   4.575 -0.1163 -0.0169  0.2162
 6278W        W22752   1.991  17.427  11.371  0.0702 -0.0024 -0.0270
 6279W        W22753   3.024   6.966  14.229 -0.1420  0.1724 -0.0821
 6280W        W22754  17.859   9.292  10.427 -0.0873  0.2486  0.3382
 6281W        W22755   7.645   1.586   0.497  0.2748  0.2272 -0.0630
 6282W        W22756   4.549  12.009  14.162 -0.2928 -0.3953  0.3514
 6283W        W22757   9.735   2.477   4.069 -0.0728  0.1275  0.2809
 6284W        W22758  15.170   2.297   3.611  0.2530  0.1069 -0.0731
 6285W        W22759   9.016  17.030   2.543  0.0592 -0.0692 -0.0571
 6286W        W22760  16.166   4.411  12.586  0.0932  0.0504  0.2990
 6287W        W22761   3.294   2.967  13.140 -0.1572 -0.0349  0.1729
 6288W        W22762  17.940   5.644   4.186 -0.0874 -0.0727  0.0991
 6289W        W22763   7.232  15.269   5.443 -0.1239 -0.0198  0.3397
 6290W        W22764   2.898   3.775   1.876 -0.1202  0.1571 -0.2339
 6291W        W22765  12.106  15.661   3.621  0.3421  0.2275  0.2402
 6292W        W22766  17.930  13.636  12.062 -0.0986  0.0058  0.1364
 6293W        W22767   2.724   9.656  11.763 -0.0130 -0.0214  0.1759
 6294W        W22768  15.796  14.618   6.039  0.0743  0.0546  0.0085
 6295W        W22769  14.073   1.426  11.860  0.1810  0.0484  0.0049
 6296W        W22770  10.920   3.849  11.380  0.2630  0.0140 -0.4813
 6297W        W22771  10.140   1.546   4.137  0.0239 -0.0586 -0.1201
 6298W        W22772  16.189   3.480   5.444 -0.2965 -0.1458 -0.1104
 6299W        W22773   8.550  17.237  15.030  0.0776 -0.0990 -0.0272
 6300W        W22774   4.614   5.675  15.946 -0.0957 -0.2103 -0.2996
 6301W        W22775   9.126   7.320  14.243  0.0128 -0.0544  0.0123
 6302W        W22776  14.461   1.118   4.863  0.0149 -0.0120  0.0917
 6303W        W22777   5.917  15.061   1.070 -0.1062  0.2878  0.1070
 6304W        W22778  17.162  15.342  15.429 -0.4005 -0.1787 -0.1214
 6305W        W22779   2.191  13.909  13.034  0.1538  0.2238 -0.1374
 6306W        W22780  10.343   9.991   6.227 -0.2744  0.0462 -0.1976
 6307W        W22781   0.172   1.554  14.456  0.0438 -0.0798  0.2813
 6308W        W22782   1.481  16.357  11.480  0.1082  0.0376  0.0838
 6309W        W22783  13.875  14.314  12.360 -0.0659  0.0477 -0.0336
 6310W        W22784  14.790  13.186   1.675 -0.0637  0.3319  0.1738
 6311W        W22785  12.221  18.327  15.428  0.0468  0.2952  0.1225
 6312W        W22786  12.358  14.453   4.659  0.1221  0.1346 -0.0703
 6313W        W22787   0.284   1.255   4.979  0.0271  0.0495 -0.0314
 6314W        W22788  12.835  15.712   1.789  0.0206 -0.0754 -0.3202
 6315W        W22789  16.386   7.016   2.557  0.1202  0.0527  0.1232
 6316W        W22790  10.145  10.642   3.451 -0.1300 -0.0805 -0.0326
 6317W        W22791  17.752  15.870  15.090 -0.0992  0.2075 -0.1330
 6318W        W22792  12.888  17.391  13.385 -0.1112 -0.0738 -0.1743
 6319W        W22793   1.741   0.168  14.844  0.0067  0.0193 -0.2874
 6320W        W22794   3.399   5.551   2.056 -0.1306 -0.1085  0.2980
 6321W        W22795   2.401   2.683   5.641  0.0233 -0.1313  0.0959
 6322W        W22796  14.318   3.428  16.241  0.1800 -0.0162 -0.2198
 6323W        W22797   8.650  14.466  14.460  0.1280 -0.1507 -0.0438
 6324W        W22798   8.891  15.903   1.207 -0.2122  0.2962 -0.3871
 6325W        W22799  13.449  12.066   4.807  0.2820 -0.2929  0.0620
 6326W        W22800   4.072   2.748   4.094  0.0945 -0.1033 -0.0481
 6327W        W22801   1.381   8.620   2.306 -0.0209 -0.0319  0.2232
 6328W        W22802   2.846   3.220   2.494  0.0697  0.0228  0.1525
 6329W        W22803   3.616  16.214   4.894  0.3064  0.1939 -0.4251
 6330W        W22804   7.250   8.658  12.368 -0.0523  0.0126 -0.0756
 6331W        W22805   1.758   4.617   0.555  0.0824  0.4224 -0.2420
 6332W        W22806   9.683   1.664  13.919  0.0009 -0.0496  0.1455
 6333W        W22807   8.506   1.360  11.945  0.2049 -0.2840  0.2797
 6334W        W22808   1.360  14.072  14.337  0.0447  0.1869 -0.3562
 6335W        W22809  15.291  16.095  11.507 -0.1359  0.1241 -0.0886
 6336W        W22810   4.925  12.857  16.091 -0.0429  0.2440  0.1871
 6337W        W22811  15.300  10.582  13.464 -0.0887 -0.1415 -0.2143
 6338W        W22812  12.743  11.671  12.622  0.0692 -0.3380 -0.1452
 6339W        W22813  10.909   1.451   0.074  0.0042  0.0887 -0.1025
 6340W        W22814   8.465   3.668  12.601  0.0556  0.1515  0.1237
 6341W        W22815   3.869  16.196   0.734 -0.0459  0.0311  0.2312
 6342W        W22816  10.848   6.603  13.746 -0.1170  0.2412  0.3853
 6343W        W22817   8.690  18.275  12.891  0.2016 -0.0632 -0.0844
 6344W        W22818   0.731   0.550  13.175  0.2452 -0.2260  0.1679
 6345W        W22819   3.273   7.816  11.691 -0.0272 -0.1333 -0.0044
 6346W        W22820  15.826  16.559   0.317 -0.0637  0.0158  0.2853
 6347W        W22821  12.356  17.860   5.881 -0.5862  0.1540  0.0741
 6348W        W22822  11.829  13.973   0.307  0.0120 -0.3413  0.0034
 6349W        W22823  14.207  13.559   0.954  0.1220  0.0395 -0.1952
 6350W        W22824  15.557   3.510   1.288  0.0550  0.1254  0.2108
 6351W        W22825   8.379   2.783  13.595 -0.1024 -0.1404  0.1844
 6352W        W22826   5.225  12.671  12.700  0.3033 -0.1474 -0.1612
 6353W        W22827  17.231  15.918   1.038  0.0999  0.1545 -0.0884
 6354W        W22828   1.998   0.510  14.588 -0.1287  0.1332  0.1800
 6355W        W22829   6.561   6.883   6.129  0.2401  0.2288 -0.3211
 6356W        W22830  13.353   2.011  12.501 -0.0044 -0.1106 -0.2655
 6357W        W22831   5.430   6.606  13.030  0.2296 -0.1133 -0.0659
 6358W        W22832  17.677   7.548   4.991 -0.0714 -0.2456 -0.1013
 6359W        W22833   3.506  15.949   3.427  0.2550 -0.0346 -0.1923
 6360W        W22834  16.782  13.215  15.310 -0.1026 -0.0680  0.0516
 6361W        W22835  12.778  16.928  13.083 -0.0367  0.1144  0.5282
 6362W        W22836  10.441   9.449   4.522 -0.1026 -0.1836  0.4799
 6363W        W22837   2.724   8.382  15.164  0.1260  0.3605 -0.2197
 6364W        W22838   9.958  17.559   1.781 -0.1518 -0.3517 -0.2794
 6365W        W22839  10.566   3.337  14.271 -0.0687  0.2452  0.0283
 6366W        W22840   4.880   1.643   2.041  0.0132 -0.0162 -0.4700
 6367W        W22841   4.115   8.405  14.309 -0.1816  0.0467  0.0745
 6368W        W22842  16.449   7.789  11.892  0.0795 -0.0399 -0.2644
 6369W        W22843   1.839   7.460   1.179 -0.2480 -0.0555  0.0786
 6370W        W22844   2.519   1.133  12.338  0.1887  0.2739  0.3438
 6371W        W22845   3.791   4.461  13.563  0.2835  0.1805 -0.0125
 6372W        W22846   6.413   2.049   3.743 -0.1020 -0.1027  0.0756
 6373W        W22847   0.609  16.342  11.332  0.2503 -0.1848 -0.2080
 6374W        W22848  14.072   1.275   2.734 -0.0232  0.2802 -0.1254
 6375W        W22849  11.371  17.315  12.165 -0.0089 -0.0269 -0.1745
 6376W        W22850  13.147  15.484   1.431  0.0551  0.0975 -0.2722
 6377W        W22851   1.742   7.504   4.203  0.0283  0.3052 -0.1901
 6378W        W22852   8.507   2.512   3.562  0.1229  0.0761  0.2901
 6379W        W22853   9.747   8.697  13.502 -0.3049  0.0391 -0.0322
 6380W        W22854   2.919  17.359  10.575  0.3264  0.0482  0.1218
 6381W        W22855  17.785  17.259  14.870 -0.0953 -0.1126 -0.1131
 6382W        W22856   1.218   4.073   4.486  0.1237  0.2430 -0.2500
 6383W        W22857   5.820   3.393   4.016 -0.1336 -0.0777 -0.0370
 6384W        W22858   7.517  16.609  15.988  0.0388 -0.0405 -0.0298
 6385W        W22859   1.470  13.509   3.311  0.0640 -0.1903  0.0885
 6386W        W22860   1.738  15.191  11.869 -0.2181  0.1792  0.1358
 6387W        W22861   3.608  14.731   5.905 -0.1369 -0.0267  0.1788
 6388W        W22862   7.917   9.363  15.158  0.0711  0.2168  0.2730
 6389W        W22863  12.969   6.141  14.136 -0.1665 -0.0449 -0.1286
 6390W        W22864  10.858   5.684  14.722  0.1955  0.3139 -0.0257
 6391W        W22865  17.603  14.676   0.845 -0.1801 -0.3046  0.1200
 6392W        W22866  10.267   7.717  12.672 -0.0709 -0.0353 -0.1320
 6393W        W22867   6.815  11.272   6.202  0.3718 -0.3594  0.0188
 6394W        W22868   8.649   9.322   1.666  0.1018  0.1818  0.0265
 6395W        W22869   8.668   2.884   1.800  0.0441 -0.2464 -0.0817
 6396W        W22870   1.026   4.372  11.236  0.0948 -0.1214 -0.0339
 6397W        W22871   7.079   4.680   3.711 -0.0364 -0.1500  0.0274
 6398W        W22872  17.061   7.519  10.456  0.1812  0.2804 -0.2398
 6399W        W22873  12.889   4.131  16.199  0.0089  0.2640 -0.0794
 6400W        W22874   1.000   8.797  11.482  0.1203  0.3187 -0.2441
 6401W        W22875  14.470   7.622   5.003  0.1638 -0.1201  0.0835
 6402W        W22876   8.376   2.798   1.413 -0.0364  0.0102 -0.1189
 6403W        W22877  15.110  12.262  16.068 -0.1093  0.2390  0.0618
 6404W        W22878   1.228   0.555   3.033  0.0887  0.2956 -0.0523
 6405W        W22879   9.782   1.126   3.391 -0.0818  0.0385 -0.0795
 6406W        W22880  14.387   4.656  14.210  0.0494 -0.1252 -0.1978
 6407W        W22881   0.840   7.298   1.586 -0.2209 -0.2028 -0.0231
 6408W        W22882   5.854   7.123  12.253  0.1922 -0.2156  0.3948
 6409W        W22883   8.670   0.179  14.763  0.0505 -0.2360 -0.0147
 6410W        W22884  15.768   2.470  13.770  0.1592 -0.2733 -0.0755
 6411W        W22885   3.026  15.764   5.682 -0.1205 -0.0685 -0.0765
 6412W        W22886   3.428  11.800   1.176  0.0464 -0.1729 -0.1294
 6413W        W22887  14.395  10.192  12.283  0.2516  0.1736  0.0874
 6414W        W22888   0.234  16.129  11.624  0.0888 -0.0704  0.0099
 6415W        W22889  14.128  15.273  12.954  0.2889 -0.2224  0.2206
 6416W        W22890  10.463   8.885  12.967  0.1565  0.0091  0.2710
 6417W        W22891  16.207   4.976  12.933 -0.4043 -0.1336  0.2475
 6418W        W22892   9.957   2.480   3.130  0.0543  0.0364 -0.0609
 6419W        W22893   4.515  13.585  15.851 -0.1870 -0.1162 -0.0965
 6420W        W22894  12.686  10.375   4.971 -0.2518 -0.0062  0.1313
 6421W        W22895  13.885   1.542   4.284  0.0170  0.2108  0.0296
 6422W        W22896  14.698   1.497  12.577  0.1488  0.0290  0.0644
 6423W        W22897  15.305  12.329  11.663 -0.2934 -0.0369 -0.0114
 6424W        W22898   5.199  12.783   5.696 -0.2483 -0.1339 -0.0030
 6425W        W22899  15.228   7.006  11.422 -0.1244 -0.0293  0.2551
 6426W        W22900   8.547  14.921   2.181  0.3203 -0.2010  0.0934
 6427W        W22901  15.237  14.083   2.619  0.0918 -0.0341 -0.0165
 6428W        W22902  12.350   6.495   6.284  0.2112 -0.0599  0.0489
 6429W        W22903  15.209  12.146   3.024  0.1619 -0.1499 -0.4223
 6430W        W22904  14.547  18.286  15.584  0.0451 -0.1987  0.1191
 6431W        W22905   3.531  13.177   1.804 -0.2666 -0.0043 -0.2470
 6432W        W22906   3.993  12.685   0.128 -0.0192 -0.0420  0.4128
 6433W        W22907   0.683  13.985  13.845  0.4906 -0.0686  0.1397
 6434W        W22908   9.658   3.796   3.211 -0.0335 -0.1264 -0.0447
 6435W        W22909  16.745   8.433  13.357  0.0825  0.0693  0.0616
 6436W        W22910   5.557  18.301   2.726 -0.0585 -0.2032 -0.0088
 6437W        W22911   9.681  12.409   5.192  0.1250  0.3170 -0.1778
 6438W        W22912   4.402   7.070   2.507  0.0696 -0.0477 -0.0064
 6439W        W22913  17.119   5.745   2.925  0.1333 -0.2226  0.1440
 6440W        W22914   3.724  11.874  15.891  0.0438 -0.1312 -0.1218
 6441W        W22915   6.375   6.325  12.975  0.1157 -0.4278  0.1285
 6442W        W22916  15.373   2.670   4.207  0.1293 -0.0775  0.2786
 6443W        W22917   2.511  14.931  13.951  0.0440 -0.1767  0.2652
 6444W        W22918  17.177   6.034  14.663  0.0847  0.0080  0.6088
 6445W        W22919  17.158   5.173   0.968  0.4561 -0.0762 -0.0640
 6446W        W22920   1.572   7.851   2.718 -0.3040  0.2111 -0.0518
 6447W        W22921  12.331  13.226  16.263 -0.0917  0.0688 -0.3904
 6448W        W22922   9.129   5.237  15.601 -0.0954 -0.0836  0.2314
 6449W        W22923  14.559  17.099  12.659  0.1396  0.0785  0.0324
 6450W        W22924   4.565  11.291   2.421  0.0555  0.2592 -0.1051
 6451W        W22925   8.731   2.680  11.525 -0.0514  0.1828 -0.0088
 6452W        W22926   5.220   8.562   2.072 -0.0769  0.3366 -0.0850
 6453W        W22927   5.169   0.633  13.800 -0.2014  0.1417 -0.3083
 6454W        W22928  14.905   7.997   1.826 -0.2263  0.0406 -0.0138
 6455W        W22929   7.751   1.563   2.319  0.2455 -0.1245 -0.0543
 6456W        W22930  14.703  15.687   1.989  0.1957 -0.0321 -0.4047
 6457W        W22931   9.407   4.790  14.206  0.2929  0.3815  0.1436
 6458W        W22932   3.637   1.189  13.534  0.1535 -0.2943 -0.0828
 6459W        W22933  15.078   7.225  13.087  0.2913  0.0210  0.1863
 6460W        W22934  10.822   8.346   5.042  0.1776  0.2954  0.0025
 6461W        W22935   8.496   3.145  12.666 -0.3116 -0.0858  0.2284
 6462W        W22936   1.891  11.466  12.641  0.0947 -0.1199 -0.2032
 6463W        W22937   3.275  17.820  12.886  0.1151  0.1223 -0.0160
 6464W        W22938   1.381   7.921   1.334 -0.1207 -0.4149 -0.0333
 6465W        W22939   4.257  18.327  14.083 -0.1159  0.0787  0.1699
 6466W        W22940   5.123  15.716  12.403 -0.0275  0.1324  0.0513
 6467W        W22941  12.881   5.679  11.557 -0.1163  0.1514 -0.2479
 6468W        W22942   2.434  13.637   2.966 -0.0953  0.0293 -0.1213
 6469W        W22943  10.603  15.798  15.447 -0.0847  0.0528 -0.1088
 6470W        W22944  17.922   9.061   0.620  0.0405 -0.0344  0.2535
 6471W        W22945  14.006   3.279  11.649 -0.0176  0.1145 -0.2198
 6472W        W22946   9.765   6.753   4.193  0.4153 -0.1789  0.1873
 6473W        W22947  15.216  13.275   0.043 -0.4423  0.0184  0.1367
 6474W        W22948   3.987  10.542  15.040 -0.2337  0.2992 -0.1031
 6475W        W22949  12.610  10.801  13.884 -0.1429 -0.0921 -0.0498
 6476W        W22950   8.308   6.627   1.707 -0.1342 -0.0023 -0.2838
 6477W        W22951  15.273  12.840  11.741 -0.5367  0.1743 -0.1215
 6478W        W22952  14.657   4.355  15.217 -0.0522  0.0253 -0.0139
 6479W        W22953  12.631  15.101   5.687  0.1529  0.2387 -0.1007
 6480W        W22954  15.271  17.408   4.169  0.0096 -0.1866 -0.1087
 6481W        W22955  10.476   0.946  12.579 -0.0547 -0.0036  0.2485
 6482W        W22956   5.824  11.504   0.503  0.2190 -0.1165 -0.1919
 6483W        W22957   8.857   6.782   3.646 -0.1728  0.0111 -0.0499
 6484W        W22958  11.648   0.038   3.413 -0.1397  0.1464  0.0724
 6485W        W22959   3.499  13.497  14.161 -0.4414  0.0286  0.1250
 6486W        W22960   5.464   7.137  15.949  0.0119 -0.1926  0.2047
 6487W        W22961   4.753  11.281   5.633  0.0816 -0.0690  0.0224
 6488W        W22962   3.630   9.218   2.488 -0.0716 -0.0507  0.3087
 6489W        W22963   8.383   2.360  11.274  0.0294  0.1107  0.1509
 6490W        W22964   6.068   7.999   3.899 -0.1610  0.0437  0.0528
 6491W        W22965   0.761   0.052   5.864 -0.0379  0.1695 -0.0814
 6492W        W22966  14.668   0.646   5.224  0.3964 -0.4926  0.0622
 6493W        W22967  13.186  10.495  11.016  0.0118 -0.2445  0.1347
 6494W        W22968  13.051   2.297   4.027 -0.1727 -0.0113  0.1952
 6495W        W22969   0.522   7.181   1.246 -0.0821 -0.4635 -0.1654
 6496W        W22970  12.821  12.592   4.243  0.0386 -0.2671  0.3115
 6497W        W22971   0.409   2.470  11.950  0.0926  0.0511  0.0302
 6498W        W22972  12.392   5.395   2.965  0.3288 -0.3195  0.1106
 6499W        W22973   4.141  16.275  11.987 -0.0520 -0.0559  0.0508
 6500W        W22974  13.805   4.168  11.362 -0.1812  0.1119 -0.2963
 6501W        W22975  12.034  11.464  13.235  0.0407 -0.2370 -0.1535
 6502W        W22976  13.400   5.324  13.331  0.0441 -0.2443  0.2454
 6503W        W22977   7.119   4.197   3.791  0.1268  0.0355  0.0483
 6504W        W22978   1.934   5.653  14.230  0.1874  0.0302 -0.2739
 6505W        W22979   0.519   4.114  12.001 -0.0466 -0.2627 -0.0677
 6506W        W22980  17.754  16.627  12.055  0.0201 -0.2558 -0.0986
 6507W        W22981   7.247  14.749  13.234 -0.2009  0.1177 -0.3518
 6508W        W22982   3.214   0.073   0.919 -0.0289 -0.0106 -0.0355
 6509W        W22983  13.192  10.821  14.816 -0.0539 -0.1589  0.1647
 6510W        W22984   3.867  18.175   2.150 -0.0450 -0.1764  0.2836
 6511W        W22985  10.495   2.126  14.319  0.0046  0.0795 -0.1516
 6512W        W22986   9.927  16.051   5.405 -0.0612 -0.0215  0.1106
 6513W        W22987  12.647   3.203   1.467 -0.4553  0.0947 -0.0299
 6514W        W22988  10.075  10.076   3.860 -0.1582  0.2370  0.2569
 6515W        W22989  18.218  17.554   3.581 -0.0358  0.0584 -0.0929
 6516W        W22990  14.384   1.636   0.255 -0.0370  0.2890  0.1573
 6517W        W22991   7.280  16.386   2.606  0.1860  0.0313  0.2246
 6518W        W22992  14.092   6.220   0.998 -0.1126 -0.2670  0.0082
 6519W        W22993  18.176   3.607  11.432 -0.0508  0.0074 -0.0243
 6520W        W22994   9.492  12.165   0.852 -0.2186 -0.1735  0.0295
 6521W        W22995   5.758  10.388  13.924  0.1963 -0.1526  0.1457
 6522W        W22996   9.376   0.516  12.755 -0.0259 -0.0586 -0.0064
 6523W        W22997   5.543  12.269  13.732  0.0555 -0.2788  0.2936
 6524W        W22998  16.596   0.856   3.436  0.0485  0.2052 -0.1445
 6525W        W22999  10.597   9.681  15.500 -0.1232 -0.1699 -0.1947
 6526W        W23000  13.477  16.062   1.282  0.3387 -0.1544  0.2198
 6527W        W23001   4.029   5.955  13.156 -0.0522  0.2674 -0.0328
 6528W        W23002   2.520  16.397  14.919 -0.0798 -0.1427 -0.0503
 6529W        W23003  14.925  13.053  15.114 -0.1126 -0.4202  0.1528
 6530W        W23004   4.471   3.811   2.456  0.0720 -0.2749 -0.3052
 6531W        W23005   1.858   8.744   0.802  0.2021 -0.3867  0.2045
 6532W        W23006  12.141  12.257  16.141 -0.1570  0.1220  0.0793
 6533W        W23007  16.790  14.820   5.356 -0.0664 -0.1806  0.2928
 6534W        W23008  16.245  16.521   3.328  0.1143  0.1911 -0.2962
 6535W        W23009  15.784  17.335   4.035  0.2084 -0.1874  0.0913
 6536W        W23010   4.258   3.138   3.797 -0.0918  0.0527 -0.1867
 6537W        W23011  17.457  17.274  12.003 -0.0970  0.0166 -0.0074
 6538W        W23012  16.957   5.419  16.138 -0.3285  0.3043  0.2015
 6539W        W23013  10.678   6.655   2.046  0.0735  0.2950  0.0279
 6540W        W23014  13.706   8.489   4.587  0.2997  0.2378  0.1038
 6541W        W23015  12.542  16.133   5.296 -0.1747  0.0188  0.1897
 6542W        W23016   2.463   0.648  11.548 -0.0500  0.2945  0.0450
 6543W        W23017   1.634  11.562  14.181  0.0292  0.0495  0.0161
 6544W        W23018   1.176  17.091   6.283 -0.1607 -0.6038  0.0518
 6545W        W23019  15.351   1.720  12.563  0.2041 -0.0876  0.0710
 6546W        W23020  11.816   4.046   0.412 -0.0250  0.0206 -0.2148
 6547W        W23021  17.375  11.011   5.266  0.0980 -0.1972 -0.1044
 6548W        W23022  16.237  14.247  14.439 -0.3430  0.1533  0.0066
 6549W        W23023   9.166  17.520  13.758  0.1792  0.0446 -0.0194
 6550W        W23024   9.848   8.154   2.501  0.0936 -0.0195 -0.0193
 6551W        W23025  17.685   6.349  11.242  0.1145  0.0977  0.0172
 6552W        W23026   7.650   2.044   3.707 -0.2181  0.1012 -0.0682
 6553W        W23027  18.030   6.026  15.516 -0.0819 -0.1440 -0.0232
 6554W        W23028  16.885   1.863   4.553  0.0310 -0.2404 -0.2200
 6555W        W23029  10.096  10.786  13.756  0.0253  0.2869 -0.1529
 6556W        W23030  13.033  17.432   0.762  0.2214  0.0487  0.0715
 6557W        W23031   0.007  16.834   4.911  0.2267 -0.0448  0.2629
 6558W        W23032  16.382   2.114  14.543 -0.1346  0.2106 -0.3449
 6559W        W23033  11.476   3.892  11.009  0.2492  0.2677 -0.1493
 6560W        W23034   7.504   6.856  15.816  0.0555  0.1121 -0.0557
 6561W        W23035   4.840   3.351  15.986 -0.1910  0.1779  0.3475
 6562W        W23036   4.147  10.322  11.913  0.2253  0.0674  0.1708
 6563W        W23037  17.667   3.117   3.449  0.0565  0.1589  0.2265
 6564W        W23038   3.993   4.371  15.372 -0.2193  0.2643 -0.1755
 6565W        W23039   3.848  11.795   1.988  0.3058 -0.1435  0.0026
 6566W        W23040  14.533   9.473  12.840  0.4138  0.3691 -0.1697
 6567W        W23041   6.621   4.699   5.750  0.0403 -0.2291 -0.0261
 6568W        W23042   2.978   2.441  11.395  0.1196 -0.1331 -0.2673
 6569W        W23043  10.720  17.508   4.394  0.2924 -0.0252 -0.2796
 6570W        W23044  17.249  14.204   1.652  0.1490  0.0578  0.1563
 6571W        W23045   7.073   6.848   5.363  0.4074  0.2054 -0.0253
 6572W        W23046  13.854   1.181  13.539  0.0555 -0.0402 -0.3010
 6573W        W23047   5.262  12.809  15.460  0.2232  0.0915 -0.2559
 6574W        W23048   1.690   0.236   0.379  0.2486 -0.0248  0.3615
 6575W        W23049   8.034   0.390  12.839 -0.1188  0.1089  0.0280
 6576W        W23050   9.930  11.333  15.611  0.0725  0.1500  0.1373
 6577W        W23051  17.444   0.705   3.202 -0.1169  0.0381  0.0514
 6578W        W23052   1.216   5.885   6.132  0.1639  0.0811 -0.0857
 6579W        W23053  12.876  12.018   1.735  0.0982 -0.1064 -0.0338
 6580W        W23054   8.452  14.122  15.367  0.0438 -0.1534 -0.0065
 6581W        W23055   8.423   8.821  14.430  0.0814 -0.0146 -0.0748
 6582W        W23056  15.107   7.891  15.575 -0.1440  0.1704  0.3120
 6583W        W23057  12.405   8.997  11.690  0.1159 -0.4125  0.0313
 6584W        W23058   6.144  11.811   0.721  0.0608  0.3101  0.0237
 6585W        W23059  11.978  11.520   4.592  0.3138  0.0789 -0.2922
 6586W        W23060   3.218   2.075   3.328  0.3540 -0.0570 -0.1126
 6587W        W23061  10.490   7.445  11.436  0.0842 -0.0419  0.4724
 6588W        W23062   6.576   0.419  15.345  0.1485 -0.0217 -0.0975
 6589W        W23063   7.539  11.879   4.723  0.0133  0.3233 -0.0454
 6590W        W23064   8.358   0.568  14.491  0.2027 -0.1160  0.2004
 6591W        W23065   4.392  15.472   1.592 -0.0497 -0.0831  0.0350
 6592W        W23066  12.201  13.415  14.874  0.0118  0.1748 -0.2700
 6593W        W23067  13.670   0.650   4.338  0.0534  0.1731 -0.0336
 6594W        W23068  16.050  13.208  13.190 -0.2194 -0.2141  0.1640
 6595W        W23069   5.815  16.964   2.335 -0.0444  0.1252  0.1819
 6596W        W23070  16.807   9.570   4.529  0.1541  0.1242 -0.0788
 6597W        W23071   4.476  11.334  13.172  0.0212 -0.1665 -0.1368
 6598W        W23072   4.591   9.230  13.503 -0.1342 -0.0996 -0.1829
 6599W        W23073   7.512   7.379  15.459  0.0574 -0.2956  0.3033
 6600W        W23074  13.754  14.436  11.479 -0.1362 -0.0937  0.0516
 6601W        W23075  18.211  16.050   1.723  0.1023  0.0556 -0.1027
 6602W        W23076  12.929   6.943   4.464  0.1188  0.1036 -0.2514
 6603W        W23077  12.264   1.535   1.106  0.2122  0.0238  0.1375
 6604W        W23078   0.271   1.586  11.801 -0.1805  0.0102  0.0951
 6605W        W23079   5.315   3.123   3.010  0.2328 -0.1276  0.3171
 6606W        W23080   7.527   0.897  16.255 -0.0095  0.1240 -0.1450
 6607W        W23081  12.845   2.917   5.562  0.0883  0.1781  0.0361
 6608W        W23082  10.721   0.256  12.143 -0.2049 -0.1624  0.3653
 6609W        W23083  13.917   4.223   0.156  0.1673  0.2077 -0.2893
 6610W        W23084  11.707   8.619  14.379  0.0994  0.0762  0.0394
 6611W        W23085   4.399  13.185  12.741  0.1046 -0.0785  0.0811
 6612W        W23086   5.783  17.957   2.105  0.3406 -0.0660 -0.0406
 6613W        W23087   9.981  15.676  14.733  0.1733 -0.0632  0.2404
 6614W        W23088   4.209   6.903  16.212  0.1536 -0.0680  0.1821
 6615W        W23089  11.408   9.493  11.541 -0.2146  0.1207 -0.0649
 6616W        W23090  10.065  17.170  12.502 -0.2158 -0.1454  0.0510
 6617W        W23091   8.422   0.064   4.249 -0.1943  0.4671  0.2500
 6618W        W23092  10.594  12.443   1.314 -0.0937  0.0686  0.0671
 6619W        W23093   4.041  17.170   4.878  0.1049  0.1713  0.1763
 6620W        W23094   5.046  18.279  14.604  0.0906 -0.1828  0.2125
 6621W        W23095  11.459   3.731  15.719  0.0358 -0.0426 -0.1757
 6622W        W23096  12.202  12.840   2.145 -0.1094 -0.2119  0.1087
 6623W        W23097  12.619  13.043   1.932 -0.2453 -0.0656 -0.1927
 6624W        W23098   9.994  17.010   0.084 -0.0226 -0.2735  0.5296
 6625W        W23099  13.089  10.880  15.323 -0.1252  0.1850 -0.1316
 6626W        W23100  12.779  17.823  11.934  0.0521  0.0574  0.0194
 6627W        W23101  12.978  16.594  13.818  0.1559  0.0155  0.2224
 6628W        W23102   5.778   8.314   3.238 -0.0527 -0.0754 -0.2845
 6629W        W23103  16.685   8.590   0.005  0.2807 -0.3173  0.0924
 6630W        W23104   4.659  18.007  14.076 -0.0776 -0.0182 -0.3323
 6631W        W23105  14.573   1.382   2.484  0.3102  0.1428 -0.0100
 6632W        W23106   5.913   9.319   4.892 -0.1363  0.1896  0.0243
 6633W        W23107  12.155   4.529   3.091  0.3156 -0.0238  0.0888
 6634W        W23108   6.802  12.291  13.123 -0.2244  0.2934  0.4892
 6635W        W23109   3.102   8.696   3.382  0.0625  0.0617 -0.2710
 6636W        W23110  17.019  10.300   2.671  0.4069  0.2083 -0.0939
 6637W        W23111   7.023   4.388  13.071  0.0650  0.1416  0.0231
 6638W        W23112   9.327   5.370   2.352 -0.3674 -0.0249 -0.2846
 6639W        W23113  11.037   8.063  15.386  0.3876 -0.0402 -0.1219
 6640W        W23114   0.266   3.982   1.448 -0.3501 -0.2062  0.2232
 6641W        W23115  11.629   2.449   5.270 -0.1518 -0.2997 -0.0068
 6642W        W23116   5.606   5.795  12.889  0.0113 -0.0018  0.0671
 6643W        W23117  13.299  15.725   0.422 -0.2009  0.2077 -0.2612
 6644W        W23118   6.556   7.600  13.075  0.1204 -0.3666 -0.0504
 6645W        W23119  16.990   2.898   3.979  0.1959 -0.2915  0.2155
 6646W        W23120   8.319   5.940   2.933 -0.1030 -0.0075 -0.2687
 6647W        W23121   2.566  10.306   2.307  0.1254  0.3414 -0.0793
 6648W        W23122   1.369  15.481  14.455  0.0759  0.2243  0.3987
 6649W        W23123  15.357   9.452  13.099  0.3431 -0.0964 -0.0034
 6650W        W23124  13.758  15.541  13.839  0.3009  0.0304 -0.0236
 6651W        W23125   2.876   0.187   5.398  0.3476 -0.3061 -0.0597
 6652W        W23126   3.533  15.054  12.882  0.0300 -0.4143 -0.0013
 6653W        W23127  18.052   4.027  15.057 -0.1185 -0.1689 -0.4820
 6654W        W23128  13.592   6.987   5.039 -0.2162  0.1785 -0.0855
 6655W        W23129   0.976   0.868  11.779 -0.0913  0.0036 -0.1662
 6656W        W23130  14.161   2.029  11.859 -0.0974 -0.2040 -0.0652
 6657W        W23131   1.152   1.267   0.938 -0.0949 -0.1457  0.0812
 6658W        W23132   8.325   0.453   5.087 -0.1353 -0.2423  0.2027
 6659W        W23133   1.738   6.124  16.138  0.1929 -0.1047 -0.1038
 6660W        W23134   5.840  12.817   4.947 -0.3255  0.1649 -0.2227
 6661W        W23135  13.915   0.781  11.862  0.0925 -0.2020  0.0597
 6662W        W23136  18.276   9.900   1.076  0.2858  0.0986  0.2306
 6663W        W23137   3.429  14.087  15.895  0.0024  0.3608 -0.1620
 6664W        W23138  17.303   4.145   2.862  0.0778  0.1314  0.3281
 6665W        W23139   1.982  17.804  16.231  0.0253  0.0987 -0.2861
 6666W        W23140  17.090  12.252   1.073 -0.3193  0.3545 -0.2517
 6667W        W23141   4.881  14.130   1.813  0.4524  0.1587  0.0784
 6668W        W23142  13.981  16.459   3.861 -0.1411  0.3144  0.0154
 6669W        W23143  11.610   9.591   2.042 -0.1994 -0.1698  0.1295
 6670W        W23144  16.277  13.630  13.001 -0.0365  0.0070  0.4359
 6671W        W23145   4.536   8.692   0.487  0.1766  0.3608 -0.0821
 6672W        W23146   9.298  14.945  16.297 -0.0794 -0.1932 -0.1450
 6673W        W23147   3.599  12.092  13.473 -0.2235 -0.1003  0.0691
 6674W        W23148  13.213  17.414  16.277  0.0122 -0.1613 -0.2389
 6675W        W23149   7.682   0.445   0.672  0.2348  0.0795  0.0033
 6676W        W23150  14.457   3.791   2.717 -0.1067  0.2919 -0.1718
 6677W        W23151   3.968  17.329  14.377  0.0005  0.3357  0.1490
 6678W        W23152   5.092   1.125  10.493 -0.1260 -0.1373  0.0292
 6679W        W23153  14.882  12.380   1.158 -0.2012 -0.2515  0.2368
 6680W        W23154  17.223  13.334  16.068 -0.0396  0.2142 -0.2938
 6681W        W23155   9.221  17.653  15.533  0.0236  0.0526  0.2927
 6682W        W23156   7.459  10.597  12.333  0.2761  0.0713 -0.0458
 6683W        W23157  11.919   8.959  13.362  0.0691  0.0273 -0.4564
 6684W        W23158   7.657   1.229  15.886 -0.0771  0.0881  0.0201
 6685W        W23159  12.492   7.759  14.285  0.2409  0.1097  0.0821
 6686W        W23160   7.889  18.117  11.579  0.2975 -0.1829  0.1934
 6687W        W23161   4.444   2.696   3.425 -0.2773  0.0807 -0.2271
 6688W        W23162  16.815   4.298   0.879  0.0863 -0.1681  0.0664
 6689W        W23163   8.158   2.288   3.294  0.0965 -0.1417 -0.1112
 6690W        W23164   0.688   6.248   0.875 -0.0407  0.2066  0.0691
 6691W        W23165  17.035  14.204   4.731  0.1888 -0.0646  0.0851
 6692W        W23166  17.068  16.844   1.944  0.3845 -0.1203 -0.0493
 6693W        W23167  11.857   2.005  11.313  0.2096  0.0179  0.0786
 6694W        W23168  12.055   1.553  11.221 -0.0813  0.0954 -0.0371
 6695W        W23169  14.868   1.315   4.628  0.2807  0.3210  0.1698
 6696W        W23170   8.603  16.002   5.857  0.0880  0.3776 -0.0046
 6697W        W23171   7.837  15.476   3.748  0.1190 -0.0869  0.0131
 6698W        W23172  10.865  17.425  12.298  0.1941 -0.0697 -0.1120
 6699W        W23173  13.797  11.995   0.998  0.0424 -0.1963  0.0108
 6700W        W23174  11.767   1.559   1.322 -0.1333  0.0009 -0.0837
 6701W        W23175   1.261   0.992   3.266  0.3583  0.2910  0.0580
 6702W        W23176   7.117  14.018   6.317 -0.1077  0.0528  0.3513
 6703W        W23177  10.083  13.218   2.926 -0.2069 -0.1812 -0.0414
 6704W        W23178  16.198   8.926  12.576 -0.2101  0.0387 -0.1831
 6705W        W23179   0.925  13.480  16.176  0.0213 -0.1147 -0.1806
 6706W        W23180  13.609   5.276   3.341 -0.2684  0.1947 -0.0817
 6707W        W23181   4.856  12.842  14.646  0.0989  0.3208  0.0930
 6708W        W23182   8.135   8.149  12.158  0.0603 -0.1893 -0.2021
 6709W        W23183   2.354   6.383   1.427  0.0132 -0.0698  0.2182
 6710W        W23184   2.608  12.963   1.792  0.0659  0.0938 -0.0110
 6711W        W23185  12.118   8.934  14.209 -0.2451 -0.0576 -0.0536
 6712W        W23186  13.115   2.826  16.081  0.3317  0.1824 -0.0197
 6713W        W23187   2.529   7.887  15.574 -0.3580  0.2588  0.2739
 6714W        W23188  10.370   1.877   2.744 -0.1010  0.1143  0.0908
 6715W        W23189   1.063  14.404   5.225 -0.2058  0.0345 -0.0711
 6716W        W23190   2.802   2.918  11.304  0.0186  0.0308 -0.1465
 6717W        W23191   8.255   2.662   4.042 -0.1306  0.0883  0.0955
 6718W        W23192   1.010   5.390   1.184 -0.1396 -0.3944  0.1829
 6719W        W23193  16.467   4.486  12.079  0.2914  0.1898  0.2821
 6720W        W23194   0.877   9.356  16.122 -0.0865 -0.2054 -0.1165
 6721W        W23195   4.773   9.239   3.116  0.1429 -0.0607 -0.0721
 6722W        W23196   2.980   0.665  11.602  0.0471  0.1413 -0.0702
 6723W        W23197   1.265   9.991   0.292  0.1053  0.1352 -0.2554
 6724W        W23198   3.416   7.524   2.582 -0.0661 -0.0442  0.0765
 6725W        W23199   9.205  14.110   5.596  0.3952 -0.2709 -0.1508
 6726W        W23200  11.344   1.105   0.825 -0.1037 -0.2770 -0.0465
 6727W        W23201  16.222   9.382   1.800  0.4029 -0.3151  0.1705
 6728W        W23202  16.165  10.844  14.915  0.2286  0.1497  0.0363
 6729W        W23203   3.254   4.445   3.681  0.0599 -0.0747  0.1737
 6730W        W23204   6.635   9.031   4.189  0.0681 -0.0827 -0.1302
 6731W        W23205   0.012   7.040   6.161  0.1120 -0.2682 -0.0859
 6732W        W23206   1.540  13.796  13.963  0.2684  0.1221 -0.1345
 6733W        W23207   5.172   9.436  11.627 -0.1267 -0.2927  0.0375
 6734W        W23208  14.147  14.633   3.452 -0.4221 -0.1721 -0.0620
 6735W        W23209  13.940  11.460  12.112  0.1091 -0.0297  0.1750
 6736W        W23210  15.102   5.198  14.989 -0.0420 -0.1755 -0.0702
 6737W        W23211  10.344  11.888   4.552  0.2739  0.3276 -0.1958
 6738W        W23212  10.799  13.042   3.479 -0.0541 -0.2055 -0.1305
 6739W        W23213  16.381  15.694   1.946  0.1624  0.1232 -0.1184
 6740W        W23214   4.774  16.785  13.245  0.0310 -0.3024  0.0444
 6741W        W23215  10.864   3.449  16.104 -0.3029  0.3741 -0.0732
 6742W        W23216  14.278   3.283  13.092  0.2719  0.0465 -0.0554
 6743W        W23217   5.707  14.490  12.053  0.0629 -0.0938 -0.0921
 6744W        W23218  14.294  17.647  11.670  0.1520 -0.2648 -0.0010
 6745W        W23219   9.242   0.187  11.755  0.1933  0.3367 -0.1815
 6746W        W23220   9.244   7.410   5.682 -0.0326 -0.2385  0.1274
 6747W        W23221   8.020   6.293  12.272 -0.2434 -0.1297  0.1628
 6748W        W23222  14.285  12.917   4.421  0.1490 -0.3116 -0.3910
 6749W        W23223  16.567   1.891  12.036 -0.0167  0.0041 -0.0988
 6750W        W23224   6.306  13.937   0.476 -0.1261  0.0086  0.0575
 6751W        W23225  13.032   8.685  15.320  0.0551 -0.4647  0.0891
 6752W        W23226   7.353   1.902  13.897  0.0699  0.0765  0.1106
 6753W        W23227   0.778  12.647  11.078 -0.0774 -0.1055 -0.0685
 6754W        W23228   2.006  12.785  11.579  0.2028  0.1546  0.0686
 6755W        W23229  17.014  13.028  10.684 -0.3248 -0.4698 -0.1091
 6756W        W23230  11.584   8.706  11.922  0.2259 -0.1149  0.1447
 6757W        W23231   0.265   7.222  10.807 -0.2088  0.3337 -0.2170
 6758W        W23232  18.086   0.203  12.399 -0.2046 -0.0768 -0.2609
 6759W        W23233  10.081   7.707   1.687  0.0422  0.0344  0.0479
 6760W        W23234   9.822   0.172   3.925  0.0506  0.0851 -0.0826
 6761W        W23235   8.454  14.264   3.290  0.1072  0.1664  0.4311
 6762W        W23236   5.745   3.395  16.141 -0.1698  0.1247 -0.2480
 6763W        W23237   2.157  12.333  12.863  0.0710  0.1505  0.3551
 6764W        W23238  16.685   0.942  11.685 -0.2198  0.0664  0.1791
 6765W        W23239  17.880  17.126  12.263  0.3172  0.0204 -0.0822
 6766W        W23240   7.192  16.480  11.351 -0.0655  0.0068  0.0931
 6767W        W23241  17.799   3.673   5.239  0.0045  0.0546 -0.1781
 6768W        W23242   9.819   6.474  14.670  0.0413 -0.2149  0.0391
 6769W        W23243   1.346   1.260   5.238  0.0607  0.0349 -0.4149
 6770W        W23244  11.456   8.400   4.092  0.0687 -0.1592  0.1805
 6771W        W23245  12.753   6.070   2.021 -0.2080 -0.1742  0.2066
 6772W        W23246  13.182   2.470  13.632  0.0105  0.1059  0.0939
 6773W        W23247   4.092   3.910   5.173 -0.2462  0.2906  0.0005
 6774W        W23248   0.423   2.316   2.429  0.0873 -0.0235 -0.1599
 6775W        W23249   9.403  11.143   2.103  0.2860  0.0702 -0.0886
 6776W        W23250   4.032   2.336  14.709  0.0636  0.4171  0.1002
 6777W        W23251  17.445   4.945  14.419  0.0324  0.3742  0.0669
 6778W        W23252  15.328   9.962  12.328  0.1178 -0.1580  0.1248
 6779W        W23253   0.031  11.178   2.455  0.0450  0.2903 -0.0184
 6780W        W23254   8.499  14.855   3.968  0.1946 -0.0824  0.0816
 6781W        W23255   4.217  17.880   1.297 -0.0331  0.2083 -0.1866
 6782W        W23256  16.445   4.258   3.561 -0.2088 -0.3756 -0.1113
 6783W        W23257  10.455  13.436  12.655  0.1809 -0.1772 -0.0318
 6784W        W23258  13.224   0.577  13.986  0.3826 -0.1391  0.1420
 6785W        W23259   4.252   9.731  13.068 -0.0624  0.1704  0.1026
 6786W        W23260   1.747   9.487   3.308 -0.1499  0.0255  0.0647
 6787W        W23261  15.740  10.208  12.539 -0.0597  0.0021 -0.0997
 6788W        W23262  12.500  15.676   1.348  0.3733  0.1282 -0.1313
 6789W        W23263   1.210   6.577  13.674 -0.0513 -0.2576  0.2791
 6790W        W23264   2.112  10.558   2.293  0.1789  0.0471  0.1171
 6791W        W23265  13.142   4.801   5.572 -0.1877  0.0100  0.1436
 6792W        W23266   0.099  11.774   5.311  0.0875  0.0531  0.1102
 6793W        W23267   1.764   5.497   0.723 -0.4875  0.0860  0.0102
 6794W        W23268   7.966  12.469   1.001  0.3237  0.0199 -0.1771
 6795W        W23269   5.419  14.982   0.834 -0.0051 -0.1555  0.0305
 6796W        W23270  14.558  11.029  15.077 -0.0698  0.0032  0.0641
 6797W        W23271   0.362   3.811   5.860 -0.0171  0.0948 -0.1281
 6798W        W23272   5.920   4.856   0.092  0.1415 -0.0522 -0.1539
 6799W        W23273   7.084  12.714  15.045  0.0781  0.0855  0.2582
 6800W        W23274  18.107  11.953  13.233 -0.0808  0.1960  0.3977
 6801W        W23275   8.438  17.645  15.912 -0.0654 -0.5358 -0.1857
 6802W        W23276  16.983   5.630  11.504  0.1199 -0.0299 -0.0102
 6803W        W23277  13.550   8.240  13.838  0.0217  0.0559  0.1397
 6804W        W23278   5.879  11.022  13.066  0.0293 -0.0206  0.1536
 6805W        W23279  17.845  10.134  10.925 -0.0912 -0.0286  0.0788
 6806W        W23280  13.989  12.550  15.006 -0.0629  0.3564  0.1511
 6807W        W23281   8.443   6.443   3.030  0.1121 -0.1861 -0.3416
 6808W        W23282  13.412  10.417  16.029 -0.0106 -0.2719 -0.0738
 6809W        W23283   9.453   9.323   3.579  0.0800  0.0927 -0.1512
 6810W        W23284  14.263  11.489  13.112  0.0394  0.0917 -0.3263
 6811W        W23285  15.773  13.049   4.624  0.1745  0.3210 -0.0750
 6812W        W23286  12.057   1.646   3.173 -0.0575 -0.0714  0.3533
 6813W        W23287   0.318   6.078  12.989  0.1965 -0.2778 -0.0126
 6814W        W23288  12.364   5.756   2.034  0.0495  0.1888 -0.0826
 6815W        W23289   8.730  16.780   4.215 -0.1884 -0.1632 -0.1476
 6816W        W23290   6.001   7.237   4.867  0.0709 -0.0024  0.0217
 6817W        W23291   9.921   4.500  12.126  0.2940  0.0097  0.1518
 6818W        W23292  14.567  17.178   1.848 -0.0714 -0.1162 -0.0250
 6819W        W23293   8.911   9.814   1.724  0.1572 -0.2763 -0.0829
 6820W        W23294   1.760  15.159  13.079  0.1060 -0.1650  0.3361
 6821W        W23295   1.770   8.366   3.977 -0.3512 -0.0383  0.0170
 6822W        W23296   7.220  13.918  12.701  0.0631  0.3033  0.2485
 6823W        W23297  13.620  10.545   0.695 -0.4158 -0.0175  0.2079
 6824W        W23298  10.281   4.895   3.475 -0.0220  0.0805  0.5146
 6825W        W23299   7.566   7.535   3.549  0.0519 -0.2794 -0.1496
 6826W        W23300   7.887  10.377  15.476  0.1313 -0.3595 -0.1888
 6827W        W23301   7.154  16.043   0.094 -0.3338 -0.0970 -0.1301
 6828W        W23302  17.967   7.094  12.486  0.0987  0.1458  0.1454
 6829W        W23303  15.793   7.053  12.582  0.0065 -0.1413 -0.0799
 6830W        W23304   4.887   5.286   5.296  0.0086  0.1707  0.0580
 6831W        W23305   6.702  11.069   0.498  0.4789 -0.0677 -0.0689
 6832W        W23306   7.367   7.227  14.383  0.0694  0.2682  0.0121
 6833W        W23307  10.414   2.480   2.422  0.1557 -0.1931  0.0805
 6834W        W23308   4.877  11.428   1.292  0.1551 -0.0186 -0.0208
 6835W        W23309  16.722   1.697  12.980  0.0100 -0.0616 -0.3144
 6836W        W23310   4.111  16.126  12.500 -0.0967 -0.1875  0.3636
 6837W        W23311   6.611  17.626  15.618  0.0482 -0.4153  0.2358
 6838W        W23312   7.202   5.963   3.299  0.3566  0.0093 -0.3359
 6839W        W23313  12.808   1.157  14.837  0.2538 -0.0742 -0.2242
 6840W        W23314   4.817  13.209   3.062  0.1853  0.4631 -0.0465
 6841W        W23315   6.303  14.988   3.071 -0.0607  0.0014 -0.2176
 6842W        W23316  16.109   3.994   5.693  0.1294  0.2368  0.0048
 6843W        W23317   3.222   6.541  15.640 -0.1005  0.4284 -0.0716
 6844W        W23318  12.349   4.798  14.071 -0.0867 -0.2027 -0.2367
 6845W        W23319  17.404   5.482   5.698 -0.3745  0.1022  0.0763
 6846W        W23320  11.635   6.599  15.204 -0.3609  0.1475 -0.0319
 6847W        W23321   3.683   8.930  12.148  0.2185  0.0531  0.2952
 6848W        W23322   7.032   5.030  11.939 -0.3930  0.1483  0.1742
 6849W        W23323   7.032   5.736   3.747  0.2869  0.1370  0.2177
 6850W        W23324   0.308  12.991  14.420 -0.0395 -0.3018 -0.3880
 6851W        W23325  15.532   7.192   1.236  0.0067 -0.1592  0.0752
 6852W        W23326   2.650   4.799   5.367  0.2661 -0.1542 -0.1098
 6853W        W23327  11.455   1.402  13.137 -0.1156 -0.0994 -0.0760
 6854W        W23328  11.960  17.836  12.819 -0.3201  0.0601 -0.1567
 6855W        W23329  14.184  12.276  11.381  0.0485  0.3328  0.0004
 6856W        W23330   0.850  14.395   1.352 -0.3155  0.3132  0.1097
 6857W        W23331   9.809   7.834   4.616  0.0056  0.0657 -0.2159
 6858W        W23332   3.211  11.896   0.719 -0.0042  0.0412  0.0058
 6859W        W23333   1.354  11.065  15.031 -0.1676 -0.0418  0.2371
 6860W        W23334  16.780   2.366  15.774 -0.1007  0.2343  0.0673
 6861W        W23335   9.983   2.765   2.380 -0.1443  0.0763  0.1252
 6862W        W23336   2.029   6.758   2.729 -0.0759  0.0976  0.2620
 6863W        W23337   3.740   1.534  11.525 -0.0030  0.3704 -0.2036
 6864W        W23338  13.123   8.194   1.609  0.0220 -0.1177  0.0708
 6865W        W23339   2.726   0.729  12.024  0.4305 -0.0261  0.3159
 6866W        W23340   6.510  12.574   0.679  0.0271 -0.0969 -0.2799
 6867W        W23341   8.405  14.122  12.195  0.1094 -0.0521 -0.0210
 6868W        W23342  15.437   9.087   4.882  0.2337 -0.1763  0.0028
 6869W        W23343   0.878   6.073   5.812 -0.1510  0.0561  0.2088
 6870W        W23344   7.066  13.618   4.739 -0.0095 -0.1970  0.1194
 6871W        W23345   8.191   7.379   0.296  0.5358 -0.0613  0.3708
 6872W        W23346  17.142   1.335  13.773 -0.1893 -0.0362 -0.3730
 6873W        W23347   5.136   5.140  12.658  0.0565  0.2427  0.1753
 6874W        W23348   2.701  16.316   3.435  0.0536 -0.0994 -0.0326
 6875W        W23349  14.177  14.110   2.411  0.1424  0.0319  0.0295
 6876W        W23350   9.380  13.035   3.457 -0.0098  0.0478  0.0177
 6877W        W23351   2.753  15.216  13.497 -0.0585 -0.3434 -0.3104
 6878W        W23352   4.687   6.914   0.194 -0.1377 -0.1078  0.2700
 6879W        W23353   5.650  13.358  13.082  0.0805 -0.0480  0.1777
 6880W        W23354  11.599   5.744   4.417  0.0287 -0.0221 -0.0402
 6881W        W23355   9.226   6.526  13.487  0.0553 -0.1989 -0.1917
 6882W        W23356   5.984  16.512  14.298 -0.3607 -0.1879 -0.1229
 6883W        W23357   7.078  16.237   3.334 -0.1993  0.0148  0.0173
 6884W        W23358   5.656   4.891  15.907 -0.1360  0.0979 -0.0849
 6885W        W23359  11.478   9.288  15.639 -0.0675 -0.1604  0.1060
 6886W        W23360  15.248  16.800  12.208 -0.1069  0.0648 -0.2802
 6887W        W23361  17.915  17.428   2.755 -0.2002 -0.0572  0.0168
 6888W        W23362   4.096   8.533  12.109  0.0565 -0.0166  0.1692
 6889W        W23363  10.172   6.443   4.464 -0.0215  0.0291 -0.1535
 6890W        W23364   1.030  14.010   5.583  0.2620  0.3675 -0.1561
 6891W        W23365   8.732  14.576  15.495 -0.0729 -0.5288  0.0313
 6892W        W23366   9.432   8.426   2.343 -0.1042 -0.1089 -0.2916
 6893W        W23367  12.784   7.738  13.701  0.1023  0.1444 -0.0031
 6894W        W23368  11.385  14.275   0.303 -0.1383 -0.1812  0.2300
 6895W        W23369  18.143  10.959   0.992  0.1526  0.3686 -0.0591
 6896W        W23370   0.590   6.726  14.729 -0.1016 -0.0943 -0.1311
 6897W        W23371  15.662  10.885  13.104  0.1174  0.0199 -0.0086
 6898W        W23372   1.759   6.034  12.116  0.0790  0.0832  0.1953
 6899W        W23373   1.604  14.329   3.896  0.0336  0.0421 -0.2211
 6900W        W23374   7.530  12.245  13.929  0.0570 -0.2290 -0.3113
 6901W        W23375  14.250   8.074   1.862 -0.4211 -0.0472  0.0772
 6902W        W23376  14.876   0.889  12.030 -0.1195 -0.0491 -0.1307
 6903W        W23377  17.210  11.449  15.024 -0.0003 -0.1489 -0.0391
 6904W        W23378   3.165   4.368  12.974  0.1753  0.1645  0.0218
 6905W        W23379  14.922   4.364   3.353 -0.1224  0.1795  0.1706
 6906W        W23380  13.470  14.655   0.306  0.2224  0.2419 -0.0257
 6907W        W23381  15.814   0.408   2.124 -0.1379  0.0016 -0.0299
 6908W        W23382   8.554  12.651   3.837  0.1341  0.0054  0.0677
 6909W        W23383  17.829   6.327  13.623 -0.0492 -0.0931  0.2889
 6910W        W23384   2.578   5.998   1.987  0.2933 -0.3474 -0.3667
 6911W        W23385  15.498  15.360   2.003  0.2033 -0.2380 -0.1226
 6912W        W23386  15.450   7.372  12.763  0.1312  0.0572 -0.1344
 6913W        W23387   6.652   2.525   4.771  0.0384 -0.0549 -0.1677
 6914W        W23388   4.726   9.419   5.577  0.1494 -0.0015  0.2320
 6915W        W23389   3.501  13.154   2.984 -0.0904 -0.1315  0.1928
 6916W        W23390   1.012  12.959   3.557 -0.0280 -0.0387 -0.1029
 6917W        W23391  12.886  11.283  13.058 -0.2042 -0.3694  0.1023
 6918W        W23392   3.026  12.274  12.651  0.1984  0.1000 -0.1730
 6919W        W23393  11.379   9.553   4.614 -0.2872 -0.2093  0.2686
 6920W        W23394  12.250  18.044   0.675  0.1685 -0.2123 -0.0583
 6921W        W23395   0.824  14.898  15.980  0.0684  0.0598  0.0403
 6922W        W23396   8.433  16.268   4.092 -0.0916 -0.0761  0.1197
 6923W        W23397   7.596  11.951   4.170 -0.2219  0.0926  0.0232
 6924W        W23398   5.434  14.419  13.986  0.0811 -0.0437 -0.1443
 6925W        W23399   4.739   7.821   1.836 -0.1856 -0.0335 -0.0729
 6926W        W23400   3.013  11.836   0.257 -0.0209  0.3459  0.1515
 6927W        W23401   9.930   5.347   3.200  0.1163  0.0315 -0.1968
 6928W        W23402   5.001  16.526  16.156 -0.2136 -0.2923 -0.1194
 6929W        W23403   0.990   0.443  15.967  0.1063 -0.0438  0.1023
 6930W        W23404  11.440  17.769  12.366  0.0353  0.0937  0.0089
 6931W        W23405   6.011  16.051   4.719 -0.1803  0.0105 -0.0661
 6932W        W23406   4.374   4.692  13.503  0.0154 -0.2498  0.1684
 6933W        W23407  10.964   7.054   3.307 -0.0485 -0.2236 -0.0762
 6934W        W23408   2.955   6.242   0.147 -0.1386 -0.1334  0.0347
 6935W        W23409   5.597  13.679   5.490 -0.0081 -0.2514 -0.0202
 6936W        W23410   5.557   6.149  12.056 -0.3703 -0.0744  0.1724
 6937W        W23411   7.054   8.230  13.098 -0.1969 -0.1171  0.0713
 6938W        W23412   3.505   3.266   3.190 -0.1354 -0.4445 -0.0156
 6939W        W23413   8.700   6.654  15.262 -0.2138 -0.1434  0.3127
 6940W        W23414  13.665   9.413  14.819  0.4309  0.3040 -0.0526
 6941W        W23415  14.916  10.093  16.112  0.0379 -0.0117 -0.3575
 6942W        W23416   5.922  11.147  13.937 -0.1385  0.1180 -0.1491
 6943W        W23417  14.092   0.503  12.709 -0.3828  0.0924 -0.5276
 6944W        W23418   1.791   1.773   0.649  0.1592 -0.1750  0.4136
 6945W        W23419  10.345  15.388  15.094 -0.1592 -0.0689  0.0621
 6946W        W23420   3.144   0.266   2.859  0.2914 -0.1722  0.2916
 6947W        W23421   2.667  12.954  15.926  0.3533  0.0308  0.0329
 6948W        W23422   2.982   7.407   0.334  0.1332  0.0972  0.0168
 6949W        W23423  11.304   9.387   1.278 -0.2987 -0.2895  0.0869
 6950W        W23424   4.632   7.706   5.737  0.2364 -0.1926 -0.1282
 6951W        W23425  18.038   2.245   3.699 -0.1746  0.1408 -0.1540
 6952W        W23426  15.239  10.785  14.736  0.2885  0.1627  0.2503
 6953W        W23427   0.143  12.769  14.863  0.0203 -0.0981 -0.2293
 6954W        W23428   2.205   6.954  12.826  0.1033 -0.1535  0.1551
 6955W        W23429  12.127  12.084  13.873  0.1347  0.2519 -0.2296
 6956W        W23430   5.958   6.286   2.602  0.0504  0.2239  0.1585
 6957W        W23431  14.443  12.165   0.241  0.0987  0.0828 -0.1182
 6958W        W23432  16.561  12.811   3.624  0.2813  0.1164 -0.0845
 6959W        W23433  14.849   9.462   1.569  0.0870 -0.0882 -0.2383
 6960W        W23434   5.148   6.345   0.427  0.1305  0.2890  0.0830
 6961W        W23435   3.160  10.061  16.183  0.0734 -0.2672 -0.2767
 6962W        W23436   6.174   4.706  14.539  0.1769 -0.1621 -0.2483
 6963W        W23437   1.556  14.003   2.075 -0.2153  0.1629 -0.1009
 6964W        W23438  15.866   3.194  13.951  0.1365  0.1000 -0.1226
 6965W        W23439  12.512  11.268   0.665  0.1653 -0.0227 -0.2962
 6966W        W23440   5.751  12.058   4.444 -0.1996  0.1305  0.1197
 6967W        W23441   1.564   5.894   5.692 -0.2983 -0.1986 -0.1133
 6968W        W23442  14.343  18.110  16.321 -0.2398  0.2195  0.2011
 6969W        W23443  14.510   3.977   0.073 -0.2795  0.0187  0.2738
 6970W        W23444   0.053  10.849   1.470 -0.2296  0.0711 -0.0318
 6971W        W23445   1.280   7.326   1.429 -0.0896 -0.0113 -0.5105
 6972W        W23446   5.153   0.987  11.857  0.0130  0.0642 -0.0208
 6973W        W23447   2.746   9.743  10.388  0.1387  0.0867  0.2041
 6974W        W23448   4.190   4.525   9.994 -0.2494 -0.1460  0.2477
 6975W        W23449   6.442  13.039   0.897 -0.1142  0.0588  0.1724
 6976W        W23450  16.579   7.026  11.606  0.0441 -0.0555 -0.0371
 6977W        W23451   1.957  11.059  13.083 -0.1514  0.4340 -0.3199
 6978W        W23452  16.851  12.706   1.189  0.0757 -0.1013 -0.3053
 6979W        W23453   1.727  16.769   3.532  0.1301 -0.2225  0.1860
 6980W        W23454   0.742  16.840  11.210  0.2043  0.3837  0.0111
 6981W        W23455  11.856  15.374   0.774 -0.2357 -0.0562 -0.2024
 6982W        W23456  16.693  14.278  11.296  0.0441 -0.0541 -0.1846
 6983W        W23457   5.705   0.562  12.331 -0.0837 -0.0223 -0.0056
 6984W        W23458  10.641   0.167  11.190  0.0977 -0.1687  0.3123
 6985W        W23459   8.840  11.773   3.733 -0.2554  0.0549 -0.1186
 6986W        W23460   6.417  11.517  16.009  0.2788 -0.3345  0.1569
 6987W        W23461   9.542  10.664   4.755  0.1753 -0.4003  0.3788
 6988W        W23462   4.363   7.509  11.255 -0.0655  0.1634  0.1580
 6989W        W23463  15.607   0.148   1.662  0.2361  0.1370  0.1681
 6990W        W23464  17.145   5.638   4.610  0.0271  0.0470  0.1669
 6991W        W23465   1.749   5.889   5.061 -0.0244  0.0090  0.0841
 6992W        W23466  13.998   2.253   3.801  0.0937 -0.2337  0.1414
 6993W        W23467   4.124  15.218   3.516 -0.0355 -0.2127 -0.0491
 6994W        W23468   6.976  14.116   3.741 -0.1043 -0.2206 -0.0229
 6995W        W23469   5.958   1.993  15.120  0.0671 -0.2628 -0.5160
 6996W        W23470  12.399   9.478   1.230  0.1081 -0.1304  0.1450
 6997W        W23471  12.662   8.737  12.158 -0.1623  0.0010 -0.0998
 6998W        W23472   7.920   9.626   0.171 -0.0048  0.1228 -0.1174
 6999W        W23473  15.948  17.494   0.815 -0.2932 -0.0412 -0.2491
 7000W        W23474  13.193  14.513  12.026 -0.0391  0.0016  0.2788
 7001W        W23475   8.342  11.467   1.442  0.2342 -0.0202 -0.0888
 7002W        W23476   0.893  17.816   0.671  0.1803  0.2568  0.1104
 7003W        W23477   9.418   8.922  16.146 -0.2470 -0.0088 -0.0023
 7004W        W23478  15.860   8.299   1.449 -0.0847 -0.0585 -0.3340
 7005W        W23479   6.202   7.559  14.801 -0.0457  0.1570  0.0199
 7006W        W23480  12.122   1.586  13.576 -0.2943  0.1052  0.3384
 7007W        W23481   0.193   6.415   1.034 -0.1735  0.1612 -0.0051
 7008W        W23482   0.942   8.384  15.862  0.1473  0.1697  0.0018
 7009W        W23483   0.030   6.198   4.616  0.0198 -0.3753 -0.0748
 7010W        W23484  13.348   4.257   1.978  0.0356 -0.1708  0.2624
 7011W        W23485   6.162  14.286   3.149 -0.3049 -0.1797  0.0582
 7012W        W23486  16.326  17.458  13.748  0.0017 -0.2217 -0.1180
 7013W        W23487  14.746  13.322   5.734  0.0077 -0.0788 -0.1039
 7014W        W23488  16.052   1.885  12.289  0.1925 -0.0973  0.1060
 7015W        W23489  13.833  14.367  12.875 -0.1014  0.0262  0.1589
 7016W        W23490  16.225   5.364   0.524 -0.0552  0.0259 -0.0795
 7017W        W23491  17.257  15.562  11.441 -0.2972 -0.1813  0.0154
 7018W        W23492  14.396  10.378   4.772  0.0081 -0.1044  0.1355
 7019W        W23493   5.947  12.766  12.616 -0.0655 -0.0602 -0.4589
 7020W        W23494  17.596  10.034   3.573 -0.0821 -0.0099  0.0935
 7021W        W23495  15.252   2.222  10.755  0.2336 -0.2020 -0.1335
 7022W        W23496   3.994  14.513   1.352 -0.1515 -0.0341  0.0640
 7023W        W23497   0.564  13.189  12.500  0.0658  0.3181  0.0414
 7024W        W23498  15.593  12.726  14.328  0.1714 -0.2161 -0.0388
 7025W        W23499  10.848   3.625   4.721  0.1572 -0.3821  0.3702
 7026W        W23500  18.024   5.866   1.088  0.3136 -0.0047  0.0041
 7027W        W23501   0.471   1.129  11.132  0.1476  0.0578  0.1224
 7028W        W23502  12.873  17.808  16.174  0.0951  0.0273 -0.2142
 7029W        W23503   5.512  10.604   0.076  0.0429  0.3051 -0.0169
 7030W        W23504  13.217   0.027  12.098  0.0410 -0.2022  0.2165
 7031W        W23505  16.981  13.755   5.646  0.2077  0.1000 -0.2201
 7032W        W23506   4.197   5.337   1.525  0.1091  0.1056  0.0690
 7033W        W23507   2.449   4.359   5.498  0.2285 -0.0095  0.0219
 7034W        W23508  14.680   3.044   3.835  0.0646 -0.1129  0.1685
 7035W        W23509  13.274   1.460  12.019 -0.0881  0.2096 -0.1048
 7036W        W23510  16.442  10.208  12.921  0.1855  0.0648  0.0024
 7037W        W23511   2.593  16.816  14.319 -0.0788 -0.0233  0.1452
 7038W        W23512  13.692  13.852   1.976  0.0184  0.0679  0.1128
 7039W        W23513   7.334   3.955  13.959  0.1879  0.0279 -0.0080
 7040W        W23514   3.192  10.994   0.043 -0.0245 -0.2142  0.3568
 7041W        W23515  13.134  17.933   4.978 -0.0714 -0.0827 -0.0772
 7042W        W23516  11.489  15.783   4.256 -0.0415  0.3477  0.3704
 7043W        W23517   3.779  12.697   2.905 -0.1222  0.2642 -0.2861
 7044W        W23518   5.858   4.223  10.812  0.1681  0.1979 -0.2640
 7045W        W23519   5.277   9.541  13.364  0.5053 -0.2618  0.2716
 7046W        W23520   3.257   9.578   2.257  0.2318  0.0022  0.1285
 7047W        W23521  18.294   7.436   2.600 -0.2075 -0.0941 -0.3143
 7048W        W23522  11.216  18.054  14.250  0.1644 -0.3719 -0.1184
 7049W        W23523   8.380  13.855  13.777  0.3101 -0.0045  0.1150
 7050W        W23524   2.693   2.600  14.641 -0.0755  0.2990  0.3976
 7051W        W23525   9.078   2.958  11.832  0.1202  0.2159  0.1127
 7052W        W23526  14.926  10.441   4.590  0.1914 -0.1177 -0.1606
 7053W        W23527  13.420  10.587  13.913 -0.0529  0.2034 -0.0598
 7054W        W23528  14.662   9.546   4.682 -0.1962 -0.0488 -0.0292
 7055W        W23529   2.684   9.458   4.481  0.2746 -0.1083 -0.1933
 7056W        W23530   1.023   8.034   5.060 -0.0830 -0.1689  0.1103
 7057W        W23531   4.318  11.457   3.795 -0.0252  0.3194  0.2450
 7058W        W23532  10.162   6.182  16.074  0.1207 -0.0724 -0.2419
 7059W        W23533  11.558  14.884   4.180 -0.1145  0.1277 -0.1146
 7060W        W23534  13.291   3.739  16.181  0.2726  0.1497  0.0965
 7061W        W23535  11.680  12.451  11.556 -0.1695  0.0713  0.1756
 7062W        W23536  15.140   6.568  12.424  0.1768  0.1294  0.0057
 7063W        W23537  11.944   1.225  12.151 -0.2078 -0.0303  0.1376
 7064W        W23538   9.977  10.751  14.254 -0.3091  0.3697  0.4209
 7065W        W23539   2.817  18.099  11.690  0.0855 -0.1435 -0.2160
 7066W        W23540  14.683  12.511  16.225  0.1561 -0.1790 -0.0345
 7067W        W23541   3.077   8.058   1.872 -0.2096  0.1034 -0.1884
 7068W        W23542  15.623  14.940   4.986 -0.1850  0.1157 -0.0160
 7069W        W23543  10.724  16.976   1.827 -0.0682 -0.1281  0.0028
 7070W        W23544   0.972   8.322   0.025 -0.2877 -0.0775  0.2706
 7071W        W23545   3.654   6.782  14.880  0.0482  0.3372  0.1732
 7072W        W23546   4.793   7.344  12.811 -0.1879 -0.0324  0.0722
 7073W        W23547  16.453  10.114  14.560 -0.2121  0.0439 -0.1939
 7074W        W23548  11.448   1.520   2.153  0.2088 -0.2266 -0.1946
 7075W        W23549   8.289   9.886  10.619  0.0094  0.4791  0.3559
 7076W        W23550   8.337  17.308   4.520  0.1616 -0.1255  0.0633
 7077W        W23551  16.695   8.992  14.505  0.0526  0.0991  0.1869
 7078W        W23552  17.950   8.441   2.780  0.0599 -0.3138  0.0487
 7079W        W23553  12.656  14.857  14.435 -0.0222 -0.3491 -0.0622
 7080W        W23554   2.354  12.573   1.100  0.1299 -0.4201 -0.1828
 7081W        W23555   5.845   6.284  12.830 -0.1081  0.1130 -0.2122
 7082W        W23556  14.196   6.995   0.100 -0.0061 -0.0454  0.2639
 7083W        W23557  11.284  13.269  15.574 -0.1761 -0.0306 -0.0902
 7084W        W23558  11.662  14.884   4.707 -0.2034  0.3862 -0.2737
 7085W        W23559   6.910  17.463   0.616  0.4021 -0.0536 -0.1408
 7086W        W23560  16.170   4.399   3.922 -0.0637 -0.2157  0.1057
 7087W        W23561  14.535   9.614   0.092 -0.0689  0.0858  0.1248
 7088W        W23562  15.366  16.268   3.610 -0.0295 -0.2323 -0.0295
 7089W        W23563  12.389  15.114  12.693 -0.0363 -0.0581 -0.3997
 7090W        W23564  17.388   3.916   0.785 -0.2771  0.0941 -0.2595
 7091W        W23565  14.040   9.894   5.441 -0.1214 -0.1637  0.0596
 7092W        W23566   8.103   8.003  12.869  0.0502  0.3224 -0.0992
 7093W        W23567  17.823   1.497  14.983 -0.0259  0.3553  0.3176
 7094W        W23568   3.664   0.453  12.717  0.0710  0.2533  0.2656
 7095W        W23569  12.775  13.441  16.158 -0.1892 -0.2788  0.0912
 7096W        W23570   7.151   2.626  12.307 -0.2637 -0.0572  0.0894
 7097W        W23571   2.620  11.013  12.313 -0.0758  0.2135 -0.1423
 7098W        W23572   8.191   6.929   3.874  0.1918  0.2091 -0.1174
 7099W        W23573  16.112   7.064  11.351  0.0086 -0.1347 -0.0784
 7100W        W23574   9.698   1.357  10.185 -0.3203 -0.3019 -0.1633
 7101W        W23575  18.091  16.455  15.844 -0.0358 -0.2210  0.3139
 7102W        W23576   4.420  10.752  13.748  0.0572 -0.0296  0.0290
 7103W        W23577   2.532  17.460   3.334 -0.4406  0.0004  0.1474
 7104W        W23578   5.229  15.412   2.157 -0.0277 -0.0548 -0.1019
 7105W        W23579   2.822   1.221   1.564  0.2294  0.0441 -0.2650
 7106W        W23580   8.030   3.100   0.617  0.0173  0.0342 -0.2840
 7107W        W23581   1.812   6.877  15.437 -0.0675 -0.0667  0.1185
 7108W        W23582  14.378   0.353   2.816 -0.3101  0.2718 -0.0450
 7109W        W23583   6.834  13.888   0.983 -0.1956  0.1818 -0.1401
 7110W        W23584  17.990   5.526  15.540 -0.2380 -0.0613 -0.2482
 7111W        W23585  16.312  17.097   0.249 -0.2165 -0.3286  0.0246
 7112W        W23586  16.928  17.109   3.808 -0.0305 -0.1461  0.1171
 7113W        W23587   3.238   6.030  13.877  0.1697  0.1351 -0.0009
 7114W        W23588   7.968  16.945  13.078 -0.6310  0.2587  0.1652
 7115W        W23589   6.152  16.868  10.987 -0.1652  0.0098  0.1908
 7116W        W23590  12.502   5.981   1.522  0.3419 -0.1434  0.1601
 7117W        W23591   4.084   7.922   0.700 -0.0258  0.0064  0.1717
 7118W        W23592   5.695  12.803   5.873 -0.0262 -0.2150 -0.5042
 7119W        W23593  13.171   9.857   2.387 -0.1394  0.1366 -0.1281
 7120W        W23594   7.338   2.401   0.428  0.0253  0.0262  0.2048
 7121W        W23595  15.677   6.114   5.498 -0.0656 -0.2598  0.1883
 7122W        W23596   9.118  15.535   0.310  0.2324 -0.2240  0.4196
 7123W        W23597   7.968   0.350   4.225  0.1015  0.2620 -0.0904
 7124W        W23598   2.725   3.433  11.247  0.1288 -0.2066 -0.1161
 7125W        W23599   9.243  16.921   1.935 -0.0796  0.2882 -0.1856
 7126W        W23600   8.242   0.845   0.355 -0.1187 -0.1036  0.1371
 7127W        W23601   7.102  17.157  14.732  0.0512 -0.2555 -0.1642
 7128W        W23602   9.338  11.674   2.052  0.0261 -0.1969  0.1927
 7129W        W23603  12.246  13.461   2.263 -0.2758  0.1817  0.4040
 7130W        W23604  15.726  13.576   0.797  0.0170 -0.1367  0.3212
 7131W        W23605  18.251  14.773  14.080 -0.0602 -0.1515 -0.1274
 7132W        W23606   5.298   0.941   2.220  0.1808  0.0994 -0.0261
 7133W        W23607   7.287   4.453  12.598  0.1554 -0.1999  0.0888
 7134W        W23608   9.157  13.303   5.345 -0.1560  0.0806 -0.1656
 7135W        W23609  11.127  13.680  12.123  0.3538  0.1007  0.3839
 7136W        W23610   9.998   8.350  13.746 -0.2081 -0.2686 -0.1917
 7137W        W23611  10.401   7.488  14.275 -0.2733  0.0008 -0.0064
 7138W        W23612  13.683   9.152  16.024  0.0357 -0.1702 -0.1309
 7139W        W23613   0.374  13.358   5.811  0.0036 -0.1441  0.0605
 7140W        W23614  12.338   3.656  11.138 -0.0352 -0.0418 -0.0048
 7141W        W23615   7.342  15.797  12.826 -0.0069  0.1889 -0.0836
 7142W        W23616  10.600   7.727  15.062  0.3112 -0.2498  0.0196
 7143W        W23617   1.748   9.722   1.105  0.0321  0.0047  0.1969
 7144W        W23618   8.493  11.426   5.363  0.1189  0.0923  0.2351
 7145W        W23619  16.391   6.455   1.102 -0.2344 -0.1405 -0.0596
 7146W        W23620  17.415   9.739  16.042 -0.0271 -0.0722 -0.1794
 7147W        W23621   9.628   9.054   5.439 -0.0731 -0.0211 -0.0214
 7148W        W23622  16.076   7.088  15.571  0.2143 -0.5949 -0.0395
 7149W        W23623   9.174  16.062  14.140  0.0644 -0.1790 -0.1012
 7150W        W23624  13.681   3.128  13.185  0.3281  0.0758  0.1005
 7151W        W23625   0.749  15.025   0.577  0.3490  0.0704  0.0484
 7152W        W23626   8.047  18.020  12.080 -0.0857 -0.2174  0.1591
 7153W        W23627   7.913   9.608   4.358 -0.1482  0.4485  0.0083
 7154W        W23628  10.904   9.215  11.886  0.0721 -0.0149  0.3728
 7155W        W23629  12.377  16.663   0.394 -0.1301 -0.0064 -0.2770
 7156W        W23630   8.441  13.713   3.413  0.1944  0.1938 -0.1301
 7157W        W23631   9.205  17.057   0.427 -0.2687 -0.1448 -0.2508
 7158W        W23632  17.765   7.544  15.249  0.1796 -0.0513 -0.0917
 7159W        W23633  11.116  10.292   5.150 -0.2075 -0.3326 -0.1195
 7160W        W23634   9.696   4.333  15.919 -0.2877 -0.0158  0.0558
 7161W        W23635  17.059   5.027   4.320  0.0418  0.0016 -0.1301
 7162W        W23636  13.595   1.571  16.274  0.0309 -0.1754 -0.0092
 7163W        W23637   0.708  16.448  15.996 -0.0504  0.1934  0.0957
 7164W        W23638  13.797  14.373   0.621  0.0783 -0.3651  0.1142
 7165W        W23639   6.235  16.623  16.170 -0.1137 -0.0844  0.2342
 7166W        W23640   5.197   5.340  13.459  0.0279  0.0134 -0.2217
 7167W        W23641   1.522  15.698  13.951  0.1358 -0.0879 -0.0401
 7168W        W23642   1.713  16.633  15.922 -0.1798  0.3302 -0.2282
 7169W        W23643  15.732   1.981  11.546 -0.1115 -0.1215  0.2498
 7170W        W23644  13.992   5.209  14.279  0.1096  0.0412  0.2285
 7171W        W23645   4.716   2.845   2.245 -0.1294  0.1871 -0.0627
 7172W        W23646  13.150   4.654  15.464 -0.1387  0.0336 -0.1163
 7173W        W23647   6.348   1.996   2.245 -0.1221  0.0405 -0.2891
 7174W        W23648   9.529   0.987  12.705  0.3781 -0.0009  0.2123
 7175W        W23649  11.014   2.563   1.424  0.0219 -0.2691  0.0865
 7176W        W23650  12.439  14.732   0.972  0.3758 -0.1163  0.1199
 7177W        W23651   6.824   1.145  11.720 -0.2803 -0.1989 -0.1178
 7178W        W23652   8.612   1.071   4.037 -0.2317  0.0813  0.1095
 7179W        W23653  11.858  14.625   2.391 -0.1693  0.2259 -0.1251
 7180W        W23654  13.595  17.144  12.169 -0.1247 -0.1721 -0.0299
 7181W        W23655   8.946   3.197  12.857 -0.1050  0.2122 -0.0213
 7182W        W23656  13.223   8.965  12.714  0.2936  0.2520 -0.2372
 7183W        W23657   7.246   7.143   3.469  0.1025  0.3651  0.1862
 7184W        W23658  11.192   1.234  11.411 -0.4498 -0.1981 -0.0580
 7185W        W23659  16.498  17.929  15.228 -0.2599 -0.0176  0.1120
 7186W        W23660   9.377   0.221  13.694 -0.1234 -0.0197 -0.1726
 7187W        W23661   5.144   2.515   0.155  0.2828 -0.1834  0.5025
 7188W        W23662   1.611  16.236  13.984  0.2705  0.1283  0.1894
 7189W        W23663   9.601   9.259  15.702  0.0042 -0.0834 -0.0082
 7190W        W23664   8.882   5.139   4.035 -0.0848  0.3171 -0.1054
 7191W        W23665   2.842   6.324  15.974 -0.0419  0.2189  0.0052
 7192W        W23666   7.533   8.567  13.427  0.2940  0.1499  0.0414
 7193W        W23667  15.660  14.156   4.639 -0.1419 -0.0966 -0.0738
 7194W        W23668   4.230  10.369  13.335  0.0046  0.0498 -0.2307
 7195W        W23669   2.987   1.164  11.303  0.1131  0.0482 -0.1391
 7196W        W23670   0.761   6.236   4.268  0.0418 -0.2366 -0.1908
 7197W        W23671  13.218   5.435   2.859 -0.2462  0.0535  0.0958
 7198W        W23672  12.737   7.972   5.315 -0.0046 -0.1494 -0.0925
 7199W        W23673  15.372  13.476   3.775 -0.0941 -0.0958  0.2438
 7200W        W23674   7.764  15.509   3.188  0.0534  0.1379 -0.0389
 7201W        W23675   5.703   4.587   1.363  0.1703  0.1117  0.1202
 7202W        W23676  14.309  17.294   2.787  0.3331  0.0939 -0.2375
 7203W        W23677   5.710  12.029   5.272 -0.1458  0.1054  0.0255
 7204W        W23678   5.452  13.186   0.004  0.1768 -0.1574 -0.3045
 7205W        W23679  15.610  10.080   3.479 -0.4165  0.0983 -0.3499
 7206W        W23680  11.463  16.021  15.932  0.1152  0.4155 -0.0333
 7207W        W23681   6.301   2.553  15.140  0.0538  0.2165 -0.2255
 7208W        W23682  18.092  17.358   1.820  0.1446 -0.1554  0.1607
 7209W        W23683   3.499   6.883  13.939  0.0800  0.1341 -0.1849
 7210W        W23684   2.657  10.110   4.710  0.0764  0.0203  0.0217
 7211W        W23685   7.152  13.593   1.258 -0.1786  0.0412 -0.0323
 7212W        W23686   5.979   2.362  12.184 -0.1560 -0.3057  0.1134
 7213W        W23687   9.747  15.038   5.430 -0.0474 -0.1262 -0.1389
 7214W        W23688   8.653   8.935  12.758 -0.0343  0.0587 -0.1906
 7215W        W23689   6.480   8.143  13.023 -0.1389  0.2197 -0.3802
 7216W        W23690   4.232   4.707  12.927  0.1498 -0.0297 -0.0532
 7217W        W23691  10.702   2.118  11.413  0.1473  0.1381  0.1402
 7218W        W23692   7.142  10.031   1.520 -0.0017 -0.0408 -0.1579
 7219W        W23693   8.909  14.208   6.466 -0.2064  0.2413  0.0701
 7220W        W23694   2.182   4.657   3.908 -0.2346  0.1750 -0.0039
 7221W        W23695   3.596   2.004  10.218 -0.1496 -0.0252 -0.3238
 7222W        W23696  16.919   7.153   2.311  0.0811  0.0601  0.1519
 7223W        W23697   2.941  11.834  11.765 -0.2536 -0.0081  0.0176
 7224W        W23698   9.006   8.925   3.381  0.1075  0.0754  0.0032
 7225W        W23699  17.501   8.852   0.751  0.2343  0.0530 -0.0446
 7226W        W23700  13.691   1.751   1.503 -0.0484  0.1549 -0.0408
 7227W        W23701   5.357   2.659   4.558 -0.1507  0.1161 -0.2194
 7228W        W23702   2.178   0.759  14.977 -0.1429  0.0956  0.1141
 7229W        W23703  14.742  14.030   0.097 -0.0138  0.0994  0.0291
 7230W        W23704  16.699  10.992   2.122  0.1674  0.0327 -0.0855
 7231W        W23705   1.516  17.139  15.238 -0.1788  0.1760 -0.2944
 7232W        W23706  13.704  12.604  10.595  0.0693 -0.4502  0.3959
 7233W        W23707  11.483   4.533  13.548 -0.0617  0.1073  0.3145
 7234W        W23708  10.858   0.841  12.945 -0.1726  0.1248  0.2501
 7235W        W23709  13.002  10.460  14.032 -0.1703 -0.0376 -0.7099
 7236W        W23710   7.695   2.555   0.110  0.0975 -0.1788  0.1307
 7237W        W23711  13.953   6.833  14.689 -0.1104  0.1043 -0.2796
 7238W        W23712   0.078   4.319  16.015 -0.1373 -0.3132 -0.1783
 7239W        W23713   2.399   3.020   4.237 -0.0272  0.2813  0.0007
 7240W        W23714   4.014   0.423  11.448  0.1069  0.3576  0.0660
 7241W        W23715  17.919   1.389   1.272  0.1005 -0.0496 -0.0873
 7242W        W23716   6.564  11.850   1.478 -0.1041  0.0693  0.1425
 7243W        W23717   4.056  10.178  16.165  0.0899 -0.1935  0.1310
 7244W        W23718   5.564   0.814  11.819 -0.2177 -0.1132 -0.1801
 7245W        W23719   0.283  11.775  15.464 -0.0658  0.1890 -0.1190
 7246W        W23720   4.563  13.415  12.322  0.0371 -0.0769 -0.0126
 7247W        W23721   4.339  11.879   4.913  0.1455 -0.0753  0.1514
 7248W        W23722   1.687   5.357  13.822 -0.0269  0.1055 -0.3746
 7249W        W23723   5.891   8.412  11.702  0.0611  0.2158 -0.1131
 7250W        W23724  17.405  10.366   1.493  0.3226  0.0238  0.0377
 7251W        W23725   6.107  12.462   4.252  0.0208  0.0651 -0.2005
 7252W        W23726   1.898   9.259  11.276 -0.0846 -0.0803 -0.0500
 7253W        W23727  13.328   0.931   3.662  0.3668  0.1820  0.2479
 7254W        W23728  12.202  13.197   3.822  0.0497 -0.0590 -0.2956
 7255W        W23729   2.291   5.402  12.476  0.1116 -0.2311  0.1400
 7256W        W23730  12.789   6.855  14.410 -0.1185  0.0642 -0.0773
 7257W        W23731   9.909  10.156   4.723 -0.2227 -0.2174  0.0290
 7258W        W23732   9.390  13.789  11.576 -0.1248 -0.0141  0.1034
 7259W        W23733  11.810  11.708   2.670 -0.1171 -0.3872  0.2923
 7260W        W23734  14.451   7.765   2.635 -0.0735 -0.2751  0.0828
 7261W        W23735  12.904   7.153   6.103 -0.5558 -0.1846  0.2315
 7262W        W23736   9.678   6.296   2.560  0.0151 -0.2234 -0.0975
 7263W        W23737  12.833  11.068   1.072  0.1128 -0.2107 -0.0486
 7264W        W23738  15.084  17.284  13.175 -0.2651 -0.2035  0.0117
 7265W        W23739  12.364  14.913  15.364 -0.0299  0.1297 -0.0462
 7266W        W23740   6.790   2.746  13.874  0.0555  0.0346 -0.0915
 7267W        W23741  12.580  10.603   5.439  0.0600 -0.3385 -0.0407
 7268W        W23742  13.581   8.193   2.753 -0.1581 -0.2925  0.0544
 7269W        W23743   3.568  12.442   4.469  0.2339 -0.1462 -0.1696
 7270W        W23744  16.047   0.295  11.504 -0.0958  0.4641  0.0232
 7271W        W23745  11.031  10.998  12.414 -0.1597 -0.0107  0.1206
 7272W        W23746   6.123  15.638  14.087 -0.1102  0.0717  0.0094
 7273W        W23747   6.503   8.546   2.214 -0.0250  0.1575  0.1176
 7274W        W23748   4.954   1.302   2.401 -0.2661 -0.1718  0.2337
 7275W        W23749   7.754   9.902  13.223  0.2318 -0.2699  0.2065
 7276W        W23750  15.525   9.995  13.410 -0.1926 -0.1017  0.1554
 7277W        W23751   3.469   5.197  13.248 -0.1153 -0.3200  0.1588
 7278W        W23752   6.432  17.495   0.454 -0.1137 -0.1095 -0.0581
 7279W        W23753   8.115   1.720  14.718  0.1519 -0.1428  0.5509
 7280W        W23754   0.033  11.164   3.865 -0.1881  0.1360 -0.2461
 7281W        W23755   4.587  10.725  13.290  0.1401  0.0245 -0.1100
 7282W        W23756   3.407   2.809   2.855  0.1257 -0.0951  0.2047
 7283W        W23757  12.727  13.926   3.589 -0.2287  0.0396  0.0956
 7284W        W23758  10.852  10.153  15.106  0.1828  0.0705  0.0412
 7285W        W23759   9.196  17.394  12.876 -0.0372  0.4771 -0.2654
 7286W        W23760   6.363  11.308  15.519 -0.1098  0.0950  0.1473
 7287W        W23761   5.255  17.916   2.708  0.1941 -0.0545 -0.0208
 7288W        W23762   0.870   9.044  13.843 -0.0928  0.2934  0.2784
 7289W        W23763  13.567  15.206   2.075 -0.0429  0.1055  0.0470
 7290W        W23764  14.318   4.318   1.464  0.3197 -0.0695 -0.2800
 7291W        W23765  15.337  11.817   5.031 -0.1512 -0.1196  0.0672
 7292W        W23766  17.567  14.643   4.114 -0.4100 -0.2794 -0.1114
 7293W        W23767   8.059  11.452  11.664 -0.1343  0.0578 -0.1921
 7294W        W23768  16.297   4.834  14.565  0.2349 -0.2210  0.1389
 7295W        W23769  12.461  17.554   2.618 -0.0995  0.0325  0.0175
 7296W        W23770   6.695   9.604  11.154 -0.1786 -0.2348 -0.1175
 7297W        W23771  15.668   4.587  11.644 -0.1091  0.1049  0.3100
 7298W        W23772   7.682   9.573   1.771  0.2285  0.1011  0.0785
 7299W        W23773   0.012   2.427  13.351 -0.3324 -0.0600  0.0507
 7300W        W23774  10.641   1.831   2.286  0.0153  0.2346 -0.0184
 7301W        W23775   9.182  13.956  15.905 -0.0565  0.1216 -0.2123
 7302W        W23776   2.945  13.855   5.098 -0.0680  0.1653 -0.1529
 7303W        W23777  16.241  15.467   4.317  0.1481  0.1602 -0.1107
 7304W        W23778  17.915  17.677  14.549  0.2301 -0.1535  0.0945
 7305W        W23779  14.922   3.028  14.146 -0.2263  0.2883  0.0571
 7306W        W23780  13.237   8.455  14.553  0.0561  0.0540 -0.2311
 7307W        W23781   0.276   4.894   3.296 -0.0670  0.0021 -0.2004
 7308W        W23782  17.796   5.464   4.726 -0.2166 -0.1904 -0.3114
 7309W        W23783   7.268  14.503   3.901 -0.3781 -0.0297  0.1659
 7310W        W23784   1.348   9.089  13.664 -0.1748  0.0271  0.1321
 7311W        W23785   4.839  15.921   3.234  0.3494 -0.0062 -0.1931
 7312W        W23786   2.083   9.091  15.045 -0.2588  0.0477  0.0765
 7313W        W23787   3.460  17.478   4.822 -0.1243  0.0412  0.1804
 7314W        W23788  17.337  12.185  16.127 -0.1534 -0.1215  0.2763
 7315W        W23789   7.455   7.358   1.212 -0.1132  0.1183  0.1223
 7316W        W23790  16.454   4.786   3.684  0.3731 -0.1574  0.1218
 7317W        W23791   4.903   2.979   0.252  0.2147  0.1628  0.2101
 7318W        W23792   0.927  13.862   5.121 -0.2584  0.2108 -0.1387
 7319W        W23793   5.821   7.542   2.723 -0.0913 -0.2879  0.2336
 7320W        W23794  12.798   3.812  11.307  0.1389  0.0255  0.0601
 7321W        W23795   0.443   2.545   0.112  0.1077 -0.2309 -0.1919
 7322W        W23796  13.337  14.120   1.219 -0.1104  0.1529 -0.1416
 7323W        W23797   5.173   0.816  14.737 -0.0780  0.1538  0.2553
 7324W        W23798  17.395   9.699   5.161  0.0749 -0.0231 -0.1828
 7325W        W23799  14.735   2.627  14.368 -0.1648 -0.2390 -0.0780
 7326W        W23800   0.107   6.769   0.041  0.3313 -0.0468  0.0537
 7327W        W23801   1.516   9.325  12.406 -0.0661  0.1644 -0.2025
 7328W        W23802   5.032   8.429  13.564 -0.1466  0.2012 -0.2603
 7329W        W23803  12.050   1.583   4.661 -0.0676  0.2682  0.1522
 7330W        W23804  15.415   4.859  12.056 -0.1428  0.1539 -0.0368
 7331W        W23805   3.842   7.268  15.597 -0.3048 -0.0247  0.0268
 7332W        W23806   8.429  17.794  12.761 -0.0093 -0.0198  0.0750
 7333W        W23807   9.202   4.847   0.578 -0.1865 -0.0181  0.0092
 7334W        W23808  10.711  10.044  12.043 -0.0533  0.2196  0.0733
 7335W        W23809   8.807  16.346  14.370 -0.1523  0.1202 -0.0842
 7336W        W23810  17.223  14.685   2.568 -0.2079  0.0455 -0.3694
 7337W        W23811   5.459   5.323   4.216  0.1021  0.1337 -0.3792
 7338W        W23812  10.118  11.097  12.918  0.2001  0.0105  0.1822
 7339W        W23813  15.603  10.349   1.459  0.0618 -0.3142 -0.1569
 7340W        W23814   4.369  12.593  12.520  0.2747 -0.1578 -0.3005
 7341W        W23815   9.638  10.909  12.873  0.0492  0.0104 -0.2849
 7342W        W23816   5.682   5.541  15.598 -0.1080 -0.2440  0.1264
 7343W        W23817  13.850  14.011   4.397  0.1876  0.1684 -0.1640
 7344W        W23818   4.890   7.729   5.359 -0.0945 -0.0052  0.0535
 7345W        W23819  12.079  11.138  14.511  0.1517 -0.1112 -0.0248
 7346W        W23820   7.485  16.754  11.673  0.0827 -0.1407  0.0509
 7347W        W23821  17.360  17.267   4.095 -0.0136 -0.4797  0.1471
 7348W        W23822   2.390   3.532  14.340 -0.4770 -0.1541 -0.2349
 7349W        W23823  15.582  11.707  14.192  0.2742 -0.0356 -0.0043
 7350W        W23824  13.524  12.349   3.719  0.0039 -0.1425  0.1116
 7351W        W23825   3.254   9.802   4.110  0.2809  0.0333  0.0532
 7352W        W23826  15.072   2.855  15.864  0.0777 -0.3454  0.0987
 7353W        W23827   7.317  12.095  14.334  0.0908  0.2234  0.3387
 7354W        W23828   7.960  10.584   4.334  0.4582 -0.1115  0.4099
 7355W        W23829   3.329   4.394   1.386 -0.1129  0.0974  0.1102
 7356W        W23830  16.243  16.427   5.853  0.1489  0.0960  0.0475
 7357W        W23831   5.833   4.337  14.230 -0.1176  0.1342 -0.0568
 7358W        W23832  10.428  17.245  15.187  0.0059  0.0282 -0.0886
 7359W        W23833  10.182   0.231  12.911  0.0340  0.1816 -0.3364
 7360W        W23834   2.470  13.195   3.267  0.0623 -0.2373  0.1169
 7361W        W23835   1.164  11.789   1.965 -0.0203  0.1450 -0.2196
 7362W        W23836   9.328  15.212  15.844 -0.0088  0.0034  0.0837
 7363W        W23837   3.008   1.554   1.911  0.0067 -0.0029  0.1875
 7364W        W23838   9.719  17.594   5.429  0.0104 -0.2033 -0.0751
 7365W        W23839  15.590   1.832  14.501 -0.1200 -0.0572  0.1713
 7366W        W23840  12.160  13.644  13.077  0.1641  0.2972  0.2877
 7367W        W23841   9.004   0.609  11.906 -0.0761  0.2196  0.1582
 7368W        W23842   9.581  13.102   1.249 -0.1184 -0.0694 -0.1020
 7369W        W23843  15.668  11.802  11.099  0.0919  0.3717  0.2086
 7370W        W23844   7.498   8.502   1.963 -0.1086  0.1792 -0.0095
 7371W        W23845   6.016  11.757   2.040  0.1243 -0.2622  0.5410
 7372W        W23846   5.566   4.587   2.542  0.1088 -0.0043  0.1166
 7373W        W23847   2.022   9.620   5.069  0.1392  0.1438 -0.1014
 7374W        W23848  11.470   2.235  10.249  0.1317 -0.2102  0.0499
 7375W        W23849   3.872   9.398   1.913  0.0021 -0.2769 -0.2095
 7376W        W23850   9.222   6.212  15.735 -0.2318 -0.2429 -0.1648
 7377W        W23851   4.809   7.903  12.881  0.0860  0.2671  0.3674
 7378W        W23852  10.146   8.376  11.636  0.0498  0.3307  0.2930
 7379W        W23853  12.749   3.322   0.606 -0.1025  0.0337  0.0767
 7380W        W23854  14.048  15.539  15.029 -0.2201  0.2581  0.0325
 7381W        W23855   4.498   8.630   6.485  0.3442 -0.1161 -0.0141
 7382W        W23856   4.880  14.073   4.406  0.0461 -0.1498  0.5570
 7383W        W23857   2.380   9.246  15.924  0.2760 -0.1380 -0.0485
 7384W        W23858   6.860  18.172   3.367  0.2258 -0.0107 -0.2610
 7385W        W23859   6.256  15.510  16.179  0.4801  0.0897  0.3189
 7386W        W23860  12.044  11.336  11.393  0.1733 -0.0705  0.1104
 7387W        W23861  12.700   5.618   5.314 -0.1066  0.2923 -0.3519
 7388W        W23862  16.118   4.734  11.635  0.0366 -0.0379  0.1199
 7389W        W23863   1.672   4.776   4.059  0.0371 -0.1264 -0.3109
 7390W        W23864   1.552   2.840   0.057 -0.2593  0.0178 -0.2353
 7391W        W23865   6.300   1.784   3.355  0.4350 -0.0222  0.2017
 7392W        W23866   4.545   8.979   5.767 -0.0864 -0.2189  0.1617
 7393W        W23867  12.913  14.781   2.444  0.0444 -0.0371 -0.2005
 7394W        W23868   2.937   7.892  15.280 -0.0067  0.1611 -0.1703
 7395W        W23869  16.943   6.502   2.903 -0.0985  0.2320 -0.0991
 7396W        W23870  17.815   1.776   0.291  0.0847 -0.1227 -0.0468
 7397W        W23871   8.079   8.980   2.513 -0.0545  0.1852 -0.4121
 7398W        W23872   7.452  12.741  11.382 -0.1148 -0.0630  0.2164
 7399W        W23873  17.786   6.587  14.091 -0.0308 -0.0224 -0.1575
 7400W        W23874   3.296   8.432  12.719  0.0164 -0.0242 -0.1142
 7401W        W23875  16.504   2.169  16.302 -0.0252  0.0948  0.1750
 7402W        W23876   3.552  13.902   2.172  0.1211 -0.0025  0.0959
 7403W        W23877  15.837   5.764   4.643  0.2245  0.1630 -0.0465
 7404W        W23878  14.023  15.562   4.683  0.3002 -0.1319 -0.2712
 7405W        W23879   9.359   2.169  11.190 -0.0181  0.1693  0.3306
 7406W        W23880   6.484   1.194  14.912  0.3516 -0.0293  0.2123
 7407W        W23881   5.389  14.438   1.069 -0.0579  0.0259  0.0727
 7408W        W23882   5.066   1.799   3.618 -0.0951 -0.0397  0.0843
 7409W        W23883  10.770   2.543   0.492 -0.0183  0.4599 -0.0751
 7410W        W23884  10.097  10.750  13.267  0.3142 -0.0834 -0.0148
 7411W        W23885   7.135  18.245   0.282  0.0633  0.0022 -0.0894
 7412W        W23886   8.807  16.226  15.793  0.0816  0.1623  0.1738
 7413W        W23887  12.975   8.296  15.581 -0.0736  0.2296  0.1450
 7414W        W23888  15.706   4.724  13.845  0.1209 -0.2196  0.2790
 7415W        W23889  15.505  16.624   3.198  0.0790  0.3066 -0.3025
 7416W        W23890   7.255  13.149   1.006  0.0447 -0.0979 -0.1630
 7417W        W23891   1.182  16.567   1.131  0.5228 -0.3445  0.0347
 7418W        W23892  16.305   3.085   5.685 -0.1551  0.1015  0.2204
 7419W        W23893  13.147   3.597   5.006  0.5655  0.0139 -0.2022
 7420W        W23894   5.897   9.739   2.419 -0.1791 -0.1969 -0.1894
 7421W        W23895   3.913  17.499   0.713 -0.2706 -0.1091 -0.0271
 7422W        W23896   2.975  13.040   2.323 -0.0186  0.1370 -0.1621
 7423W        W23897  16.852   3.439  13.378  0.2619 -0.1139  0.0448
 7424W        W23898  15.609   4.396  13.427 -0.4076  0.0568  0.1458
 7425W        W23899   7.018   0.994  13.657 -0.0285  0.0585 -0.1872
 7426W        W23900   1.306  13.458  14.235 -0.3045  0.1914  0.2797
 7427W        W23901  15.782  12.504   5.116 -0.0825 -0.0444 -0.1186
 7428W        W23902   2.576  11.875  15.210  0.1179 -0.2306 -0.3163
 7429W        W23903   6.888   2.246   0.267  0.3553  0.5261 -0.0179
 7430W        W23904  12.680   8.068   3.742 -0.0768 -0.1509 -0.0847
 7431W        W23905  15.260   7.145  14.486  0.0717  0.1840  0.1050
 7432W        W23906   3.825   9.519  16.049  0.2141 -0.2395  0.2110
 7433W        W23907   3.173   2.101  15.529 -0.1032  0.3862  0.0553
 7434W        W23908  17.000  10.391   3.230 -0.2575  0.0917  0.2125
 7435W        W23909  15.378  17.572   0.416 -0.2004 -0.1141  0.1605
 7436W        W23910   8.518   9.629  14.488  0.0561 -0.0334 -0.0891
 7437W        W23911   7.702  12.387  15.434 -0.0289 -0.1208  0.0721
 7438W        W23912  10.243  12.848   3.220  0.1457 -0.0476  0.1654
 7439W        W23913   1.928  17.944   4.762 -0.1199  0.0991  0.0838
 7440W        W23914  12.722   6.941  12.559  0.1058 -0.0156 -0.2579
 7441W        W23915   4.421  15.632  14.722  0.0978  0.3981  0.0453
 7442W        W23916  11.588  13.925   2.776 -0.1663 -0.0925  0.2391
 7443W        W23917   9.724   2.832   0.647 -0.4156 -0.2349  0.0391
 7444W        W23918   3.240   5.277  15.461 -0.2165  0.0090 -0.0609
 7445W        W23919  17.389   5.781   1.979  0.3199  0.0292 -0.1670
 7446W        W23920   9.411   0.539   5.167 -0.0018  0.1408 -0.2890
 7447W        W23921  16.392  16.833  12.107  0.2029 -0.2411  0.0241
 7448W        W23922  11.029   8.427   1.059  0.0670  0.0573 -0.3958
 7449W        W23923   6.753  13.050  12.012  0.2272 -0.0098  0.1619
 7450W        W23924  14.738   5.293   0.324 -0.1318  0.2377 -0.1646
 7451W        W23925   3.580   5.290   5.422 -0.0393  0.1161 -0.1326
 7452W        W23926  14.448   6.983  14.866 -0.0864  0.2521  0.3495
 7453W        W23927   9.534  11.519   2.521 -0.1674  0.1115  0.3394
 7454W        W23928  10.942   9.030  12.907  0.0536  0.0357  0.1916
 7455W        W23929   7.771   1.448  14.546  0.2440  0.0678 -0.0195
 7456W        W23930   8.275   5.977   0.153  0.3254 -0.0031 -0.1198
 7457W        W23931   1.543   3.595  14.102  0.2513  0.2470 -0.1189
 7458W        W23932  16.912  10.754  15.488  0.1732  0.1047 -0.0728
 7459W        W23933   6.735  12.811   4.665  0.1248 -0.2827  0.4087
 7460W        W23934  18.220  10.954  11.284 -0.4587  0.1098  0.1632
 7461W        W23935   7.612   4.898   3.547  0.0810 -0.0544  0.1737
 7462W        W23936  11.434   1.360   4.044  0.2243  0.2978  0.0712
 7463W        W23937   8.248  10.610   0.427 -0.1708 -0.4028 -0.1309
 7464W        W23938   0.985  14.252  14.604 -0.1813 -0.0586  0.0320
 7465W        W23939   3.331   0.380  15.438 -0.0101 -0.0207  0.0276
 7466W        W23940   0.559  10.209  13.995  0.0662 -0.1233  0.3059
 7467W        W23941   4.551   7.925   2.423 -0.1933 -0.2226 -0.0865
 7468W        W23942  14.100  14.786  11.730  0.0064 -0.0564 -0.4050
 7469W        W23943   7.334  17.156  13.398 -0.1804 -0.1467 -0.0073
 7470W        W23944   8.435  17.879   3.753 -0.2556  0.2291  0.2561
 7471W        W23945  15.294   0.980  11.501 -0.2492 -0.1486 -0.0231
 7472W        W23946   2.774  16.389  15.750 -0.2350  0.1505 -0.0932
 7473W        W23947   1.797   7.168   5.279 -0.1134 -0.0634 -0.1798
 7474W        W23948   1.284  13.100  10.508 -0.1345 -0.1694  0.1550
 7475W        W23949  10.062  11.874   5.443  0.1512  0.0861  0.1484
 7476W        W23950  15.621   6.703  11.488  0.1013  0.1222 -0.1424
 7477W        W23951   9.324  12.571   3.633 -0.2051 -0.5186  0.1393
 7478W        W23952   4.686   3.669  10.861  0.3500 -0.3779 -0.2825
 7479W        W23953   6.898   8.965   5.731  0.1286  0.0589 -0.0613
 7480W        W23954  10.671   6.367  12.314  0.4796  0.1529 -0.0538
 7481W        W23955   4.384   5.734   1.106  0.5111  0.0386  0.1251
 7482W        W23956  14.219   1.131   4.103  0.1582  0.0360 -0.1550
 7483W        W23957   0.951  17.361   0.011 -0.1269 -0.1061 -0.0530
 7484W        W23958   2.090  13.079   1.053  0.1555 -0.1383  0.1347
 7485W        W23959  16.177   2.328  13.610 -0.1742  0.2682  0.2212
 7486W        W23960   7.101  17.923  12.325  0.1184 -0.0709  0.1304
 7487W        W23961  17.446  11.589  14.593  0.0354  0.1093 -0.1096
 7488W        W23962   2.038   0.934   0.577  0.0133  0.1790 -0.0842
 7489W        W23963   2.157   0.117  14.045  0.0027 -0.1400  0.2400
 7490W        W23964   1.087   4.160  13.647  0.0082  0.1102 -0.3416
 7491W        W23965   6.205  16.764  12.202 -0.3191 -0.0606  0.0554
 7492W        W23966  15.304   3.070  14.495 -0.0062 -0.0983  0.0258
 7493W        W23967  11.680  16.515   2.098  0.1344 -0.2319  0.0100
 7494W        W23968  17.943   0.337   3.881  0.0160  0.1573  0.3112
 7495W        W23969   8.556  11.917   0.187  0.2603 -0.0193 -0.1178
 7496W        W23970   2.928  10.103  11.519  0.0486  0.1292 -0.0350
 7497W        W23971   7.715   3.307   2.753  0.1764 -0.0890 -0.2279
 7498W        W23972   3.003   0.114  13.484 -0.1820  0.0517 -0.2511
 7499W        W23973   1.014  16.666  12.722  0.2666 -0.0029  0.2396
 7500W        W23974  12.501  10.375  11.819  0.0228 -0.0844 -0.1506
 7501W        W23975  13.851   1.652   3.438  0.1050 -0.0553 -0.0675
 7502W        W23976   2.215   5.663   5.173 -0.0540 -0.0158 -0.0195
 7503W        W23977   4.092   4.822  15.062 -0.2170 -0.2752  0.3337
 7504W        W23978   8.125   3.785  14.426  0.1496 -0.0371  0.0921
 7505W        W23979  12.947   7.735   3.436  0.3030 -0.1152  0.1222
 7506W        W23980   9.945   7.800  12.284 -0.3747  0.0800  0.0644
 7507W        W23981   3.169  12.725   4.134 -0.1967 -0.0530 -0.0562
 7508W        W23982   0.789  14.853   2.850  0.3729 -0.3085 -0.1015
 7509W        W23983  10.557   1.228   1.153  0.1838  0.1429  0.1985
 7510W        W23984   7.299   6.875   1.893  0.2161  0.0724 -0.0400
 7511W        W23985   5.541  17.525  14.202 -0.2755  0.1554 -0.2066
 7512W        W23986   5.205  12.128  12.699  0.1626  0.0479  0.2070
 7513W        W23987  16.891  12.612  12.236 -0.0468  0.0552 -0.1954
 7514W        W23988   7.429   4.790  14.370 -0.0525  0.2063  0.0906
 7515W        W23989   7.658   6.940  15.142 -0.2141  0.2191  0.0166
 7516W        W23990  14.020   4.343  11.887 -0.1899  0.1557 -0.0976
 7517W        W23991   6.825  12.547   5.086 -0.0575 -0.2851  0.3215
 7518W        W23992   6.149   7.453   1.267  0.3419 -0.0207  0.1051
 7519W        W23993   4.945  16.298   0.707 -0.0385 -0.3058 -0.1043
 7520W        W23994   2.443   0.363  15.422 -0.3048  0.0799  0.2717
 7521W        W23995  17.596  17.497  13.565  0.1444  0.0090 -0.0106
 7522W        W23996   5.783   7.256  14.680  0.2085  0.1720 -0.1140
 7523W        W23997  13.571  15.412  14.974 -0.0214  0.0385 -0.2975
 7524W        W23998   5.095  15.217  12.333  0.1145  0.4119  0.3192
 7525W        W23999   5.057   3.644  16.304  0.1815  0.1709  0.1605
 7526W        W24000   9.112  11.820  15.141 -0.0826 -0.0491  0.0674
 7527W        W24001  15.937   8.880   4.960  0.0734 -0.0379 -0.0403
 7528W        W24002  11.982  16.802   5.498 -0.0259  0.1765 -0.2303
 7529W        W24003   9.220   8.579  15.141 -0.0089  0.0920 -0.0236
 7530W        W24004   2.583  12.464  13.426  0.0245  0.0642 -0.0653
 7531W        W24005  12.544   1.985   6.140  0.0372 -0.1856 -0.1130
 7532W        W24006   7.072  16.261  12.991  0.0256  0.0806 -0.2030
 7533W        W24007   7.415   1.621   1.363  0.2446  0.1255  0.1936
 7534W        W24008   9.958  16.249   1.859  0.0629  0.1980  0.0653
 7535W        W24009   1.069   6.293   2.311  0.0763  0.0801  0.0594
 7536W        W24010   3.941  12.231   1.033  0.2888  0.1268  0.0120
 7537W        W24011   3.423  15.549   4.310  0.4964  0.3197 -0.1397
 7538W        W24012   5.761   0.759   5.850 -0.4360  0.0288 -0.0728
 7539W        W24013   2.380   2.833  12.840 -0.1719 -0.0074  0.1261
 7540W        W24014   4.802  15.440   4.036  0.0642  0.2678 -0.0356
 7541W        W24015   0.371  14.789  14.430 -0.1070  0.1060  0.0692
 7542W        W24016   9.960   2.025  15.787  0.0214 -0.0104  0.0822
 7543W        W24017   6.807   4.887  12.359 -0.1283 -0.1641 -0.0652
 7544W        W24018  12.852   1.409   3.594 -0.3066  0.0871 -0.1495
 7545W        W24019   2.439   3.642   4.723  0.1643 -0.0589 -0.3370
 7546W        W24020   0.610   2.396   4.644  0.1171 -0.0391 -0.0301
 7547W        W24021   1.947   9.858  14.597 -0.0020  0.0990 -0.1509
 7548W        W24022   2.760   4.622   4.022  0.0747 -0.2361  0.3130
 7549W        W24023   8.939  11.406   1.923 -0.0091  0.0603  0.1689
 7550W        W24024  11.136  15.278  12.949 -0.3217  0.2603 -0.0823
 7551W        W24025  14.961  13.445  14.156 -0.0523 -0.2771 -0.1284
 7552W        W24026  15.769   9.212   3.763  0.1534  0.2213 -0.1872
 7553W        W24027  16.055  10.510  15.766 -0.2899 -0.0581  0.0214
 7554W        W24028  16.650  16.413  11.870 -0.2419  0.0289  0.2914
 7555W        W24029  13.290  17.176  14.381 -0.1677 -0.0050  0.4361
 7556W        W24030   7.765  18.074   0.237  0.1954 -0.2278 -0.1797
 7557W        W24031  17.836  10.038   2.086 -0.1034  0.1624 -0.0408
 7558W        W24032  13.417  14.975  15.069 -0.4441  0.0568 -0.0459
 7559W        W24033   0.222  16.122   4.240 -0.0187  0.0287 -0.7100
 7560W        W24034  16.633  17.456   1.752 -0.1389 -0.4258 -0.0835
 7561W        W24035   7.739   0.067  11.994 -0.0631 -0.0486 -0.3091
 7562W        W24036  16.035   7.640   2.444  0.1871  0.3110  0.2362
 7563W        W24037   6.232   3.663  14.875  0.1207 -0.1325 -0.1891
 7564W        W24038  12.778  10.633  14.998  0.2130  0.1155 -0.2019
 7565W        W24039  10.479   3.286   3.463  0.0805  0.2137 -0.1136
 7566W        W24040  13.439  12.504   3.229 -0.1087  0.0658 -0.1535
 7567W        W24041   2.496  17.415  11.430  0.2020 -0.2540 -0.1882
 7568W        W24042  13.066  10.189  13.128 -0.1997  0.2309  0.1698
 7569W        W24043  12.810  13.818  13.175 -0.1104  0.1601 -0.1175
 7570W        W24044   5.521  17.365  11.917 -0.4060  0.2656 -0.2013
 7571W        W24045  14.648   3.203   2.036  0.4101 -0.0919 -0.2398
 7572W        W24046   0.557   0.310  12.209 -0.1131 -0.2053 -0.1165
 7573W        W24047  17.681  14.081  12.665 -0.1306 -0.0420 -0.3263
 7574W        W24048   7.864  15.232  15.753  0.0636  0.2368  0.1062
 7575W        W24049   7.408  15.394   4.392 -0.2634 -0.0702  0.4535
 7576W        W24050  10.290   0.851   0.896  0.3661  0.0071 -0.1609
 7577W        W24051   8.586   5.515   0.298 -0.3178  0.1168 -0.1147
 7578W        W24052   9.457   9.574   1.185  0.1925  0.0991  0.3733
 7579W        W24053  17.404   4.320  12.208 -0.1007  0.2812  0.0786
 7580W        W24054  17.983   5.282   1.403  0.0159 -0.1423 -0.1367
 7581W        W24055  16.749   9.464  12.066  0.0674 -0.1336 -0.2033
 7582W        W24056   9.723  11.447  11.760  0.0043 -0.3037  0.1185
 7583W        W24057   7.392   2.728   3.443  0.0366 -0.0057 -0.1478
 7584W        W24058   3.760  11.615  13.896 -0.2316 -0.3221 -0.0243
 7585W        W24059   0.255   8.417  16.267 -0.0629 -0.1287  0.1426
 7586W        W24060   1.945   0.190  16.122  0.3898 -0.0617  0.0005
 7587W        W24061  17.419  10.825   5.827 -0.2088  0.0291 -0.4730
 7588W        W24062  11.820   7.575   3.069 -0.0391  0.1056  0.1172
 7589W        W24063   4.188   7.820  10.485  0.1393  0.2038  0.0418
 7590W        W24064   2.994  17.089   4.069 -0.3065 -0.2843 -0.4100
 7591W        W24065  16.606   1.253   0.080  0.1978 -0.0581 -0.3193
 7592W        W24066  13.851  14.921  12.811 -0.0271 -0.1728 -0.2035
 7593W        W24067   4.138   4.055   2.751 -0.1226 -0.0300 -0.1592
 7594W        W24068   4.921  15.672  16.111 -0.1404 -0.1582 -0.0312
 7595W        W24069   1.408   6.013  14.972 -0.0450  0.0887 -0.0762
 7596W        W24070  12.511  13.280   0.829  0.0474 -0.1941  0.1234
 7597W        W24071  13.081   2.583   2.966  0.0193 -0.0490  0.3499
 7598W        W24072  11.832  14.979   3.035 -0.0965 -0.5073  0.2935
 7599W        W24073   9.508   7.838  13.139  0.0504  0.0667  0.3291
 7600W        W24074   8.571  13.102   4.109  0.0641 -0.1810  0.2273
 7601W        W24075   3.986   4.916   1.632  0.2559  0.0885 -0.0884
 7602W        W24076  10.676   1.285  12.856  0.1632  0.0320  0.2653
 7603W        W24077   8.235   2.964  15.619 -0.3229 -0.0925 -0.0510
 7604W        W24078  13.979   2.448   2.094  0.0315  0.0659 -0.0325
 7605W        W24079   8.995   9.507   1.274  0.0891  0.0194 -0.0350
 7606W        W24080  17.425  17.597   3.506  0.1456  0.1163  0.0825
 7607W        W24081   7.853  15.723   4.555 -0.0988 -0.0115 -0.2982
 7608W        W24082  15.814   0.021  11.141 -0.0566 -0.3291 -0.1077
 7609W        W24083   4.265   8.646   6.061 -0.3941 -0.0712 -0.4487
 7610W        W24084   1.457  17.673   1.734  0.0275 -0.2644 -0.1825
 7611W        W24085  11.215   8.169   4.523  0.1507 -0.0517 -0.0681
 7612W        W24086   6.399   2.668   2.779 -0.1100  0.2438 -0.2097
 7613W        W24087   2.396  11.836  13.385 -0.0089 -0.2494  0.2229
 7614W        W24088   0.542   8.877   4.458  0.1887  0.0740  0.2493
 7615W        W24089  12.438   6.092  14.208  0.0299 -0.0255  0.0355
 7616W        W24090  14.975   5.139   0.800  0.1729  0.0830 -0.1568
 7617W        W24091   6.113   5.952  15.056  0.0543 -0.2974 -0.2877
 7618W        W24092  15.525   0.165   0.293  0.2177  0.0232 -0.0142
 7619W        W24093   7.638  12.387  12.808  0.2538  0.0298 -0.1114
 7620W        W24094  11.161   9.791  12.959 -0.3184  0.0661 -0.1648
 7621W        W24095  11.403  16.618  12.616 -0.0088  0.3130 -0.2052
 7622W        W24096   5.471   8.744  15.712  0.1851  0.2575  0.1601
 7623W        W24097  17.801   5.823  12.825  0.0058 -0.0421 -0.1119
 7624W        W24098  16.927  10.782   5.066 -0.4263  0.1747  0.2139
 7625W        W24099  12.565   3.263   2.052  0.0143  0.0623  0.2631
 7626W        W24100  10.294   0.326   4.711 -0.1280  0.1333 -0.2268
 7627W        W24101  12.458   8.128  15.743 -0.1020  0.1465  0.2148
 7628W        W24102   5.867   1.577  12.046  0.0486 -0.0405  0.0578
 7629W        W24103   8.294  17.884   4.349  0.0924 -0.1780 -0.1260
 7630W        W24104   4.574   4.988   4.232  0.2747 -0.0901  0.3554
 7631W        W24105  10.248   7.443  15.902 -0.1905  0.1622  0.3573
 7632W        W24106   6.440  14.167  11.367 -0.0653  0.0139  0.0867
 7633W        W24107  13.944   8.444   2.181 -0.4194 -0.3684  0.1299
 7634W        W24108   5.798   5.417  11.526  0.3019  0.0832  0.2632
 7635W        W24109   6.504  17.882   3.629  0.1447 -0.3580 -0.1401
 7636W        W24110   1.055   6.288   4.684  0.2575 -0.1016  0.0208
 7637W        W24111   1.723   0.756   0.220  0.5035 -0.2764  0.0289
 7638W        W24112   4.638  13.460  13.880 -0.0589  0.1238 -0.3906
 7639W        W24113   2.406  14.128   5.031 -0.0279 -0.0297 -0.1890
 7640W        W24114   7.731   1.792  10.975  0.2125 -0.1850 -0.2578
 7641W        W24115   4.099   8.177   3.736 -0.0488  0.0322  0.1476
 7642W        W24116  11.099   2.412  14.307  0.2142 -0.0623  0.0920
 7643W        W24117  10.557  12.524   3.674 -0.1195  0.1484 -0.0871
 7644W        W24118  14.570  14.776  14.615  0.0065  0.3060 -0.2423
 7645W        W24119   3.283   2.871   2.396 -0.0861  0.1992 -0.0104
 7646W        W24120   8.243   6.228  13.667  0.0732  0.1530 -0.2367
 7647W        W24121  11.535   8.879   2.418 -0.2336 -0.2481  0.0602
 7648W        W24122   3.824   9.545  14.547 -0.0489  0.1796  0.3016
 7649W        W24123   8.880   1.176  14.308  0.1220 -0.0498  0.3273
 7650W        W24124  12.259  17.032   1.589  0.0026  0.1056  0.0353
 7651W        W24125   9.965   4.805   1.538 -0.0212 -0.0388 -0.0986
 7652W        W24126   1.578   7.034  12.000 -0.1585  0.0183 -0.1663
 7653W        W24127   2.378   6.692  14.839  0.0693 -0.1576 -0.0039
 7654W        W24128  10.414  16.716   1.417 -0.1248  0.2262 -0.2466
 7655W        W24129  18.138   1.234  14.001 -0.2606  0.0656 -0.1682
 7656W        W24130   6.424  12.071   1.922 -0.3136 -0.1486  0.2261
 7657W        W24131  16.174  17.717  14.602 -0.4566 -0.1230 -0.1659
 7658W        W24132   2.166  12.725  13.235  0.3230 -0.2818  0.0875
 7659W        W24133   3.952   8.398   6.345 -0.2226 -0.0461 -0.0337
 7660W        W24134  17.655   3.775   2.566  0.1336  0.1495 -0.0917
 7661W        W24135  17.849   4.435   3.490 -0.3223  0.0947  0.0927
 7662W        W24136   6.127   1.923  12.927 -0.0924 -0.1682 -0.0613
 7663W        W24137   1.454  16.869  13.419  0.2640  0.2205 -0.0375
 7664W        W24138   0.925   8.183  14.750 -0.3353  0.1430 -0.1629
 7665W        W24139   9.746  17.698   3.002  0.2747 -0.2812 -0.2355
 7666W        W24140   7.492  13.239  16.226 -0.0410  0.3319 -0.1089
 7667W        W24141   4.146   3.401   2.465  0.1439  0.0965  0.2888
 7668W        W24142   9.161   2.041   1.549 -0.1508  0.0027  0.1963
 7669W        W24143  16.839  17.644  11.868  0.0387  0.0232  0.1121
 7670W        W24144   1.890  12.557   5.580 -0.2574  0.0683  0.1901
 7671W        W24145  16.409  12.525  13.817 -0.2157 -0.0015  0.2073
 7672W        W24146  11.298   1.511   3.593 -0.0080 -0.0645  0.2110
 7673W        W24147   8.349   0.048  15.323  0.1169  0.2713 -0.0275
 7674W        W24148  14.604   8.831  12.317  0.1567  0.2499  0.0914
 7675W        W24149   4.245   1.209  12.706  0.1981  0.2493  0.1648
 7676W        W24150   6.604   7.045  15.586 -0.2831 -0.2517 -0.1333
 7677W        W24151  10.617   2.248  13.054 -0.1685 -0.3343 -0.1035
 7678W        W24152   6.383  12.534   2.934  0.0001  0.1362  0.3837
 7679W        W24153   7.736   3.548   0.220 -0.0007  0.1696 -0.3254
 7680W        W24154   2.583  11.416   3.798 -0.0856  0.0571 -0.1413
 7681W        W24155  13.493   2.576  14.610  0.1978 -0.0219  0.1198
 7682W        W24156  17.310   7.589  12.314  0.0254  0.1990 -0.1867
 7683W        W24157   6.725  15.497  11.692 -0.2277 -0.0101 -0.0366
 7684W        W24158   1.071  14.632  10.946  0.0014  0.0617  0.2823
 7685W        W24159  12.473  15.845  12.484 -0.1835  0.0659 -0.1045
 7686W        W24160   0.900  14.730   4.511  0.0662 -0.2776 -0.0466
 7687W        W24161   4.954  12.790  10.927  0.1531 -0.0444 -0.1376
 7688W        W24162   4.518   8.990   5.176  0.1723  0.0354 -0.0559
 7689W        W24163  17.247  18.079  12.782  0.0385 -0.0499 -0.1202
 7690W        W24164   6.924   7.942  15.033  0.0817 -0.1384 -0.1047
 7691W        W24165  16.782   3.606   0.099 -0.2586 -0.2174  0.0883
 7692W        W24166  10.240   3.264   2.522  0.0024 -0.3233 -0.4657
 7693W        W24167   8.914  18.024   4.586  0.0390  0.1320 -0.1089
 7694W        W24168   0.565   7.173   0.725 -0.0433 -0.3383  0.1484
 7695W        W24169   4.027   5.511   5.453  0.1962  0.0966  0.1076
 7696W        W24170  16.968  17.924  14.172  0.0692  0.4538  0.1178
 7697W        W24171   1.914   6.807   0.723 -0.0498 -0.1335  0.0897
 7698W        W24172  16.535  10.026   4.297 -0.0098 -0.0225 -0.0013
 7699W        W24173   7.427   9.721   2.936 -0.0990 -0.3474  0.0096
 7700W        W24174   2.681  15.873  12.226 -0.0719  0.2221  0.2298
 7701W        W24175  15.536  14.745  12.752  0.0302  0.0132 -0.2627
 7702W        W24176  11.327  17.479  13.063 -0.0915  0.4479 -0.3328
 7703W        W24177   6.375  10.940   6.313 -0.1876  0.0966  0.1719
 7704W        W24178  10.604  13.367  13.942 -0.1338 -0.1274  0.1739
 7705W        W24179  10.329  10.280  12.556 -0.2655  0.3959 -0.0119
 7706W        W24180   9.686  17.718   1.368 -0.0452  0.0623  0.1241
 7707W        W24181  16.571   8.853  15.861  0.2858  0.0440 -0.2577
 7708W        W24182  15.778   7.179   3.023  0.0120  0.1823  0.0521
 7709W        W24183   5.476   9.521   4.000  0.4014 -0.2302 -0.1619
 7710W        W24184   6.969  12.458  14.114 -0.2365 -0.2293  0.1138
 7711W        W24185   9.850  10.889  15.816  0.3691 -0.0776 -0.2417
 7712W        W24186   3.692  11.907   3.563  0.1263 -0.1813  0.1872
 7713W        W24187   3.184   7.196   2.996  0.1149  0.2280 -0.2073
 7714W        W24188  17.025  15.507  12.655 -0.2651  0.2380  0.0064
 7715W        W24189  13.335  17.188   1.194  0.1090 -0.1968  0.0823
 7716W        W24190   7.277   7.098   4.620 -0.2317 -0.1706 -0.2423
 7717W        W24191  16.811  10.849   1.334 -0.0042 -0.3777 -0.4479
 7718W        W24192   0.402  16.753   3.615  0.0451 -0.3520  0.0213
 7719W        W24193   6.822   6.112  13.974  0.0623 -0.1095  0.3539
 7720W        W24194  10.749  14.211  15.355  0.5002 -0.0529 -0.2169
 7721W        W24195   9.580  16.297  15.379  0.0479  0.1506  0.2631
 7722W        W24196  15.470  12.537   2.838  0.3020 -0.0046  0.0527
 7723W        W24197  11.079   3.909   5.352  0.0363 -0.0584 -0.1633
 7724W        W24198  12.288   0.299  16.138  0.2117 -0.2216 -0.0289
 7725W        W24199  16.124   9.228  14.864  0.0027  0.0765 -0.1819
 7726W        W24200   8.083   0.019   0.730 -0.1165 -0.1274 -0.1899
 7727W        W24201   5.403  10.630  14.273 -0.1799  0.4126 -0.0941
 7728W        W24202   5.465  15.156  15.707 -0.1416 -0.0902 -0.0887
 7729W        W24203   9.406  10.124  11.436  0.1356  0.2334 -0.0020
 7730W        W24204   6.046   1.220   0.261  0.2315 -0.3641  0.1284
 7731W        W24205  12.262  17.461  11.381  0.0999  0.3905 -0.2741
 7732W        W24206  16.926  16.206   5.224 -0.1621  0.1015  0.0251
 7733W        W24207  16.754  13.707   3.932  0.0113 -0.0355 -0.0838
 7734W        W24208   5.813   5.961  12.422 -0.0608 -0.1678 -0.1845
 7735W        W24209  14.101  11.347  14.166 -0.2222  0.1408  0.2685
 7736W        W24210  16.225  13.950   2.065 -0.2171  0.0383  0.0700
 7737W        W24211  15.917  12.953  15.887  0.4334  0.2404  0.0288
 7738W        W24212  15.259  17.053  12.784  0.1125  0.0076 -0.0683
 7739W        W24213  16.869  16.929   5.743 -0.3797 -0.1704 -0.2955
 7740W        W24214   5.890   2.803  13.714  0.0591  0.0703 -0.1038
 7741W        W24215   0.154   5.750   1.861 -0.2970 -0.2094 -0.1922
 7742W        W24216   4.719  14.660   3.053 -0.1046  0.0020  0.0790
 7743W        W24217  17.179  16.993  14.536 -0.2295 -0.4813  0.1363
 7744W        W24218   7.052  17.164   5.429  0.2033  0.0401 -0.1828
 7745W        W24219   1.000   4.935  16.059  0.1254  0.0646 -0.1478
 7746W        W24220   2.531  16.259   1.172  0.0428 -0.1011 -0.0071
 7747W        W24221  18.098   1.488  11.694  0.1092 -0.0036 -0.0788
 7748W        W24222  15.583   9.513  16.300 -0.0143  0.1198  0.0508
 7749W        W24223  17.902  13.081  11.981 -0.1824 -0.0542 -0.2115
 7750W        W24224   0.046  15.044   3.366  0.2585 -0.1173  0.1547
 7751W        W24225   0.146   8.874  12.233  0.0015  0.1857 -0.3923
 7752W        W24226   9.907   5.280  15.127  0.1775 -0.0359  0.4090
 7753W        W24227   2.796  13.352   0.945 -0.1602 -0.0485  0.0846
 7754W        W24228  15.739  14.890  14.810 -0.2480 -0.1749 -0.1602
 7755W        W24229  10.124   8.045   3.790 -0.1847 -0.0090 -0.0576
 7756W        W24230   9.688  12.777  10.672  0.1110 -0.2352 -0.0721
 7757W        W24231   8.667   3.236   2.524  0.0431 -0.0122 -0.0773
 7758W        W24232   2.786   9.114   3.651 -0.3834  0.0473  0.0290
 7759W        W24233  12.562   0.491   0.227  0.1928 -0.0614  0.1910
 7760W        W24234   5.092  14.831  15.362  0.1465  0.2981 -0.0559
 7761W        W24235  15.009   3.848   0.008 -0.1321 -0.0474 -0.0999
 7762W        W24236   9.743  13.299  14.500  0.0967 -0.4713  0.2286
 7763W        W24237   6.145   0.164  15.605 -0.1311  0.2935  0.2227
 7764W        W24238   2.056  12.035   2.069  0.2763  0.3115  0.1491
 7765W        W24239   7.146   0.304   3.880 -0.0181 -0.0250 -0.2235
 7766W        W24240  14.943   4.217  12.148 -0.3047  0.1058 -0.1741
 7767W        W24241   9.744   3.432  12.380 -0.0243  0.3019 -0.2409
 7768W        W24242   7.752  18.021  14.023 -0.2411  0.1023 -0.1089
 7769W        W24243   8.210   7.379  13.126  0.2599  0.0434 -0.0426
 7770W        W24244  16.617   7.799  13.268 -0.1256  0.0788  0.2480
 7771W        W24245   9.077  10.758  14.892  0.0055  0.1858  0.0796
 7772W        W24246  18.289   6.761   4.043  0.0459  0.0370  0.1378
 7773W        W24247   0.432   1.288  15.064  0.0579  0.1310 -0.0521
 7774W        W24248   8.358  14.922  12.778 -0.0569  0.1603 -0.2490
 7775W        W24249   7.895   5.752   4.969 -0.2611  0.1502 -0.1273
 7776W        W24250   2.691  11.642  10.749  0.1146 -0.0728 -0.0556
 7777W        W24251  13.580   4.780   1.887 -0.1065 -0.0496 -0.2782
 7778W        W24252   3.979   1.292   2.948  0.2127 -0.0642 -0.0501
 7779W        W24253   4.664  11.995  12.003 -0.0017  0.0472 -0.0391
 7780W        W24254   4.958  13.194   0.351  0.0421  0.3096  0.1415
 7781W        W24255  14.858   9.918  14.658 -0.1245 -0.0538  0.1049
 7782W        W24256   6.801  15.928  12.595 -0.1800  0.1264  0.2271
 7783W        W24257   5.922  16.031   2.701  0.0592 -0.2681  0.1016
 7784W        W24258   9.041   1.839  16.296 -0.0706 -0.1166 -0.2958
 7785W        W24259   9.303   7.584   6.510 -0.0377  0.0260 -0.1608
 7786W        W24260  17.532  14.561  11.060 -0.0478  0.3020 -0.0955
 7787W        W24261  14.606   9.926   2.242  0.2228 -0.1314 -0.1039
 7788W        W24262   3.698  17.188   2.139 -0.1933  0.0503  0.0667
 7789W        W24263   6.998  11.888  13.951  0.2406  0.0649 -0.0021
 7790W        W24264   5.034   2.861   0.752  0.0172  0.0121 -0.4775
 7791W        W24265   4.005   2.301   5.687  0.0000  0.4232 -0.1230
 7792W        W24266   6.708  15.996   1.393 -0.2974  0.1521 -0.0793
 7793W        W24267   5.803   9.419  14.203  0.1562 -0.2879 -0.1140
 7794W        W24268   8.130   3.250   2.512  0.0186  0.0110  0.0049
 7795W        W24269   5.567  14.679   4.354  0.0044  0.0656  0.1034
 7796W        W24270   0.096  12.342  12.225  0.0123  0.0886 -0.0157
 7797W        W24271   2.886  17.182  15.790  0.1458 -0.1106  0.1239
 7798W        W24272   8.819  17.228   1.758 -0.0290 -0.1039  0.0126
 7799W        W24273  11.449  12.446  13.392  0.0737 -0.2194  0.2639
 7800W        W24274  15.386   4.132   0.224  0.1711  0.4531  0.0047
 7801W        W24275  16.023   6.734  13.935  0.1038  0.3341 -0.2043
 7802W        W24276  14.721  13.158  11.041 -0.3459  0.0726 -0.0801
 7803W        W24277  14.026  13.216  16.327  0.2875 -0.1357  0.0266
 7804W        W24278   4.940  14.920  12.800  0.0739  0.1653  0.0294
 7805W        W24279  15.662   3.537   0.614  0.1697 -0.0852 -0.3050
 7806W        W24280  15.182  13.932   3.885 -0.1816 -0.0489  0.1605
 7807W        W24281   8.172  17.677   3.342  0.1302  0.0112  0.0032
 7808W        W24282   3.582   2.879  11.543 -0.0048  0.0081  0.2976
 7809W        W24283  10.233  13.100   1.437 -0.0164 -0.0135  0.1803
 7810W        W24284   5.684  10.266   5.881 -0.3389  0.1260 -0.0570
 7811W        W24285  15.198  13.805   3.365  0.3938 -0.1152 -0.0717
 7812W        W24286   0.050  14.647   1.510  0.0286  0.1630  0.0588
 7813W        W24287   1.558  12.331   5.301 -0.1181 -0.0507 -0.0785
 7814W        W24288  16.706   4.878   2.614  0.0625  0.1563  0.1927
 7815W        W24289   5.292   5.871   2.165 -0.2504 -0.1110  0.0768
 7816W        W24290   7.742   8.939   5.820  0.1727 -0.1429 -0.1468
 7817W        W24291  15.953   7.348   1.030  0.2677  0.1160 -0.1063
 7818W        W24292   3.401   6.975   1.891  0.0035 -0.0190 -0.1675
 7819W        W24293  13.858  12.403   4.234 -0.1239  0.1295  0.1475
 7820W        W24294  18.286   4.380   0.264 -0.0270  0.0544  0.2128
 7821W        W24295   7.571  16.826   0.887  0.1191 -0.1799  0.2443
 7822W        W24296   5.959   7.478   1.793 -0.3886  0.2052  0.4254
 7823W        W24297  13.900   6.753   4.729 -0.2310  0.1034 -0.0669
 7824W        W24298  15.164   4.551  15.179 -0.2974  0.0419 -0.1450
 7825W        W24299   7.037  16.956  11.600  0.2219  0.1054 -0.2281
 7826W        W24300  13.493   9.797  13.762 -0.1917  0.2525 -0.0089
 7827W        W24301   9.659  13.820   4.102 -0.1186 -0.0447 -0.1369
 7828W        W24302  14.962  15.996  14.098 -0.1184 -0.0732  0.0908
 7829W        W24303   7.839  11.693   1.366  0.0722  0.1181  0.1653
 7830W        W24304   8.570   7.864  16.150 -0.0441  0.2150 -0.0596
 7831W        W24305  10.530   9.342   4.971  0.3329  0.1372 -0.2675
 7832W        W24306  11.244   8.396  15.838  0.1636 -0.2225  0.1417
 7833W        W24307  17.681  10.428   0.854 -0.2412  0.1499 -0.1399
 7834W        W24308   5.123  17.536  16.297 -0.0570  0.0334 -0.1297
 7835W        W24309  16.366   1.070  16.005 -0.1107  0.2025 -0.2157
 7836W        W24310   5.630   8.225   2.241  0.0667 -0.0852 -0.2046
 7837W        W24311   8.184  17.313  10.746  0.0125 -0.2256  0.3046
 7838W        W24312  18.293   5.178   0.428  0.0303  0.0708 -0.0953
 7839W        W24313   5.484   1.120   1.370  0.1304 -0.3972  0.0457
 7840W        W24314  18.255  18.126  12.696  0.1922  0.1136  0.0122
 7841W        W24315   2.969  16.608  13.306  0.1592 -0.1048  0.0106
 7842W        W24316   8.765  11.041  13.729 -0.0926  0.0094  0.2695
 7843W        W24317   5.769   9.065  15.969 -0.3357 -0.0048  0.0786
 7844W        W24318   2.199  16.329  11.457  0.0604 -0.3921  0.2149
 7845W        W24319   2.408  11.420  15.246 -0.1110  0.1460  0.0679
 7846W        W24320  15.261   9.654  14.834 -0.0426 -0.1677  0.2763
 7847W        W24321  16.899  15.652   1.674 -0.1838 -0.1322 -0.3478
 7848W        W24322   9.154   5.560   4.351 -0.0014 -0.0797  0.1023
 7849W        W24323   3.032  11.693  15.750  0.0621 -0.0320  0.0471
 7850W        W24324  13.473   5.163   9.710  0.2151 -0.0579 -0.1545
 7851W        W24325   1.817  10.383   2.615  0.0621 -0.0208 -0.0642
 7852W        W24326   0.633   3.598  14.096  0.0507 -0.0300  0.0334
 7853W        W24327  13.748  17.774   2.067 -0.1352  0.0521 -0.0824
 7854W        W24328   4.832   9.779   0.638  0.3091  0.1498 -0.1578
 7855W        W24329  13.608   5.809   0.387  0.1738 -0.0667  0.0601
 7856W        W24330  13.913  10.707  13.980  0.0862 -0.1773 -0.1775
 7857W        W24331   1.760   3.801  11.793 -0.0354 -0.0311 -0.1217
 7858W        W24332   9.113   4.295  15.302 -0.0555  0.1182  0.0755
 7859W        W24333   6.030  14.633  15.669 -0.1389 -0.1687  0.1464
 7860W        W24334   2.507  11.438   4.302 -0.2741 -0.0577  0.0410
 7861W        W24335  11.887   0.457  11.639 -0.0292  0.2937  0.0729
 7862W        W24336   7.387  14.723   2.741 -0.3439 -0.1353  0.1241
 7863W        W24337   0.540   3.952  13.748  0.0837  0.0631 -0.0219
 7864W        W24338   7.789   5.687  11.841 -0.1719  0.0312  0.2444
 7865W        W24339  13.022   8.160  12.862  0.1777  0.0071  0.2652
 7866W        W24340   9.966   8.373   1.133  0.1126 -0.2674 -0.0357
 7867W        W24341   6.856   9.760   1.225  0.0858 -0.0233  0.0653
 7868W        W24342  16.284  12.333  12.752 -0.0430 -0.1994  0.2220
 7869W        W24343   9.150   0.605  11.371 -0.3085  0.3234  0.2158
 7870W        W24344   7.606  15.112   0.200 -0.0782 -0.1665 -0.0233
 7871W        W24345   9.125   1.632  13.858  0.0307  0.1592  0.3495
 7872W        W24346   7.297  10.665   4.098 -0.0811  0.0503 -0.2565
 7873W        W24347  15.834   3.127  15.723 -0.1162 -0.1663  0.4074
 7874W        W24348  10.033   3.726  15.853 -0.3619  0.1825 -0.1385
 7875W        W24349   2.906  15.462   4.094 -0.1182  0.1840  0.0126
 7876W        W24350  12.205  12.480   5.062 -0.1949 -0.1225 -0.0062
 7877W        W24351  11.341   5.394   4.092  0.1495 -0.2742  0.1655
 7878W        W24352   6.270  17.794   2.292 -0.2903  0.0220  0.1552
 7879W        W24353   0.357   4.220   3.884  0.0942 -0.2431  0.1006
 7880W        W24354   9.358   8.177   1.243 -0.0913  0.1890  0.1426
 7881W        W24355   3.824   7.915   1.105 -0.1690 -0.1373 -0.3021
 7882W        W24356  11.763  16.841   1.723 -0.1026 -0.0562 -0.0628
 7883W        W24357   0.665   3.561  15.620 -0.5820  0.0844 -0.0174
 7884W        W24358   5.175   7.169   5.634  0.2509  0.2132 -0.0200
 7885W        W24359   1.265  16.072   1.218  0.3068 -0.2929  0.0667
 7886W        W24360   5.594   2.491   0.477 -0.1483 -0.2173  0.0284
 7887W        W24361   0.074   9.194  12.917 -0.2837 -0.4016  0.3169
 7888W        W24362  13.446  11.598  16.174 -0.0898  0.1755 -0.0839
 7889W        W24363   6.574   5.059   5.375 -0.1318  0.0635 -0.3391
 7890W        W24364  15.138   6.229   0.783  0.0846  0.1210 -0.1674
 7891W        W24365  11.791   3.959   3.916 -0.1624 -0.1727  0.0195
 7892W        W24366   2.242   7.734   0.666 -0.2486  0.2478 -0.0303
 7893W        W24367   6.925  11.351   3.735  0.0555  0.1419 -0.0770
 7894W        W24368   4.216  16.470  15.029 -0.3107 -0.3503  0.3714
 7895W        W24369  13.896  15.701   2.129  0.0093 -0.1203 -0.0137
 7896W        W24370   3.732   5.432   1.657  0.2335 -0.0197 -0.1536
 7897W        W24371   6.565  12.685   1.334 -0.1278  0.0772  0.1325
 7898W        W24372  17.945  16.583   4.049 -0.2897 -0.1109 -0.1407
 7899W        W24373  17.704  12.140   2.263 -0.0738  0.1065 -0.1158
 7900W        W24374  16.043  11.796  13.413  0.0691 -0.0210 -0.0309
 7901W        W24375   3.116  14.540  15.833 -0.0276  0.0905 -0.1050
 7902W        W24376   4.415  17.595  13.780  0.4960 -0.2625  0.0480
 7903W        W24377   7.333   9.922   5.274 -0.4107 -0.1448 -0.1068
 7904W        W24378  17.896   6.837   1.453 -0.0043  0.1140 -0.1392
 7905W        W24379   5.695   2.260   3.988 -0.1506 -0.0597  0.2484
 7906W        W24380   8.386  14.821  14.229 -0.1178  0.3573  0.1375
 7907W        W24381   5.635  15.586  14.123  0.0566  0.3907 -0.0035
 7908W        W24382   2.172   0.303   1.705  0.2592 -0.1108  0.0720
 7909W        W24383  10.289   2.637   1.011 -0.0699 -0.2312  0.0302
 7910W        W24384  11.484   3.455   0.659  0.1347  0.1984  0.2882
 7911W        W24385   2.005   7.615   5.048 -0.0264 -0.0740 -0.0276
 7912W        W24386   3.356  11.910   1.729  0.0760  0.0245 -0.1516
 7913W        W24387   3.510  14.418   1.332  0.0803  0.1682  0.0321
 7914W        W24388   4.820   4.739  11.631 -0.3242 -0.1744  0.0017
 7915W        W24389   2.196  11.490   0.572 -0.1148 -0.0173  0.0774
 7916W        W24390  15.524   3.924   4.465 -0.1189  0.3302  0.0235
 7917W        W24391   6.255   9.894  11.882  0.0351  0.0412 -0.2518
 7918W        W24392  17.254   7.234   0.647  0.0121  0.0951  0.1519
 7919W        W24393  14.023  14.033   5.249  0.2807 -0.0114  0.2248
 7920W        W24394  12.982  12.342   3.376 -0.0072 -0.0138  0.1741
 7921W        W24395  17.762  18.200  14.181 -0.0154 -0.3830 -0.3312
 7922W        W24396   2.593   1.223   0.298 -0.1205  0.0236  0.0484
 7923W        W24397   3.535   4.080  13.280  0.3451  0.4631  0.2044
 7924W        W24398  13.295  11.925   3.130 -0.1067  0.1374  0.1808
 7925W        W24399  11.741   8.742  13.783  0.1865 -0.0246  0.0099
 7926W        W24400   7.655   5.449  16.250  0.0401 -0.3109  0.0552
 7927W        W24401  14.897  10.355  14.326 -0.0244  0.0388  0.1148
 7928W        W24402   8.513   6.487  15.717  0.0614  0.0587  0.2111
 7929W        W24403  16.048   9.007  15.783  0.3720 -0.1788  0.0326
 7930W        W24404   9.231  11.555   3.458 -0.1965  0.1700  0.0157
 7931W        W24405  18.177   4.040   4.989  0.0146 -0.1715  0.2971
 7932W        W24406  15.938   8.566   4.541  0.0702 -0.1226 -0.0573
 7933W        W24407  17.092  14.895   3.383 -0.3688  0.0636  0.1497
 7934W        W24408   4.924   1.456  11.942  0.3784 -0.0527 -0.0106
 7935W        W24409   7.774   0.263  13.882 -0.2216  0.0195 -0.3363
 7936W        W24410   6.138   9.384   0.909  0.2762  0.1626  0.2635
 7937W        W24411   3.164   5.060   4.565  0.0627  0.0334 -0.1192
 7938W        W24412   2.538  18.270   0.695 -0.0200 -0.1706  0.2610
 7939W        W24413   8.932   6.141   1.047 -0.0785 -0.0618 -0.1654
 7940W        W24414  10.417   5.323   0.929  0.7483  0.0822 -0.2314
 7941W        W24415   1.156   8.549   5.237  0.0796 -0.1790  0.0217
 7942W        W24416  17.680  15.769  11.624 -0.0461 -0.2535  0.2198
 7943W        W24417   9.595  17.929   0.924 -0.2180 -0.3213  0.0028
 7944W        W24418  13.390  10.889  13.524 -0.0853 -0.0029 -0.0264
 7945W        W24419  15.544   0.349  14.226  0.1276  0.2878  0.1212
 7946W        W24420   5.847  16.983  16.217 -0.0234  0.1674 -0.1323
 7947W        W24421  13.149   8.407  11.990  0.3853  0.1834 -0.0049
 7948W        W24422   4.020   9.617   4.892  0.1443 -0.0741  0.0349
 7949W        W24423  13.278  14.171   3.664 -0.1282  0.4066 -0.1101
 7950W        W24424   2.546   0.505  14.733 -0.0710 -0.1420 -0.3431
 7951W        W24425  11.922   2.810   1.031  0.1105  0.0110  0.0215
 7952W        W24426   9.324   3.716   3.807 -0.1226  0.1505 -0.1147
 7953W        W24427   6.063   8.349   2.409 -0.4685 -0.2120  0.2100
 7954W        W24428  13.462  11.065   3.028  0.0925  0.1460 -0.2139
 7955W        W24429   4.027   3.220   3.107  0.1304  0.1995 -0.1209
 7956W        W24430  11.212  12.365  12.391  0.2892 -0.1428 -0.0594
 7957W        W24431   4.170   2.708  12.316  0.2329  0.1138 -0.3332
 7958W        W24432   7.747   7.566   2.012 -0.1653 -0.0685  0.0282
 7959W        W24433   8.837   8.526  10.730 -0.0129 -0.0982  0.3001
 7960W        W24434   8.949   9.097   4.848  0.4309  0.3787 -0.1228
 7961W        W24435   8.292   5.059   3.278 -0.1558  0.2177  0.2343
 7962W        W24436  17.148  15.308   0.236  0.0252 -0.2689 -0.1644
 7963W        W24437   1.576  15.367   1.628 -0.1805  0.0278  0.1463
 7964W        W24438   4.190  15.138  11.843 -0.1743 -0.2304 -0.1181
 7965W        W24439   0.396   6.016   2.334 -0.4596  0.2272 -0.0935
 7966W        W24440   9.438   8.043   2.790 -0.0563 -0.0853  0.2894
 7967W        W24441   8.311   0.450   2.516 -0.1411  0.0306 -0.2095
 7968W        W24442   7.121   0.752   0.815 -0.2799 -0.0269 -0.1738
 7969W        W24443   3.834  14.014  16.253  0.2112  0.0069 -0.2057
 7970W        W24444  16.122   3.538   2.476 -0.0984 -0.1776  0.1265
 7971W        W24445  15.786  14.916   1.999  0.2388 -0.0883  0.2225
 7972W        W24446   5.546  13.591   4.028  0.1065  0.0802 -0.2826
 7973W        W24447   2.540   6.236  14.712  0.0145 -0.0006  0.0358
 7974W        W24448  13.366   6.686   4.456 -0.1801 -0.2521 -0.2003
 7975W        W24449   8.730  13.911   4.641 -0.1011  0.1026  0.1063
 7976W        W24450  12.541   1.320   3.116 -0.1371 -0.2964  0.0323
 7977W        W24451  16.300   8.416   2.864  0.2454 -0.1485  0.1518
 7978W        W24452  10.575   0.461   0.915 -0.0552  0.2435 -0.0524
 7979W        W24453  13.778  17.655  11.632  0.3671  0.0550 -0.0436
 7980W        W24454  11.508  12.303   1.947  0.1465  0.2115  0.0343
 7981W        W24455  15.617  14.087   2.260  0.1337  0.0525 -0.1482
 7982W        W24456   2.945   8.974   0.671 -0.0776 -0.2509  0.1614
 7983W        W24457  14.549   9.942   5.431 -0.2140  0.2013 -0.0375
 7984W        W24458  16.029   0.455   5.100 -0.1846  0.1184  0.3144
 7985W        W24459  10.240  13.186   1.925 -0.1683 -0.4050  0.1259
 7986W        W24460   9.151  16.175   0.407 -0.1656  0.1841 -0.0758
 7987W        W24461   3.947  11.251  10.789  0.0406  0.1954  0.0252
 7988W        W24462   4.930  13.458  16.207  0.1121 -0.0934 -0.0646
 7989W        W24463   5.359  10.487  11.667  0.1966  0.1713  0.3944
 7990W        W24464  15.673   2.940  13.532  0.1216  0.0279 -0.1485
 7991W        W24465   5.669   0.558   0.584 -0.3373  0.2812 -0.0405
 7992W        W24466   4.538   6.660  13.641  0.3048 -0.1178 -0.4502
 7993W        W24467   7.062   6.240   3.743 -0.1271  0.0921  0.0125
 7994W        W24468  16.736   5.680  14.322  0.0141  0.0239 -0.1197
 7995W        W24469  15.870   0.060   2.462 -0.1191  0.2384  0.4010
 7996W        W24470   9.877  17.111   3.217  0.0477 -0.0509  0.1630
 7997W        W24471   5.025  15.647   4.491  0.0819 -0.1414 -0.3787
 7998W        W24472  16.765  15.579   1.150  0.0774 -0.0280 -0.0957
 7999W        W24473  15.901   9.370   5.254 -0.0379  0.1590  0.4693
 8000W        W24474   3.118  14.586   0.480  0.1545  0.1815 -0.0997
 8001W        W24475  11.545   9.969  14.964 -0.2911 -0.1260  0.0748
 8002W        W24476   0.352   4.244   2.294 -0.1143 -0.3638  0.2367
 8003W        W24477  13.072   9.143   1.887  0.0035  0.1716 -0.4448
 8004W        W24478   3.813   9.692  12.715  0.1100 -0.1233  0.3723
 8005W        W24479   7.977   9.123  13.312  0.0785 -0.0447  0.1130
 8006W        W24480  14.685   0.262   0.770 -0.1444  0.1528  0.0705
 8007W        W24481  12.020   8.890   2.334 -0.2743  0.0458 -0.2314
 8008W        W24482  14.555  13.650  14.505 -0.0653  0.0914  0.0069
 8009W        W24483   0.848   4.715  14.209  0.0413  0.1115 -0.0039
 8010W        W24484   9.457  12.080  15.493 -0.1347  0.1563 -0.1652
 8011W        W24485  15.100   3.524   0.486  0.2065 -0.0571  0.1035
 8012W        W24486  14.832  13.042  16.150  0.3103  0.1017  0.0598
 8013W        W24487  11.565   1.283  14.146 -0.2359 -0.3466  0.2278
 8014W        W24488  16.710  18.200  15.599 -0.1536  0.4749  0.1525
 8015W        W24489  10.092   5.061   2.831 -0.0799  0.0007  0.0384
 8016W        W24490   9.150   9.875   5.115  0.2180  0.0371  0.2672
 8017W        W24491  14.774   7.551   4.585  0.1079 -0.0557 -0.0799
 8018W        W24492  14.062   4.415   3.349 -0.2649 -0.1244 -0.1677
 8019W        W24493  13.959  12.825   1.434 -0.1792  0.1890 -0.1632
 8020W        W24494  14.497   5.747   3.522 -0.0974  0.0446  0.2803
 8021W        W24495  13.310  15.742  15.248 -0.3795 -0.0094 -0.0694
 8022W        W24496   4.524   2.576  15.360 -0.1328 -0.1136  0.0145
 8023W        W24497  15.748   3.367   3.157  0.2054 -0.3250  0.1502
 8024W        W24498   4.941  13.652   2.307 -0.0609 -0.0059  0.0297
 8025W        W24499   2.367  13.286  13.444  0.3950 -0.2190  0.0383
 8026W        W24500   2.308   1.645   2.344  0.0112  0.3286  0.6244
 8027W        W24501  14.114  12.995   0.878  0.1232 -0.2331 -0.1791
 8028W        W24502   0.786   7.523   3.344 -0.0631 -0.3342 -0.0258
 8029W        W24503   8.384   5.963   4.073  0.0607 -0.1971  0.0964
 8030W        W24504   8.539  12.202   1.591  0.1455 -0.0489 -0.1127
 8031W        W24505  10.221   5.182  13.697  0.0094  0.1919  0.0643
 8032W        W24506   2.850   4.145   5.592 -0.0811 -0.0712  0.2917
 8033W        W24507  15.455   7.548   1.670  0.0477 -0.0658  0.4098
 8034W        W24508  13.789   8.102   3.828 -0.1078 -0.0086 -0.1429
 8035W        W24509   5.454   2.061  15.173 -0.1217 -0.1548 -0.1135
 8036W        W24510   3.969  17.531   4.469 -0.0583 -0.0453  0.1633
 8037W        W24511  11.647   7.410   3.605  0.0398  0.0687 -0.3835
 8038W        W24512   2.246   0.101  13.211 -0.0652  0.0735 -0.1830
 8039W        W24513   1.875   5.489   2.191 -0.0049 -0.3369  0.0629
 8040W        W24514  15.305  16.596   2.377 -0.3351  0.0063 -0.2977
 8041W        W24515  14.786  10.641  15.836 -0.1252 -0.2896  0.3538
 8042W        W24516  16.135   1.545   4.988  0.0195 -0.0639 -0.0148
 8043W        W24517  17.263  15.033   4.074 -0.4026 -0.2240 -0.0615
 8044W        W24518  17.387  13.780   4.672  0.1888  0.0506  0.1717
 8045W        W24519  17.819   6.600   3.744  0.3049 -0.0251 -0.2660
 8046W        W24520  15.465  12.969   6.085  0.1265  0.0112  0.0316
 8047W        W24521   9.884  12.848  14.317 -0.0705  0.0680  0.0695
 8048W        W24522  10.366   4.088   1.815  0.1352  0.1302 -0.0859
 8049W        W24523   1.510  16.756  12.452  0.1353 -0.2754 -0.3884
 8050W        W24524   8.063   8.039   5.301  0.2420  0.1736  0.0019
 8051W        W24525  14.093   7.398   3.626 -0.2654  0.0886  0.0219
 8052W        W24526   6.629  14.501  15.058  0.0998  0.2501  0.0180
 8053W        W24527  16.408   3.037  13.024 -0.2807 -0.1052  0.0639
 8054W        W24528   7.001  13.058   0.468 -0.2913 -0.0246 -0.0190
 8055W        W24529   8.686  17.497   5.472  0.0919  0.1131  0.3285
 8056W        W24530  18.200   9.897   4.777  0.1650 -0.2185 -0.3442
 8057W        W24531   5.201   8.028   2.072  0.0246 -0.0650  0.2443
 8058W        W24532  11.634   0.184   2.139 -0.2061 -0.2222 -0.0608
 8059W        W24533  14.933  11.270  14.672 -0.1183 -0.3043 -0.1290
 8060W        W24534   2.157  10.958  14.904  0.0217 -0.1331  0.0293
 8061W        W24535  17.477  17.843  14.341 -0.2073  0.0352 -0.0786
 8062W        W24536  14.488   6.233  11.175  0.5111 -0.3756 -0.1221
 8063W        W24537   0.069   1.951   0.723  0.0482 -0.0032  0.0460
 8064W        W24538   8.061   0.867   0.898  0.1391  0.0078 -0.3045
 8065W        W24539   0.034  14.944   0.539 -0.1520  0.1037  0.3856
 8066W        W24540   3.047   8.292  10.350  0.0606  0.1596  0.0275
 8067W        W24541   6.577   4.307  14.761 -0.0176 -0.2254 -0.0325
 8068W        W24542  13.546   7.113  12.496 -0.0507  0.0746 -0.0881
 8069W        W24543   2.793  12.811   3.121  0.0346  0.2070  0.1296
 8070W        W24544   7.223   4.110  12.207 -0.0529  0.0144  0.3817
 8071W        W24545  17.530   0.868  12.922  0.0465 -0.1456  0.0087
 8072W        W24546  13.063  17.098   4.409 -0.2427  0.2079  0.1355
 8073W        W24547   5.456  15.696   1.641 -0.2072 -0.0550  0.0315
 8074W        W24548   9.834   2.234   0.418 -0.1331 -0.0224 -0.1342
 8075W        W24549   1.596   8.635   3.231 -0.1268  0.0917 -0.1393
 8076W        W24550   3.255   7.225   4.868  0.1454  0.0244  0.0359
 8077W        W24551  13.240   4.088   2.427 -0.0163 -0.2370 -0.0478
 8078W        W24552  15.504   7.054  15.499 -0.3002 -0.0596  0.0064
 8079W        W24553  14.512   1.623  15.838 -0.1214 -0.0842  0.1932
 8080W        W24554  16.159   9.547   1.284  0.0155 -0.2073 -0.1104
 8081W        W24555   9.848  12.851   5.389  0.1621 -0.4360 -0.1097
 8082W        W24556  12.709  13.119  12.425 -0.1166  0.3073  0.1658
 8083W        W24557  14.770  15.347   6.215 -0.3783 -0.0731 -0.1589
 8084W        W24558   6.589   5.242  15.057  0.1221 -0.1701 -0.1951
 8085W        W24559   5.402  13.157   3.795 -0.4421 -0.2531  0.0268
 8086W        W24560   6.214  14.193  13.877 -0.3753 -0.1531  0.2951
 8087W        W24561   1.355   9.329  15.548  0.0819 -0.2008 -0.6950
 8088W        W24562  15.985   8.385   1.935  0.0195  0.1419  0.0773
 8089W        W24563   1.187  14.232  15.513  0.2793 -0.2453  0.0969
 8090W        W24564  13.852   8.741   5.466 -0.3518  0.1194 -0.0427
 8091W        W24565   2.506  10.034   0.849  0.0732 -0.2088 -0.0540
 8092W        W24566  11.385  17.673   0.575 -0.0926  0.3837  0.0793
 8093W        W24567   3.355   8.906  15.650 -0.0468  0.2023 -0.4063
 8094W        W24568   2.101   0.196   4.884  0.0007 -0.0806  0.1485
 8095W        W24569   5.990   8.088   4.387  0.0978 -0.1474  0.0394
 8096W        W24570   2.669   0.197  11.456 -0.0683  0.2093  0.0398
 8097W        W24571  10.713   7.216  15.871  0.4329 -0.0665  0.0018
 8098W        W24572  16.544   6.062  13.745  0.0281  0.0149 -0.1113
 8099W        W24573  11.577  12.343   3.565 -0.2411 -0.0317  0.2157
 8100W        W24574  15.362  15.136  11.683  0.2936  0.1651  0.3677
 8101W        W24575   6.969  13.529  15.655  0.1432 -0.0903  0.1255
 8102W        W24576  11.765   2.700  15.986 -0.1656  0.4108 -0.0324
 8103W        W24577   3.231  10.195   4.793 -0.1439 -0.4051  0.0625
 8104W        W24578  17.046   7.832  14.238 -0.1137 -0.2346 -0.0688
 8105W        W24579   5.087   4.664  12.419  0.0649  0.1491 -0.3214
 8106W        W24580  11.599  14.027  14.429 -0.1025  0.2097  0.1885
 8107W        W24581  14.187  12.096  13.031  0.2056 -0.3734 -0.1657
 8108W        W24582  18.128   2.997   3.902 -0.0621  0.0167  0.0075
 8109W        W24583   3.850   6.504  15.246 -0.3169 -0.0275  0.0741
 8110W        W24584   3.656   0.529  11.730 -0.0103 -0.1898  0.4203
 8111W        W24585   7.776  17.855  12.786 -0.0812  0.2892  0.0679
 8112W        W24586   4.663   0.722  15.099  0.1332  0.1544  0.2340
 8113W        W24587   7.329  10.964  13.846  0.3893  0.2816 -0.2106
 8114W        W24588  18.004  14.599   3.782  0.2013 -0.0789 -0.4624
 8115W        W24589   1.108  11.760   4.586  0.0553 -0.3824  0.0924
 8116W        W24590  17.511  16.864  15.058  0.2053 -0.3094  0.1424
 8117W        W24591   7.026  14.250  15.360 -0.3657 -0.0478  0.1965
 8118W        W24592  13.398   0.060   2.903 -0.1521  0.0635 -0.1951
 8119W        W24593   9.975   4.459   1.983 -0.0818  0.0902  0.0375
 8120W        W24594   5.895   7.241   2.230 -0.1349 -0.0913 -0.0815
 8121W        W24595   4.321   2.211  11.070 -0.6573 -0.1722 -0.4291
 8122W        W24596   8.395  16.554  15.767 -0.1581 -0.1464  0.1904
 8123W        W24597  15.591   0.975  13.620 -0.0174 -0.1346  0.3344
 8124W        W24598   2.711  12.985   4.046 -0.3060 -0.0667  0.1409
 8125W        W24599   9.524  17.538   3.430 -0.1890  0.0720  0.2722
 8126W        W24600   4.981   2.405  14.230  0.0981 -0.4431  0.1330
 8127W        W24601  11.617   4.124  12.455 -0.0659 -0.1411 -0.1665
 8128W        W24602   7.718   0.230  12.508 -0.0092 -0.0321 -0.0676
 8129W        W24603   5.708  14.005   1.116  0.2446 -0.2342  0.0174
 8130W        W24604   4.190  16.425   2.799  0.1563 -0.4746  0.0701
 8131W        W24605  17.531   3.764  15.406 -0.0811  0.0217  0.0363
 8132W        W24606   0.658  14.769  10.646  0.1192 -0.0687  0.1109
 8133W        W24607  10.527  12.177   5.477 -0.2173  0.0382 -0.1613
 8134W        W24608   5.564   1.812   3.836  0.1592 -0.1209  0.1024
 8135W        W24609  13.255   2.194  12.988 -0.0367  0.2788  0.0092
 8136W        W24610  17.662   1.652  15.461 -0.2533  0.0117  0.1501
 8137W        W24611   4.719   5.978  14.228 -0.0816 -0.0192  0.0730
 8138W        W24612   5.056   1.448   2.849  0.0059 -0.0281 -0.3710
 8139W        W24613  16.088  17.709   2.718 -0.0140 -0.0702  0.0579
 8140W        W24614  13.332  15.552   2.978 -0.2328  0.0662  0.2561
 8141W        W24615   2.698  12.081  13.086  0.1755 -0.0571 -0.0207
 8142W        W24616   4.205  14.772  12.222  0.0472  0.1631 -0.0030
 8143W        W24617  10.600  12.375  14.850  0.0404 -0.0085 -0.0850
 8144W        W24618   3.427  15.471  15.059  0.4062 -0.0816 -0.0763
 8145W        W24619  11.145  13.005  14.762 -0.0471 -0.0327 -0.2534
 8146W        W24620  17.741  10.485  11.245  0.4198  0.3611  0.1889
 8147W        W24621   7.453  13.457   2.514 -0.1073  0.1748 -0.2949
 8148W        W24622   7.943   4.266   3.458  0.2008  0.1990  0.0443
 8149W        W24623   0.252   4.581  12.004  0.2477  0.1097 -0.0873
 8150W        W24624   0.302  10.511   1.012  0.0184 -0.2226 -0.0839
 8151W        W24625   3.577  16.933  12.505 -0.2636  0.0258  0.4127
 8152W        W24626  11.838   2.820  13.052 -0.1453  0.1815 -0.1259
 8153W        W24627   8.439   7.762   3.689  0.0465  0.0528 -0.0163
 8154W        W24628  10.356  15.000  16.198 -0.0172  0.2078  0.0027
 8155W        W24629   2.520   6.027   0.255 -0.1387  0.0216  0.1757
 8156W        W24630  15.096  17.728   0.884  0.0500 -0.0438  0.2329
 8157W        W24631   0.714   7.720  13.600 -0.0849 -0.1154  0.1842
 8158W        W24632  17.524  17.924  13.799  0.0629 -0.1237  0.0099
 8159W        W24633   8.848   0.584  14.985  0.0976  0.0365  0.1294
 8160W        W24634   7.875  16.370  11.513 -0.2356  0.1655 -0.0410
 8161W        W24635   7.584  18.057   2.367 -0.4425 -0.0948 -0.0565
 8162W        W24636   6.893  14.940  15.542  0.1698  0.1947 -0.3679
 8163W        W24637   8.501   0.929  15.791 -0.0952  0.5380 -0.0779
 8164W        W24638   6.796   8.575  14.710  0.1475  0.3080 -0.1289
 8165W        W24639  16.081   2.475  15.092  0.0305  0.2683 -0.0548
 8166W        W24640   1.575   7.702   5.312  0.0269  0.0315  0.3351
 8167W        W24641   5.133   3.053  14.633  0.1819 -0.1642 -0.0438
 8168W        W24642  11.425  10.435   0.097  0.2101 -0.0841  0.0655
 8169W        W24643   0.359  14.285   1.072  0.0248  0.2350  0.0388
 8170W        W24644  10.368  12.183  11.886 -0.0750 -0.0333  0.0624
 8171W        W24645   6.677   2.296   3.032  0.0981 -0.2700  0.2265
 8172W        W24646  15.867   3.434  16.100  0.0555  0.1001 -0.0673
 8173W        W24647   8.457  12.844   3.211 -0.0295 -0.0364  0.0805
 8174W        W24648   4.965  15.012   2.139  0.2524  0.1875 -0.1433
 8175W        W24649   7.952   8.990  14.702 -0.0660  0.2938 -0.4271
 8176W        W24650   3.275   0.982   1.357  0.1969  0.1759  0.1474
 8177W        W24651  10.854  14.637  13.299  0.5290 -0.0586 -0.4706
 8178W        W24652   0.023  12.530   0.079 -0.0588 -0.2980 -0.1330
 8179W        W24653  14.430  15.230  15.958 -0.2003 -0.3335  0.2819
 8180W        W24654   2.846   7.284   5.261 -0.1026 -0.1775 -0.5540
 8181W        W24655   9.396  16.421  13.287  0.3078 -0.1694 -0.1343
 8182W        W24656   3.794  16.436  12.752 -0.1112  0.3086 -0.2289
 8183W        W24657   6.359   1.070   4.903 -0.0057  0.2511 -0.0521
 8184W        W24658   8.324   8.862   5.105 -0.2123  0.0092  0.3569
 8185W        W24659  17.327   1.912  15.107  0.0487  0.1914  0.1154
 8186W        W24660   8.273  18.024   1.735  0.2419  0.0736 -0.4024
 8187W        W24661  11.921   0.394  14.019 -0.1116 -0.0271 -0.2894
 8188W        W24662   5.589   0.002   5.047 -0.0951  0.2429  0.1197
 8189W        W24663  14.144  15.759  11.176 -0.0865  0.1742 -0.0576
 8190W        W24664   1.606  13.001  12.155  0.1399 -0.3837 -0.1877
 8191W        W24665   5.227  12.232   2.512 -0.0819 -0.2489 -0.0498
 8192W        W24666  12.708  12.956   2.457  0.0430 -0.0858 -0.1589
 8193W        W24667  12.064   9.547   2.809 -0.0084  0.0802 -0.3730
 8194W        W24668   6.247  12.026   2.403  0.1776 -0.1782 -0.0587
 8195W        W24669   6.120   9.051   4.518 -0.2839 -0.0627  0.0958
 8196W        W24670  10.298   1.840  11.276  0.0797  0.1117  0.0399
 8197W        W24671   5.787   6.197   3.155  0.1164 -0.0053  0.0049
 8198W        W24672  15.085   6.975   4.598 -0.1538 -0.0616 -0.4268
 8199W        W24673  10.818   1.192  12.363 -0.0063 -0.2921 -0.0782
 8200W        W24674  16.139   2.137   5.531  0.0529 -0.1335 -0.0211
 8201W        W24675   6.380   4.293  14.265  0.0590  0.0952  0.1263
 8202W        W24676  15.066   8.374  12.953  0.0880  0.0628 -0.1365
 8203W        W24677   3.627   1.038   3.820 -0.0167  0.0441  0.0142
 8204W        W24678   7.856  17.210   4.651  0.1849  0.0215  0.1583
 8205W        W24679  14.043  12.466   5.489 -0.0517 -0.3162 -0.1072
 8206W        W24680   4.485  14.440   0.054  0.1697 -0.3265  0.2183
 8207W        W24681  12.505   9.754  16.186  0.1868  0.2768 -0.0750
 8208W        W24682   6.114  16.949   2.985  0.1534 -0.1037  0.2973
 8209W        W24683  14.277   4.340   2.890  0.1700 -0.0852  0.0141
 8210W        W24684   2.802  10.505   3.810  0.0157 -0.2514 -0.0505
 8211W        W24685   9.082  14.693  11.712  0.1943 -0.0010  0.0580
 8212W        W24686   3.029   1.622  14.732  0.1279 -0.1354 -0.4209
 8213W        W24687  17.550  13.276  13.013  0.2116  0.2018  0.0317
 8214W        W24688   9.444  11.625   0.154 -0.2038  0.1483  0.3949
 8215W        W24689  12.738   8.430   2.944 -0.1628 -0.0442  0.0677
 8216W        W24690  12.060   8.790   3.665  0.0127  0.2256 -0.0870
 8217W        W24691  15.297  13.729   5.101 -0.1288 -0.2020 -0.2325
 8218W        W24692   9.507   5.878  12.736  0.0076  0.0794  0.3019
 8219W        W24693  15.287  14.528  11.694  0.1020  0.1212  0.3224
 8220W        W24694   3.124  15.789  15.407 -0.3468  0.2241  0.2162
 8221W        W24695  14.393   7.550  15.633  0.1810  0.0327 -0.0457
 8222W        W24696   3.283  16.153   5.354 -0.0642  0.0315 -0.0910
 8223W        W24697   1.943  15.570   5.700  0.2266  0.1695  0.1017
 8224W        W24698  10.685   9.265  13.246  0.3405  0.0995  0.1479
 8225W        W24699  12.535  16.549   3.612 -0.2625  0.0660 -0.1301
 8226W        W24700   1.224   3.950   1.965 -0.2586  0.0104  0.1748
 8227W        W24701   1.116   1.823   0.860  0.1199  0.2451  0.0866
 8228W        W24702  14.886  10.237   0.991  0.2630  0.0521  0.0894
 8229W        W24703  16.741  17.250  15.269 -0.2698 -0.3863  0.0363
 8230W        W24704   4.259   4.941   3.720  0.0313  0.2359  0.0377
 8231W        W24705  12.149   9.326   2.000  0.2278  0.1807  0.0285
 8232W        W24706  18.168  18.327   1.114 -0.3472  0.0391  0.1676
 8233W        W24707   1.169   2.404   3.940 -0.1233 -0.1399 -0.0273
 8234W        W24708  11.209   2.769   2.918 -0.0825  0.1649 -0.0887
 8235W        W24709   7.472  12.131   1.189 -0.1260  0.3238  0.0745
 8236W        W24710   3.074  12.842   3.594 -0.1642  0.0596 -0.2882
 8237W        W24711  13.365  10.260   3.341  0.0052 -0.0546 -0.0771
 8238W        W24712  10.809   2.800   2.364  0.2065 -0.1042 -0.3482
 8239W        W24713   2.416   6.926  15.977  0.1024 -0.1995  0.1209
 8240W        W24714   1.843   0.582   3.825 -0.0767 -0.0170  0.0128
 8241W        W24715   0.444   5.926  11.719  0.3344  0.1719 -0.2233
 8242W        W24716   8.919  14.871  12.138 -0.1791 -0.1067 -0.0242
 8243W        W24717   7.279  15.186  15.509 -0.0220 -0.2126 -0.0415
 8244W        W24718   4.114   7.335   1.897  0.3402 -0.3123  0.1720
 8245W        W24719   1.904  11.180  13.670 -0.0500  0.0800  0.2399
 8246W        W24720  17.924   4.415  12.267 -0.0197  0.0652  0.1323
 8247W        W24721  10.663   8.521   2.388  0.0255 -0.2596  0.0321
 8248W        W24722  10.428   9.808  12.370 -0.2566  0.2511  0.3077
 8249W        W24723   5.613   7.520  11.906 -0.2576  0.2738 -0.1138
 8250W        W24724  10.923  12.901  13.921  0.1915 -0.0047  0.4254
 8251W        W24725   0.858  11.132  15.180  0.1218 -0.0800 -0.0886
 8252W        W24726  15.478   3.368  11.993  0.2652  0.1766 -0.5162
 8253W        W24727   9.751   1.623   3.320 -0.0072 -0.1585 -0.1590
 8254W        W24728  10.415  17.052   0.450 -0.2827  0.0076  0.1319
 8255W        W24729   6.123   5.858  15.575  0.1287  0.2906  0.0965
 8256W        W24730  14.166   7.404  13.255  0.2485  0.2920 -0.0128
 8257W        W24731   6.218   7.099  15.845 -0.2511  0.0254 -0.3056
 8258W        W24732  11.786  12.796  13.414 -0.1346  0.2178 -0.0996
 8259W        W24733   8.219  10.526  14.919  0.0923 -0.1415 -0.1100
 8260W        W24734  10.805   5.064   1.041  0.0390  0.2264  0.1638
 8261W        W24735  16.011  10.413   1.743 -0.3249  0.0779 -0.1627
 8262W        W24736   7.713   3.564  14.003 -0.0630 -0.1111  0.2728
 8263W        W24737   6.330   2.632  13.662  0.1629  0.1613 -0.1951
 8264W        W24738   4.967   7.090  12.323 -0.1155 -0.2810 -0.0498
 8265W        W24739  17.247   0.616   3.642  0.0238  0.1583 -0.3196
 8266W        W24740  15.086   8.337  15.381  0.2383  0.0178 -0.1368
 8267W        W24741   1.198   6.264  11.419  0.0863  0.0745 -0.0392
 8268W        W24742  17.557  17.383   1.446 -0.0655  0.1089  0.3662
 8269W        W24743  13.941   2.332  10.738  0.0598 -0.2676 -0.0442
 8270W        W24744  14.795  17.538   4.126 -0.0066  0.0631 -0.2177
 8271W        W24745  10.451   2.363   2.976 -0.0267 -0.3463  0.0429
 8272W        W24746   4.411   8.929   3.325  0.4134  0.0182 -0.2224
 8273W        W24747  16.546   2.744   1.198 -0.2319  0.1752 -0.2365
 8274W        W24748   5.762   2.699  12.563  0.0255 -0.2175  0.0640
 8275W        W24749   5.326   2.145   1.302 -0.1925 -0.1073  0.0359
 8276W        W24750   2.137   6.830   3.307 -0.1442  0.0904 -0.1684
 8277W        W24751  15.690   2.996   3.509  0.0284 -0.0382 -0.2552
 8278W        W24752   5.711   9.910   5.129 -0.1986 -0.3088 -0.0252
 8279W        W24753   4.310   7.320  15.763  0.1976  0.1516 -0.2932
 8280W        W24754  17.050  15.953  10.550  0.0002  0.1192 -0.1869
 8281W        W24755  11.984  11.168   2.495 -0.0463 -0.1660 -0.1644
 8282W        W24756  12.063   3.744   2.896  0.2051 -0.1392 -0.2343
 8283W        W24757  16.794   9.066  15.435 -0.0976 -0.0243 -0.1921
 8284W        W24758   4.063  12.099   2.309 -0.0119  0.0735 -0.1218
 8285W        W24759   5.194  11.205  12.083  0.0177  0.3208  0.0074
 8286W        W24760   2.265   7.443   6.018 -0.2980  0.0647  0.0520
 8287W        W24761   0.278  12.490  10.996 -0.0734  0.0403 -0.0532
 8288W        W24762   7.016  10.450  13.580 -0.2201 -0.1255 -0.1354
 8289W        W24763  13.353  11.231  13.149 -0.1512  0.2131 -0.2382
 8290W        W24764  17.196   0.489  11.238 -0.0396  0.1326 -0.2667
 8291W        W24765   4.856   3.567   1.030 -0.1391  0.0947 -0.0005
 8292W        W24766   4.394   0.848  13.075  0.1829 -0.0745 -0.1463
 8293W        W24767   7.152  11.224  13.152 -0.1164 -0.0190 -0.0641
 8294W        W24768   3.975   4.883  12.154 -0.1174 -0.0441  0.0501
 8295W        W24769  13.491   7.644  11.886  0.0595 -0.0349  0.0368
 8296W        W24770  15.834   8.073   0.341  0.0496  0.0800  0.1693
 8297W        W24771  10.271   1.504   4.816  0.0406  0.0517  0.0388
 8298W        W24772   4.560   3.595   3.771 -0.0418  0.0419 -0.1619
 8299W        W24773  18.157   7.805   0.443  0.2346 -0.1115  0.2162
 8300W        W24774   5.460  10.085   4.044  0.1459  0.1247 -0.0578
 8301W        W24775   2.010   4.023   5.719  0.1531  0.2571 -0.5000
 8302W        W24776  12.638   0.562   5.174 -0.0538 -0.2814  0.0489
 8303W        W24777  14.793  17.811   3.582 -0.3182  0.0427  0.2206
 8304W        W24778   5.985   1.759   2.958 -0.0061 -0.2387  0.4251
 8305W        W24779  17.387   0.209   0.787 -0.1751  0.0919 -0.3361
 8306W        W24780   1.434  16.162  15.298 -0.0169 -0.0734 -0.0776
 8307W        W24781   8.971  12.539  12.930 -0.0543 -0.0628  0.0548
 8308W        W24782  12.321  12.612   1.650 -0.2673  0.0506  0.0361
 8309W        W24783  13.537  12.562   4.664 -0.0910  0.0048  0.0195
 8310W        W24784   8.084   5.815   2.292 -0.0731  0.0933  0.2352
 8311W        W24785  17.834   7.374  13.353  0.1113 -0.1182  0.1192
 8312W        W24786  14.208   2.558   0.960  0.1644 -0.1002 -0.2912
 8313W        W24787   8.417  12.157   3.834 -0.2673 -0.1300  0.0978
 8314W        W24788   2.424   4.694  13.070 -0.4741  0.2142  0.0211
 8315W        W24789  15.781  15.615  15.587  0.0533  0.1894 -0.1505
 8316W        W24790   9.195  15.745  15.936 -0.0226  0.1267 -0.1221
 8317W        W24791  12.854  16.194   3.387 -0.0526  0.3145 -0.4152
 8318W        W24792  10.506   2.604  15.528 -0.2219  0.1905 -0.0162
 8319W        W24793   4.673  17.950  11.585  0.1462  0.1517  0.0233
 8320W        W24794  15.045  11.090  11.379  0.1622 -0.0388 -0.0495
 8321W        W24795   3.921   2.428  15.841  0.2218 -0.3059 -0.2640
 8322W        W24796  17.775  11.812   2.666 -0.0575  0.0223  0.2377
 8323W        W24797  12.817  12.768   5.315  0.1935 -0.3112 -0.0230
 8324W        W24798   8.766  14.140  13.741 -0.2261 -0.1648  0.1742
 8325W        W24799  16.142  10.946   2.917  0.1290  0.0484 -0.2222
 8326W        W24800   7.082   6.464   1.312 -0.2375 -0.3330 -0.1988
 8327W        W24801  15.240   1.928   2.796 -0.0449 -0.3055 -0.0094
 8328W        W24802  17.819   3.576   0.513 -0.0640  0.2668 -0.1212
 8329W        W24803   3.274  12.110  15.738  0.3471 -0.4632 -0.2703
 8330W        W24804  13.675  14.414   2.173  0.3235 -0.0718  0.0846
 8331W        W24805  14.016  13.415   6.138  0.2789  0.1532  0.3901
 8332W        W24806   0.896   8.187   1.976  0.1840  0.0944  0.0981
 8333W        W24807  17.611  14.416   2.502 -0.1847 -0.0209 -0.2785
 8334W        W24808   4.506   5.441   4.524 -0.1134  0.1327 -0.5059
 8335W        W24809  16.520  13.566   2.176 -0.2712  0.0824  0.2703
 8336W        W24810   0.312  15.006  15.978  0.0800 -0.3564 -0.0675
 8337W        W24811  12.385   0.462  11.754 -0.0286  0.0469  0.3942
 8338W        W24812   0.966  16.520  13.729 -0.2028  0.0307 -0.4831
 8339W        W24813  16.124   3.482  12.337  0.0093  0.3800 -0.1691
 8340W        W24814   9.839   4.362  13.522  0.5504  0.0920  0.2803
 8341W        W24815   5.539   7.514   3.745  0.2219  0.1280  0.1261
 8342W        W24816  14.418  17.322   0.341  0.0110  0.2608 -0.1792
 8343W        W24817  15.636   1.246   2.033  0.0560 -0.1126  0.1868
 8344W        W24818   8.710  15.892  13.726 -0.0789 -0.0040  0.0559
 8345W        W24819   0.592   9.112  14.621  0.0702  0.0845  0.1649
 8346W        W24820   8.549  13.064   1.636 -0.0664 -0.3880 -0.4874
 8347W        W24821   1.802   9.937  13.311 -0.0088  0.2939 -0.1419
 8348W        W24822  16.999   7.155  12.212 -0.0550 -0.0443 -0.0320
 8349W        W24823  12.628  14.514  12.099 -0.0139 -0.1234 -0.2596
 8350W        W24824   7.605   0.241   3.819 -0.2935  0.0216  0.0703
 8351W        W24825  12.457  12.568  11.824 -0.0934  0.3344  0.2852
 8352W        W24826  15.181  10.482   3.715  0.1110  0.1613 -0.0807
 8353W        W24827   6.456   5.715   5.038 -0.3493 -0.0133  0.0433
 8354W        W24828   8.532  17.866   2.412  0.2905 -0.0281 -0.2011
 8355W        W24829  11.507  17.625  14.400  0.0706 -0.1582  0.2359
 8356W        W24830   4.980  16.191   4.519 -0.0459 -0.1696  0.1628
 8357W        W24831   0.166   8.727   5.336  0.3029 -0.0051  0.0150
 8358W        W24832   7.500   2.938   0.444  0.0494  0.1324 -0.2432
 8359W        W24833   0.228   1.637  15.871  0.2608 -0.4246  0.0210
 8360W        W24834   0.089  10.022  12.363  0.1650 -0.3687 -0.0648
 8361W        W24835   8.681  15.752   4.024  0.1522 -0.1321  0.2342
 8362W        W24836  18.017   7.931  12.508  0.2978  0.1741  0.0210
 8363W        W24837   2.085  16.167  14.074 -0.0171 -0.1715  0.0051
 8364W        W24838  16.403   2.909  14.997 -0.1000 -0.1036  0.2110
 8365W        W24839  10.089   2.542  15.013 -0.0933  0.2178 -0.0580
 8366W        W24840   3.026   8.580  13.067  0.2206  0.0032 -0.1200
 8367W        W24841   4.522  14.043   5.273 -0.2139  0.1479  0.1241
 8368W        W24842   1.371   0.533   0.640 -0.0945 -0.1414  0.1885
 8369W        W24843  16.276   1.930   1.420 -0.2343 -0.2103  0.0297
 8370W        W24844   5.255   2.844  12.363  0.1171 -0.1988 -0.0103
 8371W        W24845  15.366   1.348  14.403 -0.2041 -0.1453  0.1276
 8372W        W24846   4.264   9.928   1.338 -0.3285 -0.1940  0.0092
 8373W        W24847   3.778  11.777  12.229 -0.1098  0.0500 -0.3038
 8374W        W24848  16.417   6.574   5.035 -0.0241  0.1905  0.3166
 8375W        W24849  15.136   5.023  13.168 -0.3699 -0.1052 -0.3491
 8376W        W24850   8.853   9.424  14.847  0.0182 -0.0456 -0.1707
 8377W        W24851  16.370  12.831   2.026  0.0611  0.0905 -0.1048
 8378W        W24852   4.105  12.247  16.010  0.2969 -0.0254  0.0485
 8379W        W24853  10.345  12.472  14.415  0.1935  0.0374 -0.0541
 8380W        W24854  16.548   6.176  11.715 -0.2347  0.1307  0.0125
 8381W        W24855  12.190   2.120   0.000  0.0792  0.3976  0.1949
 8382W        W24856  12.054   1.962   5.040  0.1098  0.2794 -0.1091
 8383W        W24857   4.139  14.492  13.312  0.1193  0.0311  0.0918
 8384W        W24858   2.277  12.684  12.484 -0.3138 -0.0043  0.1570
 8385W        W24859  14.610   6.074  15.792  0.1623 -0.4169 -0.0354
 8386W        W24860  15.523   1.430   0.779  0.0534 -0.1353  0.1118
 8387W        W24861   9.439   4.651  13.682 -0.0172  0.0066 -0.2372
 8388W        W24862   2.352   6.497  12.673  0.2813  0.2149  0.1017
 8389W        W24863   9.714   8.125  15.753  0.1613  0.0834 -0.0061
 8390W        W24864  10.952   8.873  14.816  0.3595 -0.1304 -0.0307
 8391W        W24865   5.358   6.679  14.815  0.0987  0.0444  0.0381
 8392W        W24866  15.679   7.637  11.723  0.0719 -0.0530  0.1311
 8393W        W24867   9.572  13.587   0.368  0.0618  0.3400 -0.3735
 8394W        W24868   1.454  11.943  13.354  0.0573 -0.1718 -0.2004
 8395W        W24869   8.890  15.196   1.730 -0.0851  0.0093  0.1780
 8396W        W24870   0.743  10.094  15.958 -0.2655 -0.1239  0.1072
 8397W        W24871   0.136  13.413   2.545  0.2143  0.1798  0.2500
 8398W        W24872  13.056   0.512   3.750  0.2594  0.0484 -0.1992
 8399W        W24873   4.429   3.007   0.428 -0.1190  0.0185 -0.1023
 8400W        W24874   8.723   1.512  13.564  0.1204 -0.0732 -0.0130
 8401W        W24875  12.712   6.449   1.712  0.0079  0.0938  0.1199
 8402W        W24876   2.050  14.691   3.686  0.0818 -0.0414  0.0464
 8403W        W24877  17.056  14.507  11.021  0.1751  0.3148 -0.0324
 8404W        W24878   3.083  17.351  15.047  0.2594  0.1286  0.0444
 8405W        W24879   4.588   0.254   5.124  0.1553 -0.2820 -0.0292
 8406W        W24880   0.046  13.744   4.247 -0.0563  0.0882 -0.1478
 8407W        W24881   8.875  13.582   3.531 -0.3390  0.0253  0.0542
 8408W        W24882  14.451  15.812   4.632 -0.1031  0.0087  0.0730
 8409W        W24883   5.296   1.663  10.444  0.0930  0.1677  0.1854
 8410W        W24884  16.101   7.272   4.397  0.1657  0.1799 -0.0179
 8411W        W24885   9.895   9.416   4.547  0.2636 -0.2469 -0.3031
 8412W        W24886   2.861   1.955  12.962  0.1306 -0.0065  0.0570
 8413W        W24887  13.233   8.431   0.090  0.1396 -0.0106  0.0194
 8414W        W24888   9.242   8.731   0.722 -0.1954  0.0557 -0.0928
 8415W        W24889  10.093  12.436   5.528  0.0844  0.2531  0.0546
 8416W        W24890   4.571   9.849   3.644  0.3202 -0.0574 -0.3132
 8417W        W24891  10.318   2.181   0.689 -0.1017 -0.0629  0.2970
 8418W        W24892   9.668   3.677  11.224  0.1614  0.1460 -0.1897
 8419W        W24893  14.169   8.047  14.491  0.2689  0.1043 -0.3432
 8420W        W24894  17.822   8.260   4.043 -0.0221 -0.3253  0.2449
 8421W        W24895   8.664   1.556   0.779  0.2091 -0.2779  0.1030
 8422W        W24896  16.199   1.701  15.564  0.0542  0.2213 -0.0981
 8423W        W24897  14.931  15.717  12.948  0.1120 -0.1200 -0.0677
 8424W        W24898   3.497  12.155  12.385  0.0687 -0.1807  0.0379
 8425W        W24899  16.224   5.186   1.500 -0.1276 -0.1591  0.0449
 8426W        W24900   1.011  15.238   4.611 -0.1739  0.2340  0.4692
 8427W        W24901  12.359   5.560   4.970 -0.3091 -0.0227 -0.1643
 8428W        W24902  17.477  17.646   2.969 -0.1570  0.1212  0.2181
 8429W        W24903  12.246   6.809   4.536  0.1318 -0.1895  0.2386
 8430W        W24904  13.392   9.015  13.219  0.0253  0.1974 -0.0051
 8431W        W24905   1.587  15.257  11.372 -0.3622 -0.1852  0.2979
 8432W        W24906   5.962   3.375   2.198  0.1164  0.1430 -0.1590
 8433W        W24907  17.368  11.504  11.892  0.0161 -0.0424 -0.0208
 8434W        W24908   2.775  16.535   1.711 -0.0680 -0.2564  0.1665
 8435W        W24909   4.569  11.794   1.533 -0.2561  0.1130 -0.3543
 8436W        W24910  17.797   7.403   2.149  0.0450 -0.1041 -0.0352
 8437W        W24911  17.956   0.283  13.892  0.2062  0.1728 -0.0134
 8438W        W24912   5.999  13.159  12.198  0.0848  0.5652 -0.1441
 8439W        W24913   4.132  11.586  15.995 -0.0359 -0.3807 -0.0153
 8440W        W24914   3.454   0.552   1.556 -0.1486 -0.1315  0.0300
 8441W        W24915  11.344   0.625   0.954  0.2986  0.0461  0.0713
 8442W        W24916   0.034  13.034  13.265 -0.0868  0.1181  0.0253
 8443W        W24917   8.134  18.189   4.952 -0.0980  0.0540 -0.0476
 8444W        W24918   5.813   1.457  13.036 -0.2939 -0.1388 -0.1390
 8445W        W24919  12.683   4.580   1.184  0.0364 -0.0080  0.0405
 8446W        W24920   4.554   2.782   4.020 -0.1204  0.1160  0.2814
 8447W        W24921  13.469   5.052   4.444  0.1530  0.0864  0.2001
 8448W        W24922   4.404   4.732  11.885 -0.1449  0.1294  0.2162
 8449W        W24923   5.032   4.876   3.299 -0.0353  0.4542 -0.0506
 8450W        W24924  11.471   6.573   2.808  0.2166  0.0600 -0.0065
 8451W        W24925  16.732   5.383  15.209  0.3112 -0.0927  0.0614
 8452W        W24926  17.150   1.613   4.955 -0.0605 -0.2041 -0.2041
 8453W        W24927  12.480  17.687  14.769 -0.1365  0.2352 -0.0083
 8454W        W24928  10.408   2.787   3.307  0.0212  0.1113  0.1854
 8455W        W24929   9.008   2.349   3.520  0.3008  0.0491 -0.1791
 8456W        W24930   7.345   9.089  12.725 -0.0598 -0.2204  0.2285
 8457W        W24931   8.583   6.419  14.210  0.1289 -0.2932  0.1008
 8458W        W24932   5.797  10.208  16.109  0.1235  0.0900 -0.1452
 8459W        W24933  13.667   7.763   0.338  0.2497  0.0245 -0.1846
 8460W        W24934   9.984   2.515   3.629 -0.1334 -0.1094 -0.1673
 8461W        W24935   5.210  10.393   3.677  0.0440  0.2693  0.1548
 8462W        W24936   9.242  13.867   3.350  0.2101 -0.2404  0.0696
 8463W        W24937   4.575   8.373  13.964  0.1062 -0.0151 -0.1592
 8464W        W24938  16.584   4.612   3.243  0.0001  0.0328  0.3800
 8465W        W24939  15.890  17.044   0.606 -0.0104 -0.0973  0.2863
 8466W        W24940   5.784   5.232   5.648  0.2003  0.3925 -0.1425
 8467W        W24941   3.818  16.256   1.538  0.1544 -0.0977 -0.1950
 8468W        W24942  16.503  15.238  14.744 -0.0208  0.2188 -0.0517
 8469W        W24943  10.184  12.880   0.062 -0.2050 -0.2817 -0.2885
 8470W        W24944   5.597   0.912   3.593 -0.2375  0.1062  0.0696
 8471W        W24945  18.036   0.929   1.152  0.0513  0.1638 -0.4032
 8472W        W24946  11.938  10.701   3.273  0.1279  0.1057  0.2582
 8473W        W24947  15.120  15.989   1.672 -0.0461 -0.0598  0.0272
 8474W        W24948  15.049   2.373   2.019  0.0837 -0.4921 -0.0223
 8475W        W24949   7.818  14.784  12.358  0.0741 -0.2479  0.1767
 8476W        W24950   7.023  12.380  14.661  0.2466  0.0266  0.2609
 8477W        W24951  16.457   2.591   0.197 -0.0925  0.0619 -0.1005
 8478W        W24952  13.341   2.669  13.099 -0.1340 -0.0749  0.0639
 8479W        W24953   4.491   3.847   4.658  0.0656 -0.2081  0.3309
 8480W        W24954   3.184   1.555   1.445  0.0131  0.1649 -0.4367
 8481W        W24955  13.815  18.302   3.709 -0.2225  0.0551  0.0903
 8482W        W24956  15.867  10.121  13.050 -0.1341 -0.0455  0.0912
 8483W        W24957  11.372   3.061   2.468  0.1211 -0.2706  0.0513
 8484W        W24958   2.666  12.782   4.466 -0.2207 -0.2511 -0.1829
 8485W        W24959  17.988  16.765  13.163 -0.0233  0.0016  0.2817
 8486W        W24960   9.058   4.426  14.201 -0.1170  0.1737  0.0673
 8487W        W24961   0.912  13.794  14.261  0.0261 -0.0563  0.1675
 8488W        W24962  15.469   4.120  11.511  0.1932  0.0865  0.0761
 8489W        W24963   1.066   1.754  12.965  0.1491 -0.2848 -0.2644
 8490W        W24964   6.787   1.375  14.386  0.1159 -0.2859  0.1034
 8491W        W24965   7.407   7.667   0.764  0.1235 -0.4219  0.4100
 8492W        W24966   0.175   5.528   1.390 -0.0286  0.0074  0.1901
 8493W        W24967  10.524  17.273  14.397  0.0036  0.0821  0.0890
 8494W        W24968  10.636  11.922   1.538  0.2351 -0.0621  0.0687
 8495W        W24969   8.630   5.653   1.747  0.1390 -0.0484 -0.0032
 8496W        W24970   7.493   2.629  14.594 -0.0191 -0.2545  0.2422
 8497W        W24971  12.144  17.434   1.135 -0.1913  0.0485  0.0346
 8498W        W24972   7.269  18.010   3.050 -0.0126  0.0566 -0.0222
 8499W        W24973   1.358   9.541  11.995 -0.0367  0.0071 -0.0143
 8500W        W24974   6.529   5.321  14.111 -0.1752  0.1742  0.0219
 8501W        W24975   8.973   2.269   0.263 -0.2340  0.3536 -0.1271
 8502W        W24976   4.236  15.479  13.776 -0.1305  0.1130  0.2552
 8503W        W24977  10.602   2.006   4.908  0.0213  0.0683 -0.0562
 8504W        W24978   4.882  14.437  14.009  0.1314  0.1195 -0.0579
 8505W        W24979   5.811  16.978  11.371 -0.4732 -0.1262  0.3964
 8506W        W24980   9.629  15.634  13.928 -0.0577 -0.2326  0.0314
 8507W        W24981  11.435   3.513  16.200 -0.0037  0.2987 -0.0951
 8508W        W24982  11.310  17.042  13.811 -0.0007 -0.3606 -0.2445
 8509W        W24983   4.454   6.221  11.596 -0.1829 -0.2314  0.4160
 8510W        W24984  11.534   4.742   3.722 -0.2573  0.1136 -0.2956
 8511W        W24985   3.042  11.649   3.810 -0.2336  0.1400 -0.1300
 8512W        W24986   7.846   5.803  15.911 -0.4063 -0.0231 -0.1472
 8513W        W24987  15.040   3.545   2.095 -0.2353  0.1133  0.1916
 8514W        W24988   8.962   3.227   2.946  0.1260  0.0067  0.0028
 8515W        W24989   6.297  11.076  12.499 -0.4230  0.0847 -0.1690
 8516W        W24990   7.788   9.171   2.914 -0.0739  0.1446 -0.0360
 8517W        W24991   5.207   4.763   1.377  0.2369  0.0012  0.0226
 8518W        W24992   6.628  13.936  15.516  0.0985 -0.2203 -0.1716
 8519W        W24993   7.451   5.911   0.053  0.0065 -0.2361  0.0679
 8520W        W24994  16.727   5.381  12.551 -0.0118 -0.0498 -0.1192
 8521W        W24995  12.606   2.147  14.394 -0.3074  0.0914 -0.1683
 8522W        W24996   8.303   9.950   0.926  0.1333 -0.0267 -0.0734
 8523W        W24997   3.888  16.124   5.456 -0.0551 -0.3761 -0.1165
 8524W        W24998   0.069   4.189  12.256 -0.2002  0.0728  0.0724
 8525W        W24999   7.655  11.437   0.859 -0.1044  0.0161 -0.0282
 8526W        W25000  11.164   3.540  15.218 -0.2522  0.0617 -0.0452
 8527W        W25001  15.251  18.212  12.344 -0.1214 -0.2089  0.0586
 8528W        W25002   4.734   9.008   3.883  0.1760  0.1841  0.4995
 8529W        W25003  14.911  16.570  16.212  0.1408 -0.1007  0.0681
 8530W        W25004  16.683   5.922  16.152  0.0003 -0.2020 -0.2611
 8531W        W25005   3.793   6.375  12.378  0.2096 -0.0626  0.2729
 8532W        W25006   5.408   2.944   4.983  0.1610 -0.3273  0.0209
 8533W        W25007  17.641   8.611  15.220  0.2937  0.1719 -0.0512
 8534W        W25008  17.014  17.115  11.840  0.2861  0.2948  0.0466
 8535W        W25009  10.221  12.924   3.721  0.1695  0.1559  0.2202
 8536W        W25010   8.124   5.838   4.547  0.2653  0.0512  0.1066
 8537W        W25011   3.232   8.956  12.351  0.1219  0.1315 -0.1699
 8538W        W25012   1.734   9.812  16.296  0.1597 -0.1821 -0.0929
 8539W        W25013   2.054  13.140  11.935 -0.1583  0.0875  0.0180
 8540W        W25014  12.470   1.852   0.762  0.1398 -0.1151 -0.3154
 8541W        W25015   1.837   2.597  15.907 -0.0984 -0.2584 -0.0145
 8542W        W25016   3.389  12.949  13.828  0.1152 -0.4330  0.0640
 8543W        W25017   1.556   3.895  16.117  0.1529  0.3361  0.2823
 8544W        W25018   8.946   9.976   4.186 -0.2587  0.0208  0.0342
 8545W        W25019   2.909   5.417   2.608  0.0100 -0.0319 -0.0069
 8546W        W25020  15.414   4.013   2.048 -0.0451  0.3951  0.1340
 8547W        W25021   5.538  11.840   1.423  0.0937  0.1398  0.1444
 8548W        W25022   3.660  10.248  13.211 -0.2426  0.0260  0.3442
 8549W        W25023   2.313  18.237  11.225 -0.0540 -0.0865  0.0913
 8550W        W25024   1.893   7.115   6.136 -0.2869 -0.3008  0.1489
 8551W        W25025   9.507  11.131  15.474  0.0800  0.0559  0.2346
 8552W        W25026   7.350  17.201   2.144 -0.0044  0.0062  0.2678
 8553W        W25027  18.207   5.945   2.237  0.1984  0.1070  0.2454
 8554W        W25028   3.394  11.885  11.424 -0.0887 -0.0883  0.2250
 8555W        W25029   4.160   9.246  14.361  0.2036  0.1033 -0.0760
 8556W        W25030  17.179   9.828  13.947 -0.0491  0.1385  0.1797
 8557W        W25031   3.377   7.759  16.243  0.1584 -0.0265  0.0053
 8558W        W25032   5.081   8.589  14.826 -0.0891 -0.2049 -0.2620
 8559W        W25033  17.354  16.368   1.246  0.0088  0.3375  0.3097
 8560W        W25034   1.479   7.705  14.243 -0.1534  0.1458  0.0430
 8561W        W25035  16.568  16.361   2.415 -0.0851 -0.0545  0.0183
 8562W        W25036   7.342   5.714  15.933 -0.1833 -0.0318  0.2175
 8563W        W25037   8.402   6.087  11.507  0.0381  0.3979 -0.1576
 8564W        W25038   0.182  13.203  13.754  0.0638  0.0603 -0.1283
 8565W        W25039  13.244   0.824   2.814 -0.1832  0.0016  0.0509
 8566W        W25040  16.956   2.810   1.530  0.1274  0.0237 -0.0628
 8567W        W25041   8.326   2.572   0.179 -0.3085  0.0201 -0.0297
 8568W        W25042  17.189  15.632   3.339  0.2369  0.3070 -0.0460
 8569W        W25043   7.630   4.331  11.362 -0.0113 -0.2906 -0.0274
 8570W        W25044   2.844   2.754   2.083  0.0146 -0.0284  0.0292
 8571W        W25045   8.446   0.004  13.413 -0.3370 -0.0963 -0.1171
 8572W        W25046   5.919  12.647  15.437 -0.3586 -0.1460  0.1842
 8573W        W25047   2.130   7.032   5.716  0.3863 -0.1207  0.0977
 8574W        W25048  12.468   1.009   1.120  0.1357 -0.0295 -0.4544
 8575W        W25049  15.314  13.964  15.626 -0.1809 -0.2455 -0.0933
 8576W        W25050   9.244   9.850  14.973  0.2048 -0.0297 -0.0035
 8577W        W25051   5.124   6.254  15.794  0.1437 -0.2813 -0.0997
 8578W        W25052   3.029   0.484  14.029 -0.3394  0.1527 -0.0370
 8579W        W25053  17.781  15.631   1.036  0.0975 -0.0419  0.2702
 8580W        W25054   7.071  14.390  13.525  0.0752 -0.3174  0.1654
 8581W        W25055  13.585  13.064   0.289 -0.0359 -0.0715 -0.1685
 8582W        W25056   4.447   6.434   1.878  0.1718 -0.2471 -0.3533
 8583W        W25057  15.615   3.579   2.317  0.0502 -0.2442 -0.0759
 8584W        W25058   8.066   2.437   5.025 -0.2955 -0.0167 -0.0953
 8585W        W25059   8.714  15.282   4.114 -0.0750  0.0479  0.0629
 8586W        W25060   8.635   1.766  14.828  0.0414  0.1760 -0.0410
 8587W        W25061  12.413   7.557  11.920  0.2997 -0.0767  0.2720
 8588W        W25062  11.508  14.662   5.196  0.0917 -0.1602  0.2511
 8589W        W25063  14.861   1.576   5.457  0.0344  0.2128 -0.1521
 8590W        W25064  15.012   2.686  14.801  0.0438 -0.0580  0.0310
 8591W        W25065   0.417  17.847   2.878 -0.2626 -0.0987  0.0124
 8592W        W25066   6.485   6.709   1.064  0.0234  0.0158  0.0716
 8593W        W25067   2.140   6.603   4.024 -0.0335  0.0020  0.1518
 8594W        W25068   7.023   4.781  15.989  0.5302  0.0287 -0.1644
 8595W        W25069   3.793   2.419  12.499 -0.0392 -0.0438  0.0691
 8596W        W25070   8.223  16.045  14.081  0.0110 -0.0550  0.2405
 8597W        W25071   0.946   3.564   5.142 -0.1107  0.0196 -0.2152
 8598W        W25072  11.778   2.276   3.688  0.3601  0.3953 -0.0693
 8599W        W25073   8.540   3.860   5.813  0.1689  0.0509  0.4401
 8600W        W25074   0.632   7.300  12.148  0.0306  0.0999 -0.1431
 8601W        W25075   4.719   8.741   0.013 -0.1943  0.0640 -0.0045
 8602W        W25076  10.203  17.369   4.505  0.0857  0.0734 -0.0873
 8603W        W25077  11.357   9.878  12.469  0.0073 -0.0520 -0.1460
 8604W        W25078   2.137   9.428   1.727 -0.0217 -0.1282 -0.0741
 8605W        W25079   8.436  12.013   5.094 -0.0594 -0.2272 -0.1646
 8606W        W25080   6.687  10.374  11.285 -0.1229  0.0390  0.1282
 8607W        W25081   2.066   6.873   1.712  0.0982  0.0343 -0.2732
 8608W        W25082   9.210   3.796  11.633  0.1173  0.2259 -0.1830
 8609W        W25083   2.976  10.968   0.922  0.0006 -0.2681  0.1463
 8610W        W25084   3.053  10.646  15.932  0.3196 -0.2072  0.0394
 8611W        W25085  13.892   0.326   2.543 -0.2151 -0.2913  0.0591
 8612W        W25086  10.352  17.918   1.796 -0.0053 -0.2573 -0.1540
 8613W        W25087   2.225  11.621   2.522 -0.1476 -0.2393 -0.2363
 8614W        W25088   4.042  17.985   4.082  0.3603  0.2088 -0.2533
 8615W        W25089  15.540   6.968   4.249 -0.1853 -0.3608  0.0307
 8616W        W25090   4.733  17.088   3.329  0.1042 -0.0221 -0.0247
 8617W        W25091   7.034  15.028   1.831  0.1842  0.0914 -0.4232
 8618W        W25092   8.026   4.201  13.349 -0.1843  0.0361  0.2408
 8619W        W25093  11.560   8.149   2.451  0.1969 -0.0372 -0.0220
 8620W        W25094  16.948  15.296   5.582 -0.2046 -0.1867  0.0205
 8621W        W25095   6.747   9.525   1.767 -0.2416  0.0251 -0.3685
 8622W        W25096   8.078   7.515   3.468  0.0223  0.2274 -0.2278
 8623W        W25097  14.003  13.062  15.810  0.2903 -0.0622 -0.1261
 8624W        W25098   4.178  13.608  12.570 -0.0429  0.0968 -0.0169
 8625W        W25099   0.067   7.537   6.326 -0.1067  0.0569 -0.1147
 8626W        W25100  10.185   7.562   3.283  0.0721  0.0559 -0.1019
 8627W        W25101  13.755   5.014  14.662  0.1580 -0.3291 -0.2422
 8628W        W25102   8.728  17.755  11.359 -0.3727 -0.3376 -0.3219
 8629W        W25103   6.285  13.888   1.166  0.2261 -0.0344  0.1512
 8630W        W25104  15.651   2.727  11.737  0.1610  0.2794 -0.2577
 8631W        W25105  17.414   2.303  13.046  0.2478  0.0142 -0.1152
 8632W        W25106   2.449   7.805  12.878 -0.0863  0.1255 -0.2094
 8633W        W25107  10.446  15.068   2.230 -0.3427 -0.1954  0.2487
 8634W        W25108  14.224   7.109   0.657 -0.2206  0.0414 -0.0768
 8635W        W25109  18.261  12.471  15.925 -0.4289 -0.1688 -0.1488
 8636W        W25110   8.140   5.802   0.887  0.0414  0.1468 -0.3058
 8637W        W25111  10.790   8.818  11.530 -0.2693 -0.0585 -0.0545
 8638W        W25112   6.374  18.265   3.302  0.0009 -0.1576  0.0659
 8639W        W25113  17.724  16.715   3.152 -0.1516  0.1644  0.0939
 8640W        W25114   6.362   1.253  15.476 -0.3226 -0.1301 -0.1282
 8641W        W25115   5.426   5.782  13.395 -0.2664  0.1064  0.2631
 8642W        W25116   6.687  12.932  11.503 -0.0083  0.1056  0.2031
 8643W        W25117   9.019   2.206  14.402 -0.1994 -0.2401  0.1796
 8644W        W25118   8.465  16.352  14.759  0.1908 -0.0310 -0.0635
 8645W        W25119   7.618   4.878  15.596 -0.1334 -0.0578  0.1828
 8646W        W25120  16.396  11.251   3.750  0.0614 -0.0542  0.2263
 8647W        W25121  10.942   8.074  16.185  0.0868  0.0263  0.4768
 8648W        W25122   9.719   2.091   5.103 -0.0733  0.1305  0.2886
 8649W        W25123  11.263   2.345   0.355 -0.1436 -0.0692 -0.1536
 8650W        W25124   3.723   8.866   0.418 -0.0739 -0.2297 -0.4332
 8651W        W25125  13.264   5.673  14.832 -0.2997 -0.0914 -0.1591
 8652W        W25126  11.588   2.190  12.040 -0.4270  0.0592 -0.0137
 8653W        W25127  12.036   1.964   3.976  0.0281  0.1131 -0.0315
 8654W        W25128   3.340  18.279   2.268 -0.3064 -0.1795 -0.0823
 8655W        W25129  15.326  11.727  15.817 -0.2167  0.3783 -0.0752
 8656W        W25130  17.287   6.618  12.070  0.5606 -0.3352 -0.2692
 8657W        W25131  11.472   8.234  15.184 -0.4026 -0.0021 -0.1419
 8658W        W25132  15.427   4.872   0.768  0.0259  0.1966 -0.1246
 8659W        W25133  17.310   8.866   4.934 -0.0324 -0.1861 -0.0136
 8660W        W25134  14.922  10.966  13.636  0.2436 -0.1462 -0.2302
 8661W        W25135   4.123   0.906   2.163 -0.2118 -0.2119 -0.4576
 8662W        W25136  17.396  15.036  11.461 -0.1398  0.0608  0.1332
 8663W        W25137   5.768   2.616   2.040 -0.1052 -0.0387  0.0364
 8664W        W25138   6.964   3.172   2.378  0.2954  0.0196 -0.0309
 8665W        W25139   9.212   1.649   4.069 -0.0983  0.3416 -0.2015
 8666W        W25140  15.811  14.225  15.628 -0.1313 -0.2112 -0.0505
 8667W        W25141   3.429   6.715   1.438 -0.0313  0.0800  0.0382
 8668W        W25142  17.819   9.129   1.093  0.0255 -0.2238  0.1341
 8669W        W25143   0.114   3.693  14.039  0.2992 -0.2588  0.1307
 8670W        W25144  14.014  12.769   0.407  0.0542  0.0562 -0.0691
 8671W        W25145   8.718  12.422  14.708  0.1862  0.0550 -0.1069
 8672W        W25146  11.710  11.966  15.975  0.0814  0.3715  0.1518
 8673W        W25147   4.839   8.678   3.493  0.0117  0.0965  0.1965
 8674W        W25148   4.994   0.362   1.014  0.1245  0.0230 -0.0270
 8675W        W25149   9.105   9.057  12.576 -0.0916  0.0684  0.2446
 8676W        W25150   7.333   3.400   5.416  0.1440 -0.0181 -0.1683
 8677W        W25151  15.559  11.267   0.671  0.0363 -0.0989 -0.1912
 8678W        W25152   7.057   2.655   2.205  0.1025 -0.1878  0.0262
 8679W        W25153   3.366  13.687  15.556  0.2863 -0.2469  0.0892
 8680W        W25154   3.534  16.496  14.024  0.2329  0.1171 -0.2987
 8681W        W25155  12.809   9.236   4.778 -0.2872 -0.1363 -0.1210
 8682W        W25156   5.789   7.080   5.505  0.1155  0.2036 -0.2939
 8683W        W25157   7.070   8.433   4.313 -0.1819 -0.1269 -0.0984
 8684W        W25158   7.202  15.233   2.307  0.2417 -0.1516 -0.0349
 8685W        W25159   8.177   3.436  14.823 -0.2201 -0.0429  0.4755
 8686W        W25160   4.780   0.306  15.377 -0.1070  0.3191  0.2816
 8687W        W25161   7.981   1.969  11.464  0.1709 -0.0491 -0.0877
 8688W        W25162  16.678  17.011  14.853  0.0067  0.1719  0.1716
 8689W        W25163   1.323  10.642   4.676 -0.0091 -0.0931  0.3438
 8690W        W25164  11.286  12.167  15.519 -0.0354 -0.0959 -0.2080
 8691W        W25165  17.345   0.579   1.169 -0.2949 -0.1377 -0.0301
 8692W        W25166   1.149  15.578   4.248  0.0793  0.2184 -0.3264
 8693W        W25167   0.778   3.650  11.843  0.0425 -0.1244  0.0305
 8694W        W25168  15.146   7.196   0.385 -0.1682  0.0478  0.1449
 8695W        W25169  17.488   4.470   1.527 -0.1985 -0.0958 -0.0894
 8696W        W25170   0.958  14.960  12.216  0.1060 -0.0649 -0.0548
 8697W        W25171  15.544  11.044  11.545 -0.0837 -0.0738  0.2110
 8698W        W25172   0.953  11.852   3.194 -0.1156 -0.0050  0.0265
 8699W        W25173  10.252   5.942  11.508  0.0116 -0.0393  0.1544
 8700W        W25174  10.946   9.085  14.337  0.0040  0.2242  0.0749
 8701W        W25175  11.697   9.087  12.431 -0.1473 -0.2852 -0.1264
 8702W        W25176  13.740   1.941   4.641 -0.4016  0.1250 -0.1087
 8703W        W25177  11.354  15.365  12.401 -0.1064  0.0520 -0.2829
 8704W        W25178   1.499  17.190   1.565 -0.2234  0.4447 -0.1647
 8705W        W25179  10.610   9.803   1.992 -0.4657  0.0516 -0.1181
 8706W        W25180  10.699   2.224   1.048  0.0686  0.1399  0.1316
 8707W        W25181   2.201  15.376  11.848  0.1175  0.1347  0.0977
 8708W        W25182   3.839   3.276   4.190 -0.0064 -0.2193 -0.1258
 8709W        W25183  10.966  12.056   0.924 -0.1580  0.2522  0.1864
 8710W        W25184   7.960   3.445  11.227 -0.2156 -0.2602 -0.2027
 8711W        W25185   5.919   5.943   3.790 -0.0223 -0.1176  0.2130
 8712W        W25186   6.895   0.990   4.456  0.1739 -0.0742  0.0146
 8713W        W25187   5.586   9.435  15.705 -0.1577  0.0227  0.0910
 8714W        W25188   5.834   4.801   3.523 -0.1057  0.1536  0.0356
 8715W        W25189   1.856   8.153   4.977 -0.0817 -0.1497  0.1685
 8716W        W25190  13.125   7.358  13.729 -0.0882 -0.0089  0.2193
 8717W        W25191  15.019   4.408   1.842  0.4375  0.0456  0.0210
 8718W        W25192   2.805   9.224  11.367  0.0920  0.1625 -0.2354
 8719W        W25193   8.483  12.260  15.671  0.1350  0.1228 -0.2448
 8720W        W25194  13.325   2.503  11.969  0.0416  0.1154  0.1136
 8721W        W25195   4.357  10.562   3.036 -0.1313  0.1246 -0.0903
 8722W        W25196  12.899   0.811  15.168  0.0238 -0.0428  0.1417
 8723W        W25197  17.734   2.740   2.632  0.1655  0.1636 -0.2923
 8724W        W25198   9.868  11.272   1.413 -0.0697 -0.0163  0.0086
 8725W        W25199   4.897   2.071  15.265  0.0592  0.3365 -0.1420
 8726W        W25200  10.567  10.302   2.013 -0.1598  0.1469  0.1348
 8727W        W25201  17.364   7.584   3.196  0.1776 -0.0432 -0.1067
 8728W        W25202   6.408  11.725  14.645  0.1798 -0.0939  0.0744
 8729W        W25203   0.920   2.609  15.483  0.0303 -0.0623 -0.0076
 8730W        W25204  12.790  12.611  12.226 -0.5990  0.0184 -0.1380
 8731W        W25205  14.598   0.155   4.023  0.1553 -0.2399 -0.0048
 8732W        W25206  13.731  15.225   2.998  0.1457  0.1519  0.0814
 8733W        W25207   0.324  12.179  12.979 -0.0330  0.0889 -0.1075
 8734W        W25208  16.465  13.496   2.682 -0.0202 -0.5152  0.2389
 8735W        W25209  16.316  14.116  11.620  0.2231 -0.0814  0.2308
 8736W        W25210   7.302  13.424  13.063  0.2018  0.0593  0.2608
 8737W        W25211  11.643   2.257   4.239  0.2222 -0.0881 -0.0835
 8738W        W25212  10.946  14.464  11.474  0.0994 -0.1343  0.2205
 8739W        W25213   0.184   1.448   0.794 -0.0070 -0.0707  0.1258
 8740W        W25214  11.894   8.367  12.152 -0.1479 -0.0503 -0.2522
 8741W        W25215  15.766  16.171  12.375 -0.1683  0.1212  0.0178
 8742W        W25216   2.650   9.913   3.209  0.0863 -0.1929 -0.1097
 8743W        W25217   8.964   6.350   5.100 -0.0932  0.1384  0.0929
 8744W        W25218   4.209   5.318   4.164  0.0678 -0.1112 -0.1501
 8745W        W25219   5.205  10.021  13.140  0.0777 -0.0157  0.0320
 8746W        W25220  11.586   2.732   4.788  0.0659 -0.1533 -0.1119
 8747W        W25221  17.187   0.818  14.987  0.1614 -0.0673 -0.1798
 8748W        W25222  10.775   4.253  15.590  0.0851 -0.0462 -0.0672
 8749W        W25223  11.586   3.544  12.280 -0.0361 -0.0291 -0.1342
 8750W        W25224   4.493   2.364  12.485  0.1158 -0.0370  0.1787
 8751W        W25225   6.480  15.295  13.039 -0.0002 -0.0264 -0.0207
 8752W        W25226  17.954  18.149  13.697  0.1322  0.0276  0.0369
 8753W        W25227   7.789  10.746   6.329 -0.1543 -0.0169  0.1359
 8754W        W25228   0.690   1.889   3.896  0.0130 -0.1379 -0.0971
 8755W        W25229   5.185   1.334   1.778  0.3497  0.0765  0.0651
 8756W        W25230  16.923   7.716   3.588  0.3069  0.2944 -0.1401
 8757W        W25231   1.297   4.203  10.702  0.0438  0.2904  0.2000
 8758W        W25232   1.428   7.358  15.990 -0.1180 -0.1827 -0.1296
 8759W        W25233  13.972   0.792   2.813  0.0264  0.0013 -0.1182
 8760W        W25234   0.291   7.654   3.236  0.0567  0.1425 -0.0142
 8761W        W25235  10.328  13.190   0.643  0.3776  0.2522  0.3918
 8762W        W25236  11.630   4.440   0.738  0.0402  0.1049  0.3101
 8763W        W25237   5.323  13.144   0.776 -0.1366 -0.3546  0.0461
 8764W        W25238  13.477  13.149   4.638 -0.3661  0.2291 -0.0470
 8765W        W25239   0.988   5.415   2.564 -0.2628  0.0125 -0.0369
 8766W        W25240  14.059  14.576   5.190  0.1495 -0.0869  0.0573
 8767W        W25241   4.879   9.632   2.406  0.1058 -0.0250 -0.1153
 8768W        W25242  16.021   1.446  15.993  0.0015  0.0433  0.0363
 8769W        W25243   4.580  14.749   3.805 -0.2524 -0.0517 -0.2426
 8770W        W25244  11.594   2.985  14.915 -0.2411 -0.2016  0.1038
 8771W        W25245  13.164  12.078  15.453 -0.1168  0.0642 -0.0681
 8772W        W25246   2.370  15.164   4.843  0.0945  0.0773 -0.0924
 8773W        W25247   0.514  10.148  11.823 -0.3542  0.3047  0.1473
 8774W        W25248  13.546  14.086   0.290 -0.0083 -0.1480 -0.0613
 8775W        W25249  14.053   7.082   5.153 -0.0369  0.0646 -0.0170
 8776W        W25250   5.131   6.982   0.422  0.2016  0.1771  0.1013
 8777W        W25251   8.945   7.712  12.603  0.1035  0.2767 -0.1253
 8778W        W25252   0.857  14.315  10.540 -0.3610 -0.0077  0.0474
 8779W        W25253   0.699   6.073   1.869  0.1053 -0.1898  0.0400
 8780W        W25254   4.847  11.274  15.290  0.1756  0.1228  0.0872
 8781W        W25255   1.767   6.483  13.442 -0.4046  0.1506  0.1368
 8782W        W25256   5.853   6.721  14.657  0.2740 -0.0691 -0.2793
 8783W        W25257   5.777   7.463  13.714  0.2556  0.1826 -0.1305
 8784W        W25258   1.809  16.298  12.703  0.0129 -0.3281  0.2570
 8785W        W25259   7.626   0.124   3.279 -0.2703 -0.0248  0.1498
 8786W        W25260   4.292   1.682  13.741 -0.4643 -0.0817  0.0298
 8787W        W25261  14.276   7.855   3.402 -0.2864 -0.2333  0.0830
 8788W        W25262  10.381  11.576  13.187  0.0735 -0.0688  0.0316
 8789W        W25263  17.594  17.432  11.091 -0.2392  0.0930  0.0664
 8790W        W25264  15.402   4.253  11.970 -0.0511  0.1755  0.0784
 8791W        W25265  15.558  13.920  13.722 -0.0564  0.5975  0.2266
 8792W        W25266  17.865  10.791   4.255  0.0048  0.1058 -0.0145
 8793W        W25267   4.343  17.114   1.497 -0.1986 -0.1874  0.1212
 8794W        W25268  10.696   4.697  13.026 -0.1121 -0.1993 -0.2594
 8795W        W25269  10.207  13.333  11.687 -0.0139  0.0965 -0.2983
 8796W        W25270   7.161  17.178   0.952  0.2719 -0.2382  0.1566
 8797W        W25271   6.236  16.968  13.496 -0.0579 -0.0730 -0.2209
 8798W        W25272   2.493   7.431  15.957 -0.4242  0.0559  0.2225
 8799W        W25273   0.543  12.075  12.403 -0.1441 -0.1179 -0.3909
 8800W        W25274  11.561   2.654  12.637  0.1523  0.2046  0.0735
 8801W        W25275   3.130  11.461  14.459  0.2230  0.2361  0.0010
 8802W        W25276   5.742   4.063   0.415 -0.0698 -0.0728  0.0876
 8803W        W25277  15.310   0.854  12.312  0.4838  0.3013  0.2379
 8804W        W25278  17.642   1.105   1.952 -0.1567  0.0533 -0.0211
 8805W        W25279   7.887  16.244  15.965  0.1603 -0.2807 -0.0570
 8806W        W25280   1.597  12.873   5.293  0.2223 -0.1952  0.2563
 8807W        W25281   7.980  13.207  16.326 -0.0323  0.6435  0.0925
 8808W        W25282   2.129   7.308  15.620 -0.2108  0.1028 -0.0079
 8809W        W25283   7.843   6.913  11.303  0.1798  0.0809 -0.0003
 8810W        W25284   1.688  15.362  12.544  0.1118  0.3041  0.0408
 8811W        W25285  11.248  11.908   0.539  0.0898 -0.4793  0.0470
 8812W        W25286   7.568   0.207   0.256 -0.2817  0.2435  0.2675
 8813W        W25287  12.061  15.802  11.704 -0.0033  0.1242  0.0014
 8814W        W25288   7.645   7.557  13.311  0.1994  0.1455  0.1048
 8815W        W25289   7.393   6.874   1.374 -0.0792  0.1953  0.1123
 8816W        W25290   3.437  14.393  11.792 -0.0564 -0.0691  0.1876
 8817W        W25291   7.903   7.134   3.209  0.4073  0.0844 -0.0017
 8818W        W25292   8.081   5.502   0.410  0.0002 -0.0035  0.0617
 8819W        W25293   4.513   2.520   2.688  0.3143 -0.0385 -0.1251
 8820W        W25294  15.641   1.745   1.603  0.5112 -0.1016  0.0685
 8821W        W25295  17.069   9.391  16.241  0.4138 -0.1182 -0.0986
 8822W        W25296  15.434   6.784   2.794  0.1011  0.1916 -0.0250
 8823W        W25297   3.569  14.741  13.799  0.1534 -0.0513 -0.1819
 8824W        W25298   7.228  17.781  13.098  0.3596 -0.2996 -0.3654
 8825W        W25299  14.183   6.388  12.706 -0.2182  0.1437 -0.0017
 8826W        W25300  11.931   7.346  12.807  0.1079  0.4106 -0.0034
 8827W        W25301   9.899   1.797  16.207  0.3614 -0.1454  0.0567
 8828W        W25302   9.598   7.893   5.355  0.1356 -0.1587 -0.2284
 8829W        W25303   6.616   9.901   3.384 -0.1014 -0.2829 -0.1594
 8830W        W25304   7.025  12.258   4.076  0.1318 -0.0570 -0.1046
 8831W        W25305  12.727   1.298  14.365 -0.2032  0.1862 -0.0670
 8832W        W25306  13.229  17.933   3.256  0.0045  0.0753  0.0461
 8833W        W25307   9.522   6.866   0.015 -0.3782  0.0636 -0.0811
 8834W        W25308  14.588  13.656   4.109 -0.2604  0.0376  0.4279
 8835W        W25309  17.534  12.114   4.598 -0.1754  0.1072  0.2523
 8836W        W25310  10.792   7.202   4.715  0.1404 -0.0456 -0.0601
 8837W        W25311   6.839  14.603   3.615 -0.1250 -0.2853  0.1066
 8838W        W25312   1.195  14.543  14.226 -0.0464 -0.1613  0.1944
 8839W        W25313   9.258   7.629   3.841 -0.2017 -0.1387  0.0869
 8840W        W25314   1.886   3.770   4.765 -0.0326  0.0921 -0.0114
 8841W        W25315   2.460   3.485   0.872  0.0495 -0.0660  0.0930
 8842W        W25316  10.810  15.241  12.434 -0.0440 -0.1473  0.3494
 8843W        W25317   6.163   1.449   1.683 -0.1335 -0.1484 -0.3183
 8844W        W25318   1.954  17.255   0.084  0.0780  0.2939  0.1331
 8845W        W25319   3.367   6.379  16.102  0.1216  0.0861  0.0637
 8846W        W25320  17.913  18.129   4.885 -0.1048 -0.2675 -0.0200
 8847W        W25321   8.872   7.003   4.550 -0.0470  0.1080 -0.2416
 8848W        W25322   7.427   3.995   2.617 -0.1786  0.2494  0.2407
 8849W        W25323   4.346  17.876   4.660  0.2651  0.3088 -0.0420
 8850W        W25324   8.513  10.071   1.825  0.0710  0.2866  0.1059
 8851W        W25325   3.668  15.864  15.244 -0.3201 -0.2321 -0.0681
 8852W        W25326   6.038   5.650  14.138 -0.1451  0.0849 -0.0132
 8853W        W25327   5.388   0.798   3.136 -0.2509  0.2480 -0.2199
 8854W        W25328   7.891  16.873   3.430 -0.1757  0.2004 -0.0163
 8855W        W25329   2.290   0.338  12.773 -0.0764  0.1068 -0.3507
 8856W        W25330   4.327  12.687  11.558 -0.3038  0.1936 -0.0179
 8857W        W25331   3.159   7.929   0.418  0.2183  0.1359  0.3085
 8858W        W25332   3.410  18.289  11.094 -0.1301  0.2621 -0.1098
 8859W        W25333  14.852  12.955   5.181 -0.0215 -0.0423  0.0523
 8860W        W25334  10.992  16.420  15.828  0.2195  0.0077  0.0466
 8861W        W25335  14.685   3.922   1.408 -0.2014 -0.0306 -0.0760
 8862W        W25336  14.439  13.890   5.588  0.2268  0.1554  0.2519
 8863W        W25337  11.997   8.898   4.765 -0.1749 -0.1504 -0.0338
 8864W        W25338  11.159  11.123  14.266 -0.0835 -0.0035 -0.0114
 8865W        W25339   0.590   8.151  15.518 -0.2181 -0.3521 -0.2005
 8866W        W25340   1.003   1.683   0.352  0.0002 -0.0517 -0.6077
 8867W        W25341   0.285   5.416  13.030  0.0184  0.0984  0.1909
 8868W        W25342   9.856   8.603   2.101  0.1692  0.4268 -0.0323
 8869W        W25343   0.159   4.607  12.512  0.1795 -0.0239 -0.1675
 8870W        W25344   0.421   1.597  11.335 -0.0463  0.1498 -0.4176
 8871W        W25345   0.421   1.708  16.303  0.1378 -0.1250 -0.1635
 8872W        W25346   6.213   5.651   3.096  0.2273  0.0360  0.0259
 8873W        W25347  12.838  14.743   1.946  0.4197  0.1332  0.1912
 8874W        W25348   0.660  14.688   4.057 -0.1374  0.4100 -0.3011
 8875W        W25349   5.259   5.733   3.467  0.1494 -0.2078 -0.0315
 8876W        W25350  13.038  10.193   5.420 -0.0106  0.0122  0.3248
 8877W        W25351  17.596  14.420  15.033 -0.0853 -0.2094 -0.1306
 8878W        W25352   7.228  15.614   1.076 -0.3791  0.0065 -0.2006
 8879W        W25353   3.809  11.829  15.243 -0.1617  0.0580 -0.0623
 8880W        W25354  17.226   2.704  13.987 -0.0521  0.3399 -0.1831
 8881W        W25355  17.033  11.498  14.360 -0.1368 -0.0970  0.1884
 8882W        W25356   1.066  12.826  14.170 -0.0400 -0.0569  0.0932
 8883W        W25357   0.971   9.787  15.609  0.2415  0.1503 -0.5697
 8884W        W25358   6.644   5.176   4.532 -0.0361 -0.0195  0.1798
 8885W        W25359  13.305   0.704  15.809 -0.2593  0.3292 -0.0871
 8886W        W25360   4.516   7.044  12.528  0.0901 -0.1530  0.3953
 8887W        W25361  11.864  15.654  15.127  0.0887 -0.1018 -0.0659
 8888W        W25362  17.680  10.705  14.334  0.1852 -0.0114  0.2145
 8889W        W25363   0.814  10.402  14.907 -0.0086  0.2738 -0.1956
 8890W        W25364  16.002  14.174   3.738 -0.1308 -0.2368  0.1229
 8891W        W25365   5.245   2.152  12.725  0.2610 -0.1677 -0.2781
 8892W        W25366  10.349   7.615   3.803 -0.4669 -0.0525 -0.0884
 8893W        W25367  15.523  14.578   2.262 -0.0660  0.2533 -0.2192
 8894W        W25368  14.043  10.187  14.901 -0.0138  0.0090  0.1606
 8895W        W25369   6.169  14.566   5.048  0.0267  0.0265 -0.0381
 8896W        W25370  10.094  12.029  12.449 -0.1084 -0.0526  0.2017
 8897W        W25371  17.915  16.399   2.720 -0.1910  0.0727 -0.1186
 8898W        W25372   3.035   7.341  11.890  0.0121  0.2118  0.0828
 8899W        W25373   4.691   0.031  12.699  0.0332  0.3161 -0.3417
 8900W        W25374   6.522   7.195   0.986 -0.0308  0.2569 -0.0998
 8901W        W25375   3.697  11.035   4.940  0.0349  0.2052 -0.2460
 8902W        W25376  15.952  14.708   4.633 -0.2555 -0.1703 -0.1292
 8903W        W25377  16.368   6.549  12.049  0.0691  0.2233  0.0040
 8904W        W25378  11.827   0.192  12.036 -0.1208 -0.3323 -0.4465
 8905W        W25379   8.418  16.209  16.231 -0.1239  0.1679  0.0294
 8906W        W25380  18.030   8.015  16.015  0.1562 -0.3216 -0.0923
 8907W        W25381   3.408   3.489   3.989  0.1441  0.1333 -0.3633
 8908W        W25382   8.616   1.671   1.686 -0.2266  0.1512 -0.1457
 8909W        W25383   9.347  12.676   1.342 -0.2369 -0.1800  0.0918
 8910W        W25384  16.514   2.556  12.796  0.2832 -0.0271  0.0043
 8911W        W25385   9.249   7.798   0.785 -0.3287  0.1039 -0.2422
 8912W        W25386   4.154  12.132   3.255 -0.0701 -0.1375  0.2634
 8913W        W25387  10.509   3.338  15.757  0.0703 -0.0450  0.2147
 8914W        W25388   3.298  12.180  11.895  0.2146  0.1463  0.2104
 8915W        W25389   9.243  12.586   2.664  0.0570 -0.0152  0.0784
 8916W        W25390  10.731   6.992  11.277 -0.1914 -0.0538  0.0093
 8917W        W25391   4.780  11.223   3.877  0.1161  0.1926 -0.3979
 8918W        W25392   0.627   0.927   2.110  0.4166 -0.2113  0.1488
 8919W        W25393   2.897  16.592  15.229  0.2140  0.0167 -0.0360
 8920W        W25394  13.439   7.296  16.038  0.0554 -0.3831  0.3840
 8921W        W25395   8.770   8.840  15.005 -0.1513 -0.0990  0.0864
 8922W        W25396   6.255   8.837   3.882 -0.2290  0.2698 -0.1630
 8923W        W25397  16.640  11.378  10.954 -0.1151  0.1135 -0.1644
 8924W        W25398  16.591  16.353  14.585 -0.0156  0.1361 -0.2031
 8925W        W25399  13.230   4.541  12.319 -0.2074 -0.1662 -0.0875
 8926W        W25400   1.090  15.261  12.620  0.0591  0.0835  0.0193
 8927W        W25401   3.853  13.240  13.255  0.4363 -0.0010  0.2329
 8928W        W25402   0.735   7.647   1.951 -0.1039  0.1629  0.1392
 8929W        W25403  17.747   3.134   0.797 -0.0142  0.1392  0.0185
 8930W        W25404   6.602  16.620   4.912  0.0104  0.0261 -0.3433
 8931W        W25405   0.909  11.608   5.685  0.0364 -0.0426 -0.0252
 8932W        W25406  13.198  13.147   5.310 -0.1766  0.0411  0.0330
 8933W        W25407   2.206   9.673   0.680 -0.0766 -0.1476 -0.0543
 8934W        W25408   1.873   6.687  14.356  0.1724  0.0417 -0.0127
 8935W        W25409   6.780  11.914   2.425 -0.2382 -0.2571 -0.1100
 8936W        W25410   6.228   6.262  12.447  0.3526 -0.1171 -0.1260
 8937W        W25411   7.323  13.716  16.137  0.7346  0.2182 -0.0698
 8938W        W25412  10.295  12.438  15.645  0.1000  0.2335  0.1109
 8939W        W25413  18.192   4.210  12.720  0.3719 -0.2900 -0.1027
 8940W        W25414   3.202  15.874   0.953  0.1902 -0.3471 -0.1724
 8941W        W25415   9.055   0.861   3.474 -0.0291  0.1560  0.2363
 8942W        W25416   9.589   9.670  11.473  0.0234  0.1465 -0.0811
 8943W        W25417  14.277   6.144  11.773  0.0854  0.2302  0.0644
 8944W        W25418  15.534   0.262   1.177  0.2535 -0.0718 -0.1895
 8945W        W25419   1.183  15.294  14.918 -0.1512  0.1192  0.0276
 8946W        W25420   2.233  11.334   3.395 -0.4262 -0.0700  0.2897
 8947W        W25421  10.124  15.005   0.335 -0.4459 -0.0406 -0.1049
 8948W        W25422   1.749  13.524  12.262 -0.2658 -0.0494 -0.1648
 8949W        W25423  16.396  14.456  15.448  0.1659 -0.2445  0.0329
 8950W        W25424  10.682   4.603   4.405 -0.2490 -0.1121 -0.0559
 8951W        W25425   8.286   7.572   0.767 -0.0827 -0.0519  0.1989
 8952W        W25426   1.891   9.434   0.252 -0.1108 -0.0985 -0.0976
 8953W        W25427   5.002   7.144   5.091 -0.0423 -0.1419  0.0101
 8954W        W25428  17.248   6.974  11.643  0.0162  0.0599  0.1228
 8955W        W25429   7.745  12.484   5.248 -0.1156 -0.0178  0.0795
 8956W        W25430   6.790   5.408  13.679  0.2240 -0.0234 -0.2011
 8957W        W25431  11.662  10.105  14.463 -0.0512 -0.1527  0.3090
 8958W        W25432   3.945  11.463   4.198  0.0590 -0.1223  0.0896
 8959W        W25433  14.555   5.366  16.161 -0.0382  0.2058 -0.0934
 8960W        W25434   8.824  12.987  12.453  0.1069  0.2016  0.1623
 8961W        W25435  15.058   7.135  15.683 -0.1555 -0.0885  0.0176
 8962W        W25436   8.593  17.342   3.533  0.1484  0.2287  0.2342
 8963W        W25437   1.435  15.112   3.314 -0.0493 -0.0261  0.1425
 8964W        W25438   7.055   7.305   0.861 -0.0714 -0.0130 -0.1301
 8965W        W25439   7.673   9.199   1.381 -0.0554  0.3326  0.0365
 8966W        W25440  15.164   9.162  15.216  0.2660 -0.3803  0.1964
 8967W        W25441  10.781   0.558  14.008 -0.1034  0.0023 -0.0012
 8968W        W25442  17.491  15.038   0.507 -0.1830  0.1915 -0.1735
 8969W        W25443  11.763   5.152   2.305 -0.3467  0.1570 -0.0178
 8970W        W25444   3.949  12.247   2.805  0.1377 -0.0444  0.2421
 8971W        W25445  17.954  15.363   3.447  0.3417  0.2972 -0.0847
 8972W        W25446   4.998  14.488   0.331  0.0906 -0.1146 -0.2009
 8973W        W25447  15.009   3.773   2.639 -0.0798  0.0100  0.1368
 8974W        W25448   0.597   2.272  11.514 -0.0455 -0.0168  0.1583
 8975W        W25449   0.412   4.284   1.802 -0.2538 -0.1864  0.0444
 8976W        W25450   2.199  12.214  11.222  0.3532 -0.1944  0.3950
 8977W        W25451   1.547   0.246  13.675 -0.2848  0.1098  0.3016
 8978W        W25452  11.144   8.594  14.350 -0.1057 -0.1047 -0.0080
 8979W        W25453   8.176  18.202   3.370 -0.1910 -0.2855 -0.1544
 8980W        W25454   0.929   9.878  15.065 -0.5485  0.1618  0.0607
 8981W        W25455  10.404  12.975  15.665 -0.0576  0.0943 -0.0111
 8982W        W25456   4.502   9.550   4.534 -0.2673  0.0187  0.2547
 8983W        W25457  10.000  12.440  13.292 -0.0057  0.3128  0.1417
 8984W        W25458  17.685  13.190   3.224  0.1900 -0.2012 -0.0588
 8985W        W25459   3.685   6.236  13.958  0.1213 -0.0167  0.0826
 8986W        W25460   4.044   6.410  11.793  0.0063 -0.0318 -0.0157
 8987W        W25461  15.133  13.784  12.635 -0.1205  0.1093  0.3023
 8988W        W25462  14.441   9.328   5.123  0.1922  0.0868 -0.0988
 8989W        W25463  10.342   5.591  15.498 -0.0942 -0.2011 -0.1049
 8990W        W25464  17.679   9.846  11.847 -0.0240 -0.1874  0.0494
 8991W        W25465   6.541   8.920  14.386 -0.1540  0.0052  0.1141
 8992W        W25466   0.633   7.638   4.557  0.1378 -0.3738 -0.1908
 8993W        W25467   6.626   9.102  13.457  0.0102 -0.0491  0.2822
 8994W        W25468   6.521   4.331   4.788 -0.2423 -0.2631  0.0015
 8995W        W25469   0.564  16.523   2.454 -0.1976 -0.1952  0.0736
 8996W        W25470  17.134  13.610  15.596 -0.0886  0.1490  0.2216
 8997W        W25471   2.618   4.180  14.950 -0.1386 -0.1345  0.0461
 8998W        W25472  11.876  13.646   1.433 -0.0387  0.1196  0.1484
 8999W        W25473  16.163   2.909  12.564 -0.1068  0.3763 -0.2755
 9000W        W25474   1.809   1.716  15.400  0.0762 -0.3200  0.1463
 9001W        W25475  14.566  15.953  13.866  0.1054 -0.1754  0.1528
 9002W        W25476   9.691  15.498   3.151  0.4224 -0.0514  0.0027
 9003W        W25477   5.354  14.525   2.520  0.2687 -0.0062  0.2190
 9004W        W25478   7.285   7.865   3.256  0.1108  0.2486 -0.3323
 9005W        W25479   0.145  12.258  11.575  0.2251 -0.0301  0.2699
 9006W        W25480  10.024   3.169   5.164  0.3635  0.0820 -0.2488
 9007W        W25481   2.279  13.162   3.805  0.0004  0.1391 -0.1952
 9008W        W25482  14.375   5.153  11.438 -0.2232  0.1913 -0.1701
 9009W        W25483   0.989  15.921   3.160  0.0085  0.1079  0.3036
 9010W        W25484   3.643  12.164   3.973  0.1542 -0.0497 -0.2208
 9011W        W25485  15.619   5.127   3.462 -0.1908 -0.1146  0.0503
 9012W        W25486  11.025   4.870  12.200 -0.0845 -0.0025  0.1468
 9013W        W25487  14.660  10.227  12.772 -0.0950 -0.0242 -0.0391
 9014W        W25488  10.557   5.631   2.337  0.0676 -0.0567  0.0641
 9015W        W25489   4.198   2.785  11.713  0.2577 -0.4186 -0.0511
 9016W        W25490  17.339   1.426  12.159  0.0319  0.0331  0.1063
 9017W        W25491  16.208   9.889  13.314  0.0737 -0.0817  0.2024
 9018W        W25492   0.147   5.862   3.568  0.0876  0.1219 -0.0096
 9019W        W25493  10.478  16.772  11.784  0.0368  0.2806  0.0220
 9020W        W25494   9.503   0.721   2.751  0.1101 -0.2384  0.2024
 9021W        W25495   4.233   4.196   2.174  0.0013 -0.3112  0.0086
 9022W        W25496  11.761   0.184   1.665  0.1015  0.2376 -0.1972
 9023W        W25497  10.661  15.541   0.736  0.2691 -0.0355  0.1539
 9024W        W25498  14.849  11.817   4.852  0.2271  0.1592 -0.0427
 9025W        W25499   5.485   0.326  15.173 -0.1349  0.4346 -0.1376
 9026W        W25500   5.782   9.040  15.384  0.0503 -0.0878  0.0011
 9027W        W25501   3.153   2.600  15.386 -0.2286  0.3986 -0.1902
 9028W        W25502   5.197   0.760   0.743 -0.1896 -0.2102 -0.1375
 9029W        W25503   4.267  16.153   1.088 -0.0059 -0.0694  0.2685
 9030W        W25504   2.232   2.721  10.959  0.0109  0.0960 -0.3184
 9031W        W25505   9.315   6.992   4.296 -0.0797  0.0158 -0.2904
 9032W        W25506   5.832  13.177  13.867  0.1097 -0.0706 -0.0752
 9033W        W25507   1.509   4.731  14.632  0.1927 -0.0376 -0.1513
 9034W        W25508   5.924  12.000  13.443 -0.0548  0.3414 -0.0038
 9035W        W25509   8.022  11.804  12.205 -0.2244 -0.3233 -0.0195
 9036W        W25510  14.319   8.336  11.475 -0.2927  0.1294  0.0887
 9037W        W25511   9.456   0.740   3.221 -0.2291 -0.3204  0.2555
 9038W        W25512  15.855  12.653   1.244 -0.0342  0.0135 -0.0747
 9039W        W25513   7.528   2.050  14.806  0.3172  0.1718  0.2461
 9040W        W25514  11.713  17.861  13.996  0.2119  0.0603  0.5167
 9041W        W25515  11.181  13.147   4.242 -0.0366  0.0361 -0.2465
 9042W        W25516   9.422  17.519   0.618  0.1631  0.0268  0.0229
 9043W        W25517   2.608   8.360  12.347  0.1601  0.1274 -0.2976
 9044W        W25518  16.039  11.857  16.206  0.0526 -0.2063  0.1845
 9045W        W25519   8.980  16.463   4.948  0.4262  0.0636  0.4008
 9046W        W25520   0.856  14.923  15.232 -0.3919  0.1701 -0.3471
 9047W        W25521  16.150  17.508   5.302 -0.1960  0.0959 -0.0440
 9048W        W25522   8.310  12.892   5.122  0.1892 -0.0939  0.0474
 9049W        W25523   3.442   7.980   4.743  0.0797 -0.1970  0.2721
 9050W        W25524  15.841   4.865  11.190  0.0128 -0.1191  0.1087
 9051W        W25525   8.114  15.804   4.073  0.0166  0.0554  0.0909
 9052W        W25526   6.425   2.184   0.466  0.2474 -0.0295  0.1794
 9053W        W25527  13.195   1.238   2.375 -0.1157 -0.0590  0.0231
 9054W        W25528  13.474  10.725   6.674 -0.0395  0.2179  0.1662
 9055W        W25529   0.778  11.612  15.275 -0.3533  0.1395 -0.1209
 9056W        W25530  10.538  10.413   0.146  0.2484 -0.0209  0.1310
 9057W        W25531  10.280  18.181  14.322 -0.0757 -0.0758  0.0582
 9058W        W25532   1.233   5.536  12.979 -0.2528  0.0086  0.3058
 9059W        W25533  10.383  17.898   4.858 -0.0457  0.3385 -0.1247
 9060W        W25534   8.088  13.461   0.439 -0.2661 -0.1787  0.3467
 9061W        W25535   0.546  10.259   3.171 -0.2489 -0.2712  0.0524
 9062W        W25536  15.231   0.224  12.762  0.2562 -0.2715 -0.0743
 9063W        W25537   2.025  14.604   4.230 -0.0318 -0.2640 -0.1828
 9064W        W25538   8.140   5.810   3.645 -0.1373 -0.2855  0.1652
 9065W        W25539  17.559  13.940  12.219  0.1407  0.0165  0.0519
 9066W        W25540   8.238  16.051   4.499  0.1223 -0.0707  0.0007
 9067W        W25541  13.950   2.820   1.772 -0.4454  0.4061  0.0662
 9068W        W25542  11.618   8.531   5.617  0.0333  0.0708  0.0162
 9069W        W25543   5.999   4.494  11.271  0.0766  0.0387 -0.1361
 9070W        W25544  13.688   5.021  13.701 -0.0607  0.1051  0.0392
 9071W        W25545   0.327  15.599  15.928  0.5121  0.1042  0.1461
 9072W        W25546  14.846  15.214   0.957 -0.0282 -0.3002 -0.0073
 9073W        W25547  16.526  16.593  13.496 -0.1485 -0.1779 -0.1953
 9074W        W25548  10.635   3.601   2.682  0.1994 -0.1394 -0.1081
 9075W        W25549   3.729   2.447  13.926 -0.0038 -0.0332 -0.2513
 9076W        W25550  13.991  14.936   4.769  0.4312  0.2056 -0.1139
 9077W        W25551   9.504   4.631  10.869 -0.1118 -0.0079 -0.1028
 9078W        W25552   5.197  16.873   3.057 -0.2268 -0.0847  0.1871
 9079W        W25553   0.266   9.313   4.380 -0.0908  0.0225 -0.1783
 9080W        W25554  16.929  16.821   4.220  0.0833 -0.1731  0.2065
 9081W        W25555   4.794  13.041   0.882 -0.0465 -0.0152  0.0862
 9082W        W25556  10.012   2.483   4.566 -0.0274 -0.3317 -0.5493
 9083W        W25557   9.190   2.496  11.573 -0.0700  0.3512 -0.1028
 9084W        W25558  17.994   4.622   3.949  0.1797 -0.1718  0.0478
 9085W        W25559   3.086   2.219  16.263  0.0255 -0.0651  0.0183
 9086W        W25560  15.209   3.813  13.497  0.2254 -0.1858  0.0995
 9087W        W25561   9.192   9.387   5.234 -0.3761  0.0151 -0.1551
 9088W        W25562   7.529  14.276  12.783 -0.0359 -0.3456  0.0049
 9089W        W25563   1.965   3.562  16.080 -0.3691 -0.2204  0.3213
 9090W        W25564   8.139  10.826  15.383 -0.0215 -0.0354 -0.0115
 9091W        W25565   3.457   0.793  14.364 -0.1887  0.1123  0.2166
 9092W        W25566  16.738  12.636   1.691 -0.0591  0.0241  0.0916
 9093W        W25567   0.097  16.883  12.690 -0.0267  0.0140 -0.3743
 9094W        W25568   4.456  13.214   4.740 -0.2691 -0.0184  0.2133
 9095W        W25569  10.314   4.599   1.183  0.2118  0.0553  0.1748
 9096W        W25570   4.915   5.777   3.870  0.4931 -0.0138  0.2777
 9097W        W25571  14.567  13.456  11.904 -0.0591 -0.1763 -0.2738
 9098W        W25572   4.003  10.290   2.050  0.0028 -0.2598  0.0605
 9099W        W25573  15.362   0.752   0.267 -0.1315 -0.0942  0.0015
 9100W        W25574   0.857   4.092   2.253 -0.3052 -0.0683  0.1248
 9101W        W25575  11.532   4.425   1.875 -0.2328  0.3311  0.3079
 9102W        W25576  14.757   7.881   3.198  0.2694  0.4167  0.1582
 9103W        W25577  16.922   3.093  12.847 -0.0099  0.1921 -0.0727
 9104W        W25578   2.597   2.475  13.803 -0.0507  0.0290 -0.1121
 9105W        W25579   9.551  14.942   4.218 -0.0002  0.1217 -0.0761
 9106W        W25580  17.799  17.229   2.226  0.0092  0.1740 -0.0360
 9107W        W25581   0.265   8.003   4.645 -0.3293 -0.2147 -0.0776
 9108W        W25582   2.349   0.328  12.088  0.0090 -0.0081  0.0661
 9109W        W25583   4.423  11.903  14.647  0.2878  0.2288  0.1526
 9110W        W25584   9.123   3.650   3.272  0.2740 -0.1150 -0.1058
 9111W        W25585  12.410   0.295   6.177  0.1302  0.2690 -0.2779
 9112W        W25586   2.995  15.850   3.344 -0.1839 -0.2617 -0.4579
 9113W        W25587  12.039  16.711  13.871  0.6334  0.1643  0.0700
 9114W        W25588  17.778   4.376   0.284  0.1855  0.2419 -0.2280
 9115W        W25589   2.287  17.963  14.153  0.3125 -0.0591 -0.1141
 9116W        W25590  13.595   7.869   1.388 -0.3191  0.3718  0.1314
 9117W        W25591   8.608   3.356   1.441  0.1129 -0.2028 -0.0746
 9118W        W25592   2.619   4.012   1.065  0.2074 -0.1632 -0.0750
 9119W        W25593   6.344   0.857   0.116  0.0820  0.0434  0.2130
 9120W        W25594   7.431  13.327  13.908 -0.3101 -0.3760  0.0667
 9121W        W25595  14.790  15.089   0.486  0.1839 -0.0263 -0.1519
 9122W        W25596   5.765   4.190  12.818  0.4349 -0.0582 -0.1117
 9123W        W25597   8.802   7.581  14.958 -0.0741 -0.1148 -0.3632
 9124W        W25598   6.442  13.807   2.463  0.0007 -0.0200 -0.1317
 9125W        W25599   1.254   1.244   1.563  0.0656 -0.1387 -0.1350
 9126W        W25600  14.643   6.536  12.544 -0.2682  0.0918 -0.1716
 9127W        W25601   8.857   6.867   3.020  0.3333  0.1907 -0.1421
 9128W        W25602  11.049  13.853   0.898  0.1350 -0.0462 -0.0774
 9129W        W25603  12.397  14.641   2.336  0.1306 -0.2567 -0.0238
 9130W        W25604   8.824   1.201   1.671 -0.0241 -0.1367  0.2648
 9131W        W25605  13.927  17.741   3.753 -0.0565 -0.6006  0.1632
 9132W        W25606  10.719   0.237   2.172 -0.1020 -0.2161 -0.2173
 9133W        W25607   2.018   6.902   1.216  0.2210 -0.3691 -0.2924
 9134W        W25608   2.766   8.518   4.294 -0.0115 -0.0215  0.1698
 9135W        W25609   6.156   5.396   5.368  0.3661  0.3401  0.1134
 9136W        W25610   7.858   1.789   0.946 -0.0387 -0.0102  0.1624
 9137W        W25611  11.879  12.115  12.834 -0.0553 -0.2227 -0.0382
 9138W        W25612   2.497   2.073  11.650 -0.0346 -0.0449  0.2800
 9139W        W25613   6.136   4.149  13.822 -0.0786  0.0098 -0.2585
 9140W        W25614  14.851   3.802  14.532  0.1504 -0.1374 -0.1230
 9141W        W25615   9.067  16.951   1.377 -0.0544 -0.1054  0.0675
 9142W        W25616   0.359  11.407   5.440  0.0678  0.2768 -0.1191
 9143W        W25617  11.609   9.732   1.544 -0.1468  0.2768  0.1243
 9144W        W25618  18.139   4.864   3.466  0.2466  0.0980 -0.0419
 9145W        W25619   8.859   4.655  12.390  0.0603  0.0602  0.1340
 9146W        W25620   0.500   4.387   0.101 -0.3481  0.0417  0.1381
 9147W        W25621   5.760   2.346  15.948  0.2970 -0.2890 -0.4106
 9148W        W25622  15.241   3.920  12.488  0.2720  0.2438 -0.3890
 9149W        W25623  11.796   3.844   4.725 -0.0473 -0.3393 -0.0526
 9150W        W25624  16.086  13.981   0.487 -0.1383 -0.0235  0.0611
 9151W        W25625  17.356   7.601   2.290  0.1721 -0.2362  0.1222
 9152W        W25626  14.277  12.301  16.100  0.3299  0.3424 -0.1599
 9153W        W25627   3.346   5.772   6.279 -0.0592  0.0273 -0.1593
 9154W        W25628   7.959   5.060  13.032  0.1139  0.0221  0.1826
 9155W        W25629   8.669  13.833  14.260  0.0811 -0.0225 -0.0658
 9156W        W25630   4.208   2.203  12.088 -0.2022  0.0275  0.0454
 9157W        W25631   3.193  12.830   4.655 -0.1240  0.0140 -0.1746
 9158W        W25632  14.480  16.167   1.097  0.1701 -0.2606 -0.1444
 9159W        W25633  10.399  13.688  11.445 -0.1499  0.0971  0.0467
 9160W        W25634   6.434   3.753   2.159  0.1332  0.0420  0.3843
 9161W        W25635  14.836  10.440  11.515  0.1026 -0.1395  0.1007
 9162W        W25636  12.609  15.983  14.112 -0.1855  0.0919 -0.3467
 9163W        W25637   9.788   1.270  13.522  0.1925  0.1863 -0.0287
 9164W        W25638   4.390  16.035  11.643 -0.2378  0.2782  0.1811
 9165W        W25639  17.060  10.458  15.867 -0.2033  0.2557 -0.0551
 9166W        W25640  10.319  12.932   4.672 -0.1398 -0.0968  0.1576
 9167W        W25641  13.427   4.408  13.337  0.1654  0.1063  0.1522
 9168W        W25642   4.266   7.580   3.944 -0.1296  0.0203 -0.2587
 9169W        W25643  15.975   2.538  11.412 -0.3386  0.2694  0.0853
 9170W        W25644  17.299  17.503   4.606  0.1865  0.0140  0.3319
 9171W        W25645  17.136  17.223  15.020 -0.0174 -0.0911  0.0180
 9172W        W25646  16.857   3.926   3.657 -0.1364  0.1445 -0.0259
 9173W        W25647  15.623   3.531  12.607 -0.1288  0.0045 -0.1418
 9174W        W25648  10.032  15.424  16.290 -0.2321  0.0516  0.0564
 9175W        W25649  10.962  14.604   5.673  0.0058 -0.1330 -0.0346
 9176W        W25650   2.651  15.531  11.877 -0.0643 -0.0325  0.1510
 9177W        W25651  15.554   5.330  16.324 -0.1616  0.2875 -0.1065
 9178W        W25652   4.428   5.999   0.689 -0.1984  0.3162  0.0590
 9179W        W25653   6.338  15.345  13.564  0.1442 -0.0231 -0.0927
 9180W        W25654   9.706  15.209   1.144 -0.3790 -0.0962  0.2929
 9181W        W25655   6.225  10.843  15.613  0.0454 -0.1555 -0.3490
 9182W        W25656   1.144  14.727   1.016  0.3872  0.5343  0.1435
 9183W        W25657  16.128  14.836   2.393  0.0989  0.0970 -0.3495
 9184W        W25658   5.092   8.728  15.353  0.1385 -0.3524 -0.0318
 9185W        W25659   2.017  17.766   5.498  0.0954  0.0511 -0.0104
 9186W        W25660  10.465  16.085  14.491 -0.0149  0.3228  0.1446
 9187W        W25661   3.708   1.883  12.753 -0.0476  0.1353 -0.2043
 9188W        W25662   5.253   5.680   0.125  0.0763  0.3775 -0.5027
 9189W        W25663   1.089  13.705  13.787 -0.1306  0.0953 -0.0985
 9190W        W25664   2.482   1.102  11.453 -0.1366 -0.0521  0.0253
 9191W        W25665   3.667   4.060  14.988 -0.0491 -0.1374 -0.0986
 9192W        W25666   5.723  15.126   0.395  0.0634  0.2382 -0.0419
 9193W        W25667  16.634  12.289   0.742 -0.0369  0.1095  0.0261
 9194W        W25668  17.844   1.244  12.076  0.0525  0.1652  0.0269
 9195W        W25669   9.151  17.558  12.039 -0.0184 -0.0144 -0.1120
 9196W        W25670   4.582   8.527   3.937  0.1847 -0.4466 -0.0548
 9197W        W25671  12.108   0.016  11.302  0.1010 -0.0797 -0.0779
 9198W        W25672  13.766  18.227   3.238  0.0743 -0.2469 -0.0136
 9199W        W25673  10.076  14.150   3.455  0.0295 -0.0181  0.3453
 9200W        W25674  17.186   2.349   4.583  0.2013 -0.1137  0.2284
 9201W        W25675   5.697  14.868  16.099  0.1993  0.1486 -0.1882
 9202W        W25676   5.693  12.545   0.824 -0.0301  0.0998  0.1000
 9203W        W25677  12.843   6.740  11.733 -0.0109 -0.3468 -0.0322
 9204W        W25678   4.054   1.771   2.034 -0.2918 -0.2489 -0.1623
 9205W        W25679   2.159  16.177   4.789  0.2003 -0.1625  0.2052
 9206W        W25680   7.603   5.798   0.849 -0.1514 -0.0640  0.3486
 9207W        W25681   0.250  12.344   5.901 -0.4216 -0.0372  0.0217
 9208W        W25682  15.746  17.068   0.113 -0.1305  0.3151  0.3014
 9209W        W25683   4.150   1.286  11.376  0.2436  0.7249  0.2410
 9210W        W25684   8.813   0.827   2.613 -0.1267 -0.0657 -0.2640
 9211W        W25685  11.743  17.512  11.839  0.2540  0.1782 -0.0351
 9212W        W25686   6.537  18.093  12.504  0.0500  0.0326 -0.0087
 9213W        W25687  13.535  12.988  15.044  0.1503  0.0387  0.0429
 9214W        W25688  15.163  14.068  14.084  0.0568  0.2159 -0.2364
 9215W        W25689   8.018  12.415   3.707  0.2707  0.1024 -0.2663
 9216W        W25690   2.486  14.766  13.493 -0.0878 -0.4427  0.0587
 9217W        W25691  12.347  12.345   4.196 -0.2617 -0.0001  0.0224
 9218W        W25692  15.994   6.562  13.454  0.1241  0.0755  0.1629
 9219W        W25693  13.061  15.947  15.836 -0.1164  0.3095  0.2419
 9220W        W25694   6.418  10.891   0.944  0.1186 -0.0779  0.0773
 9221W        W25695   5.583   3.659  12.204  0.0197  0.1363 -0.1773
 9222W        W25696   1.055  13.391   3.127  0.0755  0.0322 -0.1513
 9223W        W25697   4.679   4.927  12.835 -0.3501 -0.1300  0.1156
 9224W        W25698  15.707  14.805  11.809 -0.2278 -0.1700 -0.0428
 9225W        W25699   6.465  15.600   4.702 -0.1373 -0.0228 -0.2013
 9226W        W25700  12.977   0.077   2.364 -0.1282  0.2160  0.5479
 9227W        W25701   4.301  14.771  15.154 -0.1344 -0.2068 -0.1038
 9228W        W25702   4.718   4.792  14.905  0.1699  0.3093 -0.0730
 9229W        W25703   3.139   9.787   3.010  0.0283 -0.0890 -0.3352
 9230W        W25704   1.522   7.435   2.083 -0.1503  0.2299 -0.1576
 9231W        W25705   6.734  17.170  13.491 -0.1692  0.0735 -0.2545
 9232W        W25706  10.569   5.809   1.793 -0.1500 -0.0001 -0.2498
 9233W        W25707  10.550  15.465   3.880 -0.1339  0.0337  0.3316
 9234W        W25708   9.024  13.217   2.605  0.2746 -0.0381 -0.0974
 9235W        W25709  12.469   5.828   2.736  0.0986 -0.1404 -0.0470
 9236W        W25710   8.987  15.743   5.083  0.1296 -0.0941 -0.0303
 9237W        W25711  14.896   4.909  14.048 -0.1136 -0.1491 -0.1771
 9238W        W25712   4.559   6.810   5.865 -0.1949 -0.1277 -0.1858
 9239W        W25713   8.043  12.869   3.997  0.2382 -0.3753 -0.1310
 9240W        W25714  13.417  18.097  14.354  0.1449 -0.1570  0.2570
 9241W        W25715   5.509  15.592  15.386 -0.0663 -0.0943 -0.0970
 9242W        W25716   3.892  17.667   2.124 -0.0586 -0.0006 -0.0215
 9243W        W25717   8.950   4.822   1.768 -0.0291  0.1843  0.0542
 9244W        W25718   6.716  15.828  13.101  0.0941  0.3950 -0.1788
 9245W        W25719   9.965  13.745   6.616  0.5323  0.0128 -0.0571
 9246W        W25720   8.297   6.910   2.716 -0.0245  0.3687  0.1500
 9247W        W25721   4.423  17.276   4.471 -0.0171  0.1469  0.1767
 9248W        W25722   7.531   5.450   0.466 -0.0630  0.1946 -0.0451
 9249W        W25723  11.741  13.709   2.319 -0.0955  0.4093 -0.0558
 9250W        W25724  12.843   7.806   1.105  0.1199 -0.3782  0.2489
 9251W        W25725  18.035  15.341  14.117  0.2816  0.1335  0.2857
 9252W        W25726   1.019  18.026   2.500 -0.1134 -0.0459  0.0805
 9253W        W25727   0.306  12.018   2.357 -0.2043 -0.2620  0.2799
 9254W        W25728  13.984   6.998  14.033  0.1685 -0.2487 -0.1245
 9255W        W25729   6.587   6.111   0.677 -0.2447  0.4513 -0.1135
 9256W        W25730   0.906   8.480   4.304 -0.1811 -0.1229 -0.0335
 9257W        W25731   1.762  13.854   5.247  0.0646 -0.2729  0.0016
 9258W        W25732   4.772  15.925  12.038  0.5438  0.1845  0.1390
 9259W        W25733   4.006   6.104   1.084  0.4493  0.1393 -0.0220
 9260W        W25734  12.451  15.309  14.276 -0.1010 -0.0496 -0.1361
 9261W        W25735   5.096   0.854   3.557  0.0240  0.0106  0.1762
 9262W        W25736   1.767   5.928  13.557 -0.1603  0.0825  0.0457
 9263W        W25737  15.690  15.843   5.069 -0.0025 -0.0400  0.0568
 9264W        W25738   1.188   6.791   5.454  0.2290 -0.0919  0.2449
 9265W        W25739  11.450  16.609   3.048 -0.0819  0.3262 -0.0670
 9266W        W25740  15.978  10.174  14.783  0.0031 -0.1754  0.0757
 9267W        W25741   1.704  14.457  15.484 -0.1952 -0.3840 -0.1384
 9268W        W25742  12.529  16.155   1.592 -0.0406 -0.0074 -0.0590
 9269W        W25743   7.600  15.810   4.105  0.0723 -0.1541 -0.0633
 9270W        W25744  12.350   5.242   2.110  0.1043 -0.0375 -0.1001
 9271W        W25745   8.758   8.800  13.905 -0.1614  0.0514 -0.1580
 9272W        W25746   3.799  15.217   3.947  0.0569  0.2245  0.2284
 9273W        W25747   4.990   9.250  13.070  0.2344  0.0027 -0.0690
 9274W        W25748  10.979   1.714  11.548  0.2081 -0.1596 -0.1228
 9275W        W25749   2.599  16.793   4.233 -0.0027  0.2759  0.0309
 9276W        W25750   8.794   8.221   0.065  0.3478  0.0964 -0.1827
 9277W        W25751  12.117  17.924   5.411  0.2497  0.1495  0.0845
 9278W        W25752  12.502  18.148  13.330  0.1570  0.3485 -0.0271
 9279W        W25753  14.054   4.675   5.419 -0.1583 -0.1393  0.2951
 9280W        W25754  14.345   5.718   1.855 -0.1020 -0.2296  0.0023
 9281W        W25755  18.245  12.769   5.081  0.3269  0.2103  0.0786
 9282W        W25756   7.645   5.346  11.426  0.1461 -0.1962  0.1924
 9283W        W25757  16.664   8.547   1.415 -0.1583 -0.0743 -0.1504
 9284W        W25758  14.700   2.391  12.448 -0.1979  0.0178 -0.1586
 9285W        W25759  12.987  12.092  12.659  0.1837 -0.4340  0.0257
 9286W        W25760   8.850  14.636  13.884  0.1756 -0.2198 -0.2008
 9287W        W25761   5.492   6.639   0.171  0.1891 -0.2106  0.0005
 9288W        W25762   5.923   9.404   0.413  0.1363  0.0780 -0.2986
 9289W        W25763   7.695   8.703  15.735  0.1364 -0.1245 -0.1537
 9290W        W25764   9.846   9.804  11.937 -0.1801  0.1307  0.2147
 9291W        W25765   6.895  11.586  12.941 -0.0201 -0.2080 -0.2581
 9292W        W25766   4.591  13.460  14.365 -0.1291  0.0043  0.0364
 9293W        W25767  14.638  10.437   0.025  0.1414  0.0785  0.1445
 9294W        W25768  16.579   4.387  14.593  0.1054  0.1769 -0.0574
 9295W        W25769  12.936   2.774  11.320 -0.1242 -0.0156 -0.2436
 9296W        W25770   8.281  14.148  16.199 -0.4527  0.2049 -0.0552
 9297W        W25771  10.288   0.349  15.877  0.1246  0.2192 -0.2602
 9298W        W25772   4.703   7.559   3.666  0.0497 -0.2494 -0.0292
 9299W        W25773  14.450  10.841  12.235  0.2146  0.1108 -0.3239
 9300W        W25774   2.082  15.978   4.301  0.1285 -0.0025  0.1126
 9301W        W25775  16.764   2.752  14.120 -0.1070 -0.2699 -0.4079
 9302W        W25776  11.546   6.352  12.540  0.4066  0.0796 -0.1615
 9303W        W25777  10.183  10.117   2.255 -0.0471 -0.1857  0.2077
 9304W        W25778   4.808  10.731  15.701 -0.0198 -0.0346 -0.2005
 9305W        W25779  12.879  10.759  12.922  0.1467  0.1479 -0.1480
 9306W        W25780  12.038   0.147   4.523  0.0755  0.3351 -0.5817
 9307W        W25781   8.525   4.212  11.580 -0.2031 -0.0163 -0.1723
 9308W        W25782  16.463   8.260   4.398 -0.3263 -0.3373  0.0016
 9309W        W25783   8.078  14.799   1.331 -0.0043 -0.0878  0.2459
 9310W        W25784  14.312   9.217  16.232 -0.0315  0.0239  0.0526
 9311W        W25785   5.001  11.686   3.576  0.0352  0.1365 -0.0174
 9312W        W25786   9.075  17.479   2.727  0.1037  0.0489  0.3325
 9313W        W25787  15.026  15.297   4.154  0.0046  0.0921  0.0315
 9314W        W25788  16.002  14.609   2.964  0.1839 -0.0577  0.0675
 9315W        W25789   1.930  13.541  13.400 -0.2638 -0.0803 -0.1253
 9316W        W25790   3.840  10.161  15.380  0.0814 -0.1400  0.0800
 9317W        W25791  15.028  17.478   3.359 -0.3572 -0.1611  0.1771
 9318W        W25792  12.882  17.915   3.645 -0.2352  0.3865 -0.3929
 9319W        W25793   4.175   6.987   0.781 -0.0734  0.1228 -0.1315
 9320W        W25794  18.180  11.356   1.274  0.2744  0.1586  0.0309
 9321W        W25795   9.093   8.399   2.706 -0.2136  0.0912  0.0379
 9322W        W25796   1.162  10.664   3.690 -0.4911  0.0296  0.0380
 9323W        W25797   1.838   2.196  15.496 -0.2195 -0.0735  0.0338
 9324W        W25798   2.794   9.576   0.915 -0.2068  0.0302 -0.0360
 9325W        W25799  13.043   4.859   2.708  0.2958 -0.3729  0.2126
 9326W        W25800  11.381  11.175  12.062 -0.1769 -0.3027  0.3261
 9327W        W25801  13.142   4.774   1.183 -0.2396  0.2413 -0.2916
 9328W        W25802   3.056  10.007   0.894  0.2724 -0.0891  0.1444
 9329W        W25803  15.698   3.891   0.994 -0.2363 -0.0173  0.0082
 9330W        W25804  18.182   0.696  14.624 -0.0731  0.2932  0.2361
 9331W        W25805  16.620   9.888  12.450  0.0325  0.0307 -0.0187
 9332W        W25806   7.161  16.716   2.182 -0.3432  0.0188 -0.2274
 9333W        W25807  10.622  14.848   5.364 -0.1080 -0.0779 -0.4558
 9334W        W25808   9.535   2.374  15.693 -0.2654  0.1779 -0.2281
 9335W        W25809   7.070  14.690   2.284 -0.0443 -0.1300 -0.0803
 9336W        W25810  12.339   6.703  13.001  0.3097  0.2169  0.0089
 9337W        W25811  15.354   8.136  11.666  0.1884  0.1600 -0.1839
 9338W        W25812   4.577   2.061   4.719  0.3788 -0.3096  0.7274
 9339W        W25813   8.164  14.930   5.341  0.0649 -0.0021  0.3065
 9340W        W25814   4.117  10.867  13.370  0.1366  0.0874 -0.0515
 9341W        W25815   9.203  12.573  12.471 -0.0266 -0.3184 -0.2362
 9342W        W25816   1.217  17.688  10.890  0.0437 -0.0146 -0.1975
 9343W        W25817   1.069   0.823  12.645  0.1199  0.3438 -0.2414
 9344W        W25818   1.961  13.897  15.670 -0.0162 -0.0231  0.2752
 9345W        W25819   5.704  11.288  13.513  0.0294 -0.0493  0.0725
 9346W        W25820  15.007  18.317   3.574  0.1075  0.1190  0.1722
 9347W        W25821  17.942   9.055  11.452 -0.3109  0.0455  0.0556
 9348W        W25822  10.787  10.655   3.957  0.0810  0.1655 -0.2439
 9349W        W25823  14.264  14.607   2.439 -0.1881  0.1971 -0.0444
 9350W        W25824  14.625   0.237   1.756 -0.2597 -0.0177  0.4470
 9351W        W25825   3.949   3.636   0.009 -0.0072 -0.1104 -0.2135
 9352W        W25826   6.634   9.596  10.633  0.0210  0.3782  0.1393
 9353W        W25827  17.753  11.021  11.176  0.4565  0.1454 -0.0876
 9354W        W25828   4.718  13.347  13.211  0.0329 -0.1207 -0.2386
 9355W        W25829  16.793   9.572   0.302  0.0919 -0.0819 -0.1862
 9356W        W25830   9.632  14.150   1.974 -0.0459  0.2360 -0.0695
 9357W        W25831   8.948   4.233  13.736 -0.1999 -0.3475 -0.3043
 9358W        W25832  15.113  16.566  11.582  0.0614  0.2393  0.0537
 9359W        W25833   0.191  12.444  14.461  0.2761  0.1016 -0.0349
 9360W        W25834   9.503  12.754   4.618 -0.1412  0.0684 -0.1755
 9361W        W25835   4.854   6.882   1.748 -0.1103 -0.1001 -0.5480
 9362W        W25836  13.562   6.359   1.423 -0.1326  0.0324 -0.0303
 9363W        W25837   5.800   8.536   3.754  0.1958 -0.2093  0.1869
 9364W        W25838   4.448   5.253   0.504  0.4219  0.0763  0.2090
 9365W        W25839   1.652   5.338   3.076  0.1639  0.1774  0.0859
 9366W        W25840   5.078   2.553   1.281 -0.1364 -0.0505 -0.0026
 9367W        W25841   4.012   9.517  11.912 -0.0790  0.2237  0.1716
 9368W        W25842  15.138  17.966   4.392  0.0342  0.2212 -0.0164
 9369W        W25843   4.471  13.055   0.426  0.2144  0.0983 -0.1412
 9370W        W25844  14.255   6.285   5.381  0.1206  0.0004  0.1093
 9371W        W25845   3.213   1.141  13.060  0.0970  0.1402  0.2918
 9372W        W25846  11.069  11.509  11.795 -0.0302  0.0256 -0.1572
 9373W        W25847   0.819   0.365  11.799  0.0195  0.3044 -0.0413
 9374W        W25848   8.924   5.880   0.158 -0.0061  0.0825 -0.3045
 9375W        W25849   8.718   8.297  12.047 -0.1821 -0.3925  0.0315
 9376W        W25850   6.807   6.740  16.323  0.0280 -0.1028  0.1503
 9377W        W25851   9.944   4.632   3.752  0.1598  0.0941  0.1420
 9378W        W25852   2.289   8.387   4.233 -0.1491  0.0811 -0.1210
 9379W        W25853  11.021   7.413  14.623  0.0499 -0.2143 -0.3329
 9380W        W25854  10.348   6.611   5.274  0.0331 -0.2537 -0.0194
 9381W        W25855   4.872  15.732   1.597 -0.2407  0.4811  0.1878
 9382W        W25856  10.477   5.432  12.821 -0.1025  0.0076  0.2209
 9383W        W25857   7.317  16.436   4.984 -0.0505  0.0981 -0.3692
 9384W        W25858   4.429  15.936   1.535  0.0612 -0.1764  0.2072
 9385W        W25859   8.085   9.413   2.226  0.0335 -0.2803 -0.1488
 9386W        W25860   4.700   9.878  15.416 -0.1312  0.1112 -0.0980
 9387W        W25861  12.256   8.336   2.885 -0.0464  0.1542 -0.2134
 9388W        W25862  17.780   4.126   2.931 -0.4643 -0.0859 -0.2055
 9389W        W25863   1.497   5.802  15.744  0.2197 -0.1411 -0.0354
 9390W        W25864   5.894  15.797  16.300  0.1105  0.1702  0.2763
 9391W        W25865   3.559   5.412  13.761 -0.1118 -0.0683  0.1180
 9392W        W25866   4.393   0.558   3.503  0.0694  0.1968  0.0896
 9393W        W25867   0.075   8.089   6.364  0.2951 -0.1411  0.2865
 9394W        W25868  14.715  13.429   2.118 -0.0456  0.1496 -0.0104
 9395W        W25869  11.133  16.475   5.600  0.0632 -0.1728  0.1238
 9396W        W25870   5.743   1.736  15.453 -0.1380  0.0555  0.2601
 9397W        W25871  16.415  15.033  16.015 -0.3044  0.0411  0.0442
 9398W        W25872  13.201  10.796   0.849 -0.2908  0.1625 -0.0017
 9399W        W25873   9.837   2.405  12.396  0.1659 -0.0971 -0.1900
 9400W        W25874   0.176  17.560   1.534 -0.2289  0.1544  0.0687
 9401W        W25875   2.031   2.001   2.635 -0.1114  0.0148  0.1850
 9402W        W25876  11.461  13.566   3.928 -0.0670  0.1118 -0.0701
 9403W        W25877   3.702   3.948  11.202  0.2741 -0.0017  0.0782
 9404W        W25878  17.862   7.731  11.570  0.1403  0.0897  0.1116
 9405W        W25879   4.930   6.478   5.089  0.1863 -0.0887  0.0232
 9406W        W25880  12.640   9.847   4.686  0.0025  0.5222 -0.1053
 9407W        W25881  14.111  16.833   4.308 -0.1859 -0.0630 -0.0799
 9408W        W25882   7.528  12.538   4.010  0.1110 -0.1028  0.1904
 9409W        W25883  15.687   4.393  16.238 -0.0923 -0.0825  0.0665
 9410W        W25884   8.591   4.165  15.103 -0.0927 -0.0979  0.4053
 9411W        W25885  16.477   5.666  11.431 -0.2201  0.1397 -0.1741
 9412W        W25886  13.694   9.870   6.332  0.0628 -0.1437 -0.3131
 9413W        W25887  11.807  11.206  13.657  0.0085 -0.1439 -0.0027
 9414W        W25888   0.997   6.455  14.542  0.1327  0.0592  0.1203
 9415W        W25889   3.238   6.070   5.206  0.0009 -0.1886  0.2034
 9416W        W25890   0.600  15.237  15.600 -0.2794 -0.0992 -0.1224
 9417W        W25891  16.289   8.545   5.440 -0.2184 -0.1385 -0.0724
 9418W        W25892   9.860  15.326  12.554 -0.1830  0.1917 -0.3499
 9419W        W25893   0.636   4.000  16.032 -0.3628  0.0280  0.0179
 9420W        W25894  10.193   1.542   2.409 -0.1624  0.0320  0.1416
 9421W        W25895   2.595  14.333   0.621 -0.3928  0.0826 -0.1417
 9422W        W25896   8.459  14.483   1.977 -0.1164 -0.3789 -0.1319
 9423W        W25897  17.888   7.502  12.205 -0.0298  0.1284  0.1587
 9424W        W25898   5.584  13.678  14.086 -0.0279 -0.1829  0.2019
 9425W        W25899   9.099   9.788  13.814  0.2043  0.1133 -0.0030
 9426W        W25900   0.378   6.821   2.446 -0.2325  0.1759 -0.1482
 9427W        W25901  11.799  10.391  15.161  0.1266 -0.0666 -0.0323
 9428W        W25902  10.897  17.786  11.398  0.1518 -0.1080 -0.1527
 9429W        W25903   8.948  16.495   5.827  0.3140  0.0464 -0.1160
 9430W        W25904  11.724  18.010  12.009 -0.1552  0.2384  0.3270
 9431W        W25905  11.221  13.783   3.256  0.2637 -0.1984  0.2816
 9432W        W25906  15.793   7.758  14.623  0.2004 -0.0108  0.0101
 9433W        W25907   3.714  17.930   2.596  0.0536  0.3233 -0.0369
 9434W        W25908   3.337   3.748  12.896 -0.0829 -0.1359  0.0026
 9435W        W25909   4.062  15.315   2.020 -0.0183  0.1422  0.1598
 9436W        W25910   9.299   5.050   3.257  0.2152  0.3174  0.1129
 9437W        W25911   8.474   7.836  12.068 -0.0230  0.0283 -0.1990
 9438W        W25912  14.222   3.709   4.755 -0.2079 -0.0097 -0.1544
 9439W        W25913   9.997   7.960   5.612  0.0009 -0.3563  0.2200
 9440W        W25914  11.876  12.677   5.428  0.0157 -0.0629  0.0357
 9441W        W25915  10.854  16.227  14.144 -0.1880  0.1584 -0.1012
 9442W        W25916  16.910   6.613   0.613 -0.2011  0.0158 -0.2003
 9443W        W25917  11.504  17.926   3.638 -0.0095  0.2853 -0.0699
 9444W        W25918   4.926  14.275   1.333  0.1475 -0.1940 -0.1466
 9445W        W25919  13.294  15.633   5.670 -0.2940  0.1188 -0.2831
 9446W        W25920  18.035   9.022   5.387  0.3095  0.0439 -0.3615
 9447W        W25921  17.131   9.609  13.448 -0.0137 -0.2876  0.0752
 9448W        W25922   5.420   8.973  13.012  0.1287 -0.0185  0.1073
 9449W        W25923   7.526  10.085   5.851  0.1991 -0.1105 -0.1300
 9450W        W25924   0.708   5.237  11.630  0.1901  0.1012  0.0449
 9451W        W25925   1.209   8.874  12.987 -0.2759 -0.0312  0.0235
 9452W        W25926   1.059   9.519  11.520 -0.4589 -0.1336  0.2652
 9453W        W25927   8.930  16.945  12.760  0.2187 -0.0665 -0.0453
 9454W        W25928   6.750   6.157   2.477  0.2804 -0.1655  0.3914
 9455W        W25929   7.103   0.928  11.358  0.0287  0.1340  0.0185
 9456W        W25930   0.044   2.430   3.305  0.0304 -0.1570 -0.3808
 9457W        W25931  17.090   1.519   0.955  0.1514 -0.4192 -0.1077
 9458W        W25932  16.170   5.787  14.503  0.0875  0.3346  0.0398
 9459W        W25933   0.250  14.923  12.149 -0.1463  0.0186  0.1208
 9460W        W25934   0.360  17.876  11.338 -0.0246 -0.1990 -0.1157
 9461W        W25935  10.524  10.701  15.459 -0.2313  0.0978  0.2335
 9462W        W25936   4.837   9.178  11.380 -0.2418 -0.1384  0.0390
 9463W        W25937   2.762   1.349  14.451  0.2245  0.1912 -0.0224
 9464W        W25938   5.471   1.913  11.268 -0.0083 -0.0892  0.1076
 9465W        W25939  12.017   3.124  15.148  0.2819 -0.0658  0.1642
 9466W        W25940  16.758  12.416   6.613  0.2910  0.1283  0.0564
 9467W        W25941  10.450  15.438  13.258  0.0588 -0.1886  0.3251
 9468W        W25942  10.506  15.717   3.321  0.0231 -0.0008  0.0137
 9469W        W25943   4.436  12.841   4.373 -0.1115 -0.1067 -0.1562
 9470W        W25944   2.992   5.837   1.264 -0.1479  0.1880 -0.2141
 9471W        W25945   2.404   9.687   3.658 -0.2603 -0.2063 -0.0788
 9472W        W25946  11.375   0.792   5.304  0.0943 -0.2943  0.0826
 9473W        W25947  13.565   8.398   1.216 -0.1378  0.2128 -0.3974
 9474W        W25948  16.456   0.410   1.204 -0.1830 -0.2880 -0.0507
 9475W        W25949  10.607  13.051   2.896  0.0347  0.0659  0.0286
 9476W        W25950  15.678   9.443  14.962 -0.1434 -0.0280  0.4647
 9477W        W25951   3.869  14.358   1.910 -0.0019 -0.2692  0.1319
 9478W        W25952   4.766   1.595  15.046 -0.0734 -0.1653 -0.0494
 9479W        W25953  11.240  13.822  14.068 -0.0338 -0.0524 -0.1855
 9480W        W25954  12.824   9.304  11.889  0.2361 -0.0111 -0.1824
 9481W        W25955   8.976  11.694  12.899 -0.1023  0.2041 -0.2402
 9482W        W25956  16.970   2.002   1.810  0.2792  0.1699  0.1281
 9483W        W25957  16.979   1.475   1.839 -0.1085 -0.2300 -0.3741
 9484W        W25958  17.580  10.881  13.433  0.2848 -0.2175  0.1590
 9485W        W25959   7.429  17.284   0.522  0.2791 -0.0689 -0.1100
 9486W        W25960   8.565   6.941  11.726  0.0112 -0.1148 -0.1341
 9487W        W25961   7.037   7.388   0.006  0.2385  0.0811  0.0633
 9488W        W25962   3.434  11.634  15.478  0.0545 -0.0228  0.1410
 9489W        W25963   6.812   1.559  14.864  0.2250 -0.2671  0.2556
 9490W        W25964  15.476  13.636  14.199  0.0904  0.0609 -0.0196
 9491W        W25965   4.659  13.622   2.772  0.2156  0.1983  0.0152
 9492W        W25966  11.454  17.403   1.701  0.0111 -0.0525  0.1056
 9493W        W25967   5.567  17.310  12.406  0.2475  0.2879  0.1296
 9494W        W25968   6.997   9.790  15.414 -0.0068 -0.1568 -0.1458
 9495W        W25969  10.589  12.710   6.361 -0.0510 -0.0102  0.0171
 9496W        W25970  15.091  14.459  15.328  0.0227  0.2447 -0.0915
 9497W        W25971  13.216   0.573   4.553 -0.4088  0.1208 -0.1153
 9498W        W25972  16.431   8.393   0.990  0.0123 -0.0551 -0.2038
 9499W        W25973  11.267  10.952   1.972 -0.0591  0.1062  0.0517
 9500W        W25974   9.185   8.877   5.246 -0.2337 -0.0635  0.0961
 9501W        W25975   0.959   6.522  15.559  0.1347  0.0336  0.0256
 9502W        W25976   3.876   8.985  15.993  0.2454 -0.3331  0.0757
 9503W        W25977   1.869   2.698  15.048  0.0870  0.1849  0.0081
 9504W        W25978   0.595  15.208  14.700 -0.0849 -0.5959  0.0005
 9505W        W25979   9.022   5.192   5.473  0.0916  0.1557  0.1693
 9506W        W25980   1.086   7.915   4.544  0.3356  0.0217 -0.0228
 9507W        W25981   3.269  16.725   3.665 -0.1178 -0.0098 -0.1460
 9508W        W25982  11.879   7.521  11.911  0.1195  0.1550  0.1856
 9509W        W25983  10.327  10.151  16.104  0.0907  0.0690 -0.1228
 9510W        W25984   6.922   7.656   4.167  0.1766 -0.1105 -0.1757
 9511W        W25985   1.283  13.191   5.081 -0.2321 -0.3341 -0.4284
 9512W        W25986   9.442   7.053  15.331  0.0305  0.1876  0.0853
 9513W        W25987   2.180   3.930   1.345  0.0700 -0.3914  0.0487
 9514W        W25988   6.529   0.886  13.056 -0.0547 -0.0502 -0.1702
 9515W        W25989  10.326   6.548  13.650 -0.1723 -0.2658 -0.1608
 9516W        W25990   0.182   7.885  12.557  0.3697  0.2093  0.2447
 9517W        W25991   5.099  17.327   1.424  0.0273 -0.1353  0.1722
 9518W        W25992  14.384   8.375  12.059  0.1945 -0.0931  0.1898
 9519W        W25993   7.612   4.226   5.425 -0.0032  0.2946 -0.2522
 9520W        W25994  13.958   0.604   0.287 -0.1399  0.3937 -0.1216
 9521W        W25995   9.407  18.251   3.747  0.3054  0.2430 -0.1956
 9522W        W25996   1.819   1.912  12.658 -0.0167 -0.0577 -0.0473
 9523W        W25997  14.586  10.794   1.686  0.1121  0.4250 -0.0161
 9524W        W25998  10.542   7.710  16.240  0.0257 -0.3926  0.3662
 9525W        W25999  12.253  13.787   5.319  0.4763  0.0192  0.0811
 9526W        W26000   5.926   8.120   6.522 -0.0871  0.0738  0.1336
 9527W        W26001   8.540   6.900   5.506  0.2365  0.1855  0.0599
 9528W        W26002  15.272  13.404  11.980  0.3709  0.2518  0.1585
 9529W        W26003   4.978   9.496   6.008 -0.0774 -0.3264  0.0503
 9530W        W26004  10.722   5.184  15.401  0.2061 -0.0825 -0.1401
 9531W        W26005   7.683   7.287  10.377  0.2353  0.2043 -0.0084
 9532W        W26006  12.140   8.535  13.993  0.2304 -0.0848  0.0331
 9533W        W26007  10.865   7.822   5.132 -0.2110  0.1008  0.1046
 9534W        W26008   0.841  14.859  11.712  0.1698 -0.1245  0.0309
 9535W        W26009  14.264   9.115  11.809 -0.0366  0.1285  0.1098
 9536W        W26010   1.078   3.084   5.087 -0.0092 -0.0602 -0.1684
 9537W        W26011  14.728  12.734   1.521  0.0407 -0.1490  0.4117
 9538W        W26012   8.835   4.020   2.222 -0.0223  0.2372  0.0144
 9539W        W26013  13.295  17.273   1.706  0.3673 -0.0006  0.2814
 9540W        W26014   5.109   3.231  11.068 -0.1948  0.1757  0.0471
 9541W        W26015   0.474   6.562  14.251  0.1241 -0.4267 -0.2631
 9542W        W26016  15.685   2.595   1.533 -0.1215  0.3043 -0.2095
 9543W        W26017   6.611   1.097  13.944 -0.0456 -0.1714  0.0844
 9544W        W26018  10.390   2.379   3.952 -0.0815 -0.1893  0.0960
 9545W        W26019   2.996   8.485   1.579 -0.1125 -0.2608 -0.3250
 9546W        W26020  10.955  15.734   1.171 -0.3633  0.1014  0.0505
 9547W        W26021   5.740  11.886  12.759  0.2844 -0.0293 -0.3179
 9548W        W26022  11.619   8.561   4.595  0.0998 -0.4159 -0.0165
 9549W        W26023  12.721  13.196  11.898  0.1492 -0.3241  0.1344
 9550W        W26024   2.752  10.004   3.856 -0.2917  0.0060  0.0181
 9551W        W26025   5.550  12.031  11.620  0.1227  0.0334 -0.0141
 9552W        W26026  17.343   2.464  16.020 -0.0157 -0.2694 -0.0678
 9553W        W26027  14.251  15.280  14.690  0.1300 -0.1722  0.1421
 9554W        W26028   7.123  18.267  14.388  0.2051  0.0653 -0.2770
 9555W        W26029  12.774   3.787   2.279 -0.0978  0.1927  0.0662
 9556W        W26030   6.119   0.367   0.141 -0.1309  0.2061 -0.3061
 9557W        W26031   9.871  11.829   1.705  0.6269  0.0536  0.1087
 9558W        W26032  15.895   9.108   0.028  0.1123 -0.1383  0.1638
 9559W        W26033  17.360   6.853   2.909 -0.0044 -0.1247  0.4912
 9560W        W26034  17.599  14.597  14.520 -0.0214 -0.0426  0.1039
 9561W        W26035   4.461   9.270  12.880  0.1309  0.1935  0.0050
 9562W        W26036   4.695   7.368   1.657 -0.0887 -0.2638 -0.1042
 9563W        W26037   9.530   7.297  14.498 -0.1223  0.0228  0.0606
 9564W        W26038  14.809   2.653  13.801  0.2590  0.1551  0.2286
 9565W        W26039  12.326   6.212   4.611 -0.0764  0.1599 -0.1019
 9566W        W26040   9.535  17.304   3.973  0.0483 -0.0852 -0.0095
 9567W        W26041   7.646  10.707   1.054  0.0858 -0.0081 -0.3507
 9568W        W26042   7.645   6.560  11.759  0.0620  0.2037  0.1520
 9569W        W26043  12.859   8.374   2.307  0.5337  0.4637  0.1868
 9570W        W26044   4.229   8.963  15.140  0.4490 -0.1497 -0.0117
 9571W        W26045  15.393   9.371   5.329 -0.0257  0.1870 -0.1578
 9572W        W26046   9.551  14.021   5.264  0.1806  0.2343  0.1861
 9573W        W26047   1.855   5.290   5.007  0.0733 -0.1102 -0.0048
 9574W        W26048   2.704   6.429   0.538 -0.2087  0.0450  0.0232
 9575W        W26049  18.305  11.956   4.260  0.3849  0.0199  0.4800
 9576W        W26050  16.575   9.016   1.626  0.4001 -0.2723  0.0499
 9577W        W26051   8.504  10.956  14.924  0.0577 -0.1295 -0.1709
 9578W        W26052   5.510   5.588  13.835 -0.0188  0.0695  0.2313
 9579W        W26053  10.057  13.316   5.551  0.1419 -0.0573 -0.1438
 9580W        W26054   9.107   5.519   2.844  0.1773  0.1806 -0.3172
 9581W        W26055  10.387  11.111   4.693  0.0948  0.0525  0.0650
 9582W        W26056  14.437   4.313  14.734  0.1670  0.0278  0.2646
 9583W        W26057   5.957  17.695   1.234  0.0738  0.2419  0.2069
 9584W        W26058   5.665  10.984  14.626 -0.0631  0.3494 -0.1517
 9585W        W26059  15.542  14.452  15.963  0.0575 -0.3372  0.0064
 9586W        W26060  13.608  16.070  14.940 -0.0112  0.0828 -0.0280
 9587W        W26061   1.727  12.632   4.822  0.3770  0.2167  0.1831
 9588W        W26062   9.219   3.638  14.631 -0.2211  0.1125  0.2363
 9589W        W26063   5.786   5.875   2.258  0.0259 -0.1365 -0.0076
 9590W        W26064  17.781  15.701   5.336  0.1488 -0.3145 -0.0823
 9591W        W26065  17.084   8.557   2.575 -0.0684 -0.2067  0.0570
 9592W        W26066  17.663   1.618   3.090 -0.1545 -0.1517 -0.1931
 9593W        W26067   9.361   2.661  11.056 -0.0290 -0.2331 -0.1685
 9594W        W26068   4.632  17.968   3.448  0.1214 -0.0817 -0.1202
 9595W        W26069  13.386   6.346  15.467 -0.1218 -0.4240  0.0415
 9596W        W26070   5.718  14.944  15.354  0.0494  0.0014 -0.1258
 9597W        W26071  17.694  14.824  15.390 -0.0720 -0.1465 -0.0436
 9598W        W26072   0.806  12.650   0.144  0.0963  0.0592 -0.2369
 9599W        W26073   2.245  16.570   4.481 -0.1400  0.0807  0.0723
 9600W        W26074  13.108   3.171   5.203  0.0899  0.2102 -0.1738
 9601W        W26075   6.516   4.915   2.785 -0.2400  0.3143  0.1553
 9602W        W26076   7.125   3.917  14.618  0.2478  0.2570  0.2291
 9603W        W26077   0.530  15.952  12.475  0.2614 -0.3582  0.1129
 9604W        W26078   6.919   5.850   5.410 -0.1610  0.1014 -0.0510
 9605W        W26079   8.602   9.790  15.873 -0.0697  0.1310  0.0466
 9606W        W26080   7.724  14.089   0.640  0.1121  0.0820  0.0592
 9607W        W26081  17.538   3.396   2.116  0.3716 -0.0886 -0.2162
 9608W        W26082   5.685  10.619  15.876  0.3459  0.3159 -0.2462
 9609W        W26083   3.572   0.479  11.220 -0.1806 -0.2360 -0.4196
 9610W        W26084   4.782   8.237  15.050 -0.1161 -0.0923 -0.1188
 9611W        W26085   2.592   8.214   5.667 -0.0063 -0.1366 -0.0343
 9612W        W26086  16.566   7.292  13.205 -0.4765  0.1691 -0.0997
 9613W        W26087   4.319  16.624  16.287 -0.0431  0.4097  0.0666
 9614W        W26088   6.203   6.718  15.456 -0.0180  0.0090  0.2018
 9615W        W26089   5.010  17.121   4.576  0.1887 -0.1842 -0.2079
 9616W        W26090   4.230   8.473  12.630 -0.1678 -0.0827  0.1908
 9617W        W26091   4.595  17.610  15.699  0.1468  0.1382  0.0688
 9618W        W26092   6.643   2.769   1.807  0.0954  0.0842  0.1910
 9619W        W26093  11.917   8.449   2.099 -0.0402 -0.1584 -0.1312
 9620W        W26094  16.459   6.930   3.645 -0.0051  0.1240  0.0392
 9621W        W26095   5.401   0.562   4.100 -0.0235 -0.1660  0.2691
 9622W        W26096  11.115   6.704  11.767  0.0816  0.2210 -0.0015
 9623W        W26097  13.795   1.296   1.357  0.1693  0.0712 -0.0875
 9624W        W26098  17.292   5.530  13.448 -0.1445  0.0825 -0.0927
 9625W        W26099   1.502   0.591  11.432 -0.1356 -0.0756 -0.0474
 9626W        W26100   5.298   2.255  15.636 -0.2426 -0.3003  0.1480
 9627W        W26101   7.785  18.275   1.934 -0.0228  0.2389  0.1043
 9628W        W26102   7.605  17.691  16.202  0.1691 -0.0607 -0.1489
 9629W        W26103   2.918  11.938   1.514 -0.4729  0.0401 -0.2423
 9630W        W26104  14.051  11.243   4.468  0.1982 -0.2022 -0.0390
 9631W        W26105  11.810   7.701  13.423  0.0730 -0.0659  0.0821
 9632W        W26106   7.992  15.230  12.457 -0.0757  0.3576 -0.1737
 9633W        W26107   1.431   6.166   3.770  0.2480  0.0756 -0.1669
 9634W        W26108   4.954   9.774  11.289 -0.1016  0.3498 -0.1197
 9635W        W26109  15.691   9.619   2.474 -0.0504  0.0163 -0.0384
 9636W        W26110   1.102   4.294   3.556  0.0333 -0.2231 -0.1639
 9637W        W26111   2.746   7.638  14.798  0.3659 -0.2537  0.1195
 9638W        W26112   7.410   9.542  13.038  0.1422 -0.1014 -0.1323
 9639W        W26113   0.758   1.292  14.080 -0.0327 -0.3023 -0.0028
 9640W        W26114   3.532   2.022  13.625  0.3556  0.1796 -0.3772
 9641W        W26115  16.284  16.821  15.326 -0.1026  0.0040  0.2856
 9642W        W26116   8.386  10.861   2.551 -0.1158  0.1921  0.1096
 9643W        W26117   0.193  14.032   5.721  0.1462  0.4162  0.0886
 9644W        W26118   0.986   6.958   0.512  0.3757  0.3815  0.4792
 9645W        W26119  15.624  13.394   3.321 -0.0879 -0.1918  0.0961
 9646W        W26120  15.563  15.553  15.155  0.0596  0.0175 -0.0280
 9647W        W26121   0.774  10.730  12.904 -0.2259 -0.1272  0.0434
 9648W        W26122  12.117   0.973  12.721 -0.0131 -0.3130  0.0423
 9649W        W26123  14.440   2.116   3.852  0.3033  0.1434 -0.1380
 9650W        W26124  14.318  15.655   2.416 -0.1258  0.0902 -0.0242
 9651W        W26125  14.291  12.095   1.029 -0.0320 -0.1246 -0.0832
 9652W        W26126   9.950  12.934  12.639  0.0107 -0.0574 -0.0090
 9653W        W26127   9.257   3.140  10.051  0.0539  0.1307 -0.0684
 9654W        W26128   7.849  17.910   0.917  0.0311 -0.1415 -0.1388
 9655W        W26129   7.451   4.074   3.469  0.0428 -0.0884  0.3046
 9656W        W26130   1.717   8.258   2.027  0.3062 -0.3384 -0.0995
 9657W        W26131  14.074   8.553   0.452  0.2109 -0.1337  0.0093
 9658W        W26132   7.179  10.843  15.753 -0.0228 -0.0761 -0.3703
 9659W        W26133  14.562  11.271   4.645 -0.0339 -0.1236 -0.2208
 9660W        W26134   2.756   1.546   4.002  0.4501  0.1199 -0.4225
 9661W        W26135  17.002  16.511  14.312  0.1876 -0.0247  0.2029
 9662W        W26136  12.816  12.833  14.270 -0.0028 -0.2686  0.0111
 9663W        W26137   0.476   1.524   1.296 -0.1218  0.0216 -0.0524
 9664W        W26138   5.752  16.070  14.056 -0.2178 -0.1786 -0.2793
 9665W        W26139   2.817  15.060   4.954  0.0320  0.3048  0.0188
 9666W        W26140  14.758  18.034  14.238 -0.0971  0.0974 -0.0756
 9667W        W26141   5.771   5.709   4.409  0.0826 -0.0183 -0.1242
 9668W        W26142  16.464  13.676   6.127 -0.2358  0.0260 -0.0277
 9669W        W26143  14.352   7.805  12.972 -0.2697 -0.1639 -0.1795
 9670W        W26144  17.634  13.071  13.817  0.2486  0.4026  0.1097
 9671W        W26145  11.328   0.094  16.311 -0.0073  0.2335 -0.2346
 9672W        W26146  13.631   9.805   0.175 -0.0054 -0.2463 -0.0881
 9673W        W26147   0.449  10.554   4.501 -0.1881  0.1073  0.0229
 9674W        W26148  12.156   2.876  14.733  0.0369  0.1431  0.0001
 9675W        W26149  14.233   9.952  12.752  0.0589  0.1964  0.0522
 9676W        W26150   9.887   2.413   5.559 -0.1998 -0.2441  0.0322
 9677W        W26151  16.082  15.131   0.745 -0.0546  0.2120  0.0725
 9678W        W26152  17.800   0.312  12.031 -0.0001  0.1449 -0.0893
 9679W        W26153  16.307   9.184   3.891  0.0930  0.2048 -0.4317
 9680W        W26154   6.286   9.074   0.276 -0.0267 -0.4253  0.0668
 9681W        W26155   4.113   8.832  14.695 -0.0206 -0.2504  0.3460
 9682W        W26156  16.604  14.283   5.049  0.1343  0.3166  0.2780
 9683W        W26157  16.875   2.057  15.309  0.0531  0.3947  0.0325
 9684W        W26158  14.030  13.234   3.724 -0.1633 -0.0595  0.2425
 9685W        W26159   8.412   0.423   1.261 -0.1089  0.3551  0.0772
 9686W        W26160  10.457  17.539  15.823 -0.0062 -0.1097  0.1608
 9687W        W26161   1.925  15.193   3.607  0.3732  0.1147  0.0179
 9688W        W26162  12.034  11.923   4.868  0.0822  0.0133 -0.5999
 9689W        W26163  13.008   5.690   4.899 -0.2046 -0.1501 -0.0184
 9690W        W26164   5.907   9.085  12.757 -0.0096  0.0194 -0.0650
 9691W        W26165   5.890  17.775  14.628 -0.1465 -0.0343  0.1029
 9692W        W26166  11.014   6.162   1.278 -0.0828 -0.0795 -0.1269
 9693W        W26167   4.802   6.530  15.476 -0.2507  0.0383 -0.1784
 9694W        W26168   8.334   4.035   0.840 -0.0012 -0.0511 -0.2788
 9695W        W26169   1.722   8.864  14.557 -0.0382 -0.1206  0.0967
 9696W        W26170   0.870   1.609   5.356 -0.3020  0.1282 -0.0825
 9697W        W26171  18.047   5.013   4.809  0.2808 -0.0271  0.1518
 9698W        W26172   9.199  13.843   2.219  0.2019 -0.2925  0.1342
 9699W        W26173   4.774  15.007   4.270 -0.1055  0.4161 -0.1772
 9700W        W26174   9.661  14.703  14.800  0.0870  0.0605  0.3494
 9701W        W26175  17.199  17.182  13.570  0.1424 -0.1509  0.1368
 9702W        W26176   1.181  11.688  15.610 -0.1867 -0.1828 -0.3430
 9703W        W26177   7.024  11.943   5.110  0.0332  0.2362 -0.1646
 9704W        W26178  14.257   5.585   4.233  0.1351 -0.2705  0.0850
 9705W        W26179   3.174  17.938  15.905  0.2902  0.4576  0.3242
 9706W        W26180  14.304   0.758  15.690  0.0667  0.0279 -0.0513
 9707W        W26181   5.179  10.334  13.796  0.1318 -0.1197  0.0501
 9708W        W26182  17.242  14.051  15.145  0.1102  0.1311  0.1622
 9709W        W26183  18.257   6.456  13.181 -0.1327  0.1579  0.1229
 9710W        W26184   7.518  16.410  13.913  0.0886  0.0950  0.1201
 9711W        W26185  12.398  14.106   0.545  0.0732 -0.0920 -0.1909
 9712W        W26186   3.956   1.648  10.487  0.2328 -0.0738  0.1050
 9713W        W26187  13.981  17.179  11.463  0.0273  0.1602 -0.1951
 9714W        W26188   6.299  16.061  16.295  0.0470 -0.0178 -0.4900
 9715W        W26189  17.874   8.758  12.090 -0.2352  0.1692  0.1717
 9716W        W26190  13.466   2.290   5.059 -0.1170  0.2361 -0.2286
 9717W        W26191  10.766  14.015  11.879  0.1379 -0.1262 -0.1066
 9718W        W26192   7.639  15.925   3.547 -0.0931 -0.1130 -0.4455
 9719W        W26193   0.601   6.778   1.585  0.2233 -0.1606  0.1084
 9720W        W26194   8.741   0.430   5.433  0.1338 -0.1288  0.2270
 9721W        W26195   2.486  15.814  15.682  0.3162  0.4009 -0.1934
 9722W        W26196   1.382   9.231   2.423 -0.0109  0.2448  0.2443
 9723W        W26197  11.140  16.209   4.315 -0.1755  0.3272  0.1722
 9724W        W26198  17.364   7.388  13.565 -0.2324  0.0414  0.1714
 9725W        W26199  16.573   8.577   0.537 -0.0037  0.0562  0.2791
 9726W        W26200   4.414  10.666  15.349  0.1172  0.1630 -0.3518
 9727W        W26201   9.980   9.344   5.111 -0.0535  0.2931 -0.0794
 9728W        W26202  16.840   5.836  12.318  0.1584 -0.2882 -0.0836
 9729W        W26203  13.342  17.928   0.811 -0.3629  0.2997 -0.0273
 9730W        W26204   0.090  16.207  16.055 -0.2204 -0.1125 -0.0034
 9731W        W26205   7.201  12.920   3.121  0.1062 -0.1384  0.3608
 9732W        W26206  17.897   1.986   2.066  0.0708 -0.3582  0.2304
 9733W        W26207   9.569   3.642   1.928 -0.0161 -0.0624  0.2877
 9734W        W26208   0.052   0.376   2.174  0.0049 -0.1060  0.0375
 9735W        W26209  11.203   2.956   3.835  0.3589 -0.0943 -0.0402
 9736W        W26210  17.165  14.669   4.416 -0.1307 -0.0024 -0.0805
 9737W        W26211  17.910   4.064   2.295 -0.1728  0.4810  0.1609
 9738W        W26212   7.423   6.566   2.740  0.0500 -0.0153  0.1231
 9739W        W26213   4.641  10.995   4.788 -0.0256 -0.0504  0.0599
 9740W        W26214   1.046  15.601  11.323 -0.0805  0.2582  0.1099
 9741W        W26215  17.029   1.595  10.982  0.0746  0.0306  0.4269
 9742W        W26216  12.426  17.774   4.544  0.2056 -0.1666 -0.2530
 9743W        W26217  12.210  15.769   2.402  0.2626  0.0512 -0.0077
 9744W        W26218   6.123  10.785   2.367  0.0030 -0.2372 -0.1128
 9745W        W26219   9.650   4.951  11.718  0.2079  0.2670 -0.1730
 9746W        W26220   5.082   9.904   3.801  0.0865 -0.0119  0.0389
 9747W        W26221  15.651  13.198   1.148  0.2294  0.1273 -0.1470
 9748W        W26222   6.706   6.667  14.807  0.0898 -0.2463  0.0892
 9749W        W26223   7.087   0.985  14.153  0.2964  0.0735 -0.1111
 9750W        W26224   3.725  11.839   3.068 -0.1002  0.2508  0.2846
 9751W        W26225   4.925   4.317   5.980  0.0999 -0.0343  0.0505
 9752W        W26226  10.405   8.938   5.811  0.1115  0.1628 -0.0183
 9753W        W26227   0.806  15.363   3.805  0.2382 -0.0503 -0.2433
 9754W        W26228  15.526  13.681   2.603 -0.0866 -0.1143  0.0854
 9755W        W26229   0.077  10.440   0.184  0.1613 -0.1200 -0.1999
 9756W        W26230   2.394   6.302  14.257 -0.1199 -0.0126  0.0155
 9757W        W26231  11.518   3.436   1.610 -0.2962 -0.0221 -0.2861
 9758W        W26232   4.580  11.871   3.118  0.0732  0.0929  0.3640
 9759W        W26233   5.716  11.544  11.343  0.1651 -0.0880  0.2773
 9760W        W26234   4.830   6.120   4.754 -0.0102 -0.5709 -0.3630
 9761W        W26235  16.441   0.408   0.714  0.3776 -0.0473  0.0885
 9762W        W26236  12.768  16.502   0.654  0.0247 -0.0863 -0.0698
 9763W        W26237   2.122  14.142   3.531 -0.0047  0.2812  0.2044
 9764W        W26238  10.333   6.445   0.156 -0.0111  0.0445  0.0181
 9765W        W26239  15.142   1.780  14.322 -0.1171  0.1419 -0.1666
 9766W        W26240  14.403   8.790  15.784 -0.3325  0.1058  0.1846
 9767W        W26241  10.432  12.499  13.083 -0.2388  0.2647 -0.0686
 9768W        W26242  14.529  17.095   4.075  0.0797 -0.0515  0.1272
 9769W        W26243  11.199   7.653   1.308 -0.0790  0.1665 -0.1055
 9770W        W26244  11.438   6.973   3.262  0.0246 -0.1744  0.2178
 9771W        W26245   3.985  17.574   2.952  0.0863 -0.0564 -0.2952
 9772W        W26246   6.793   9.336  13.920  0.0180 -0.1162  0.2632
 9773W        W26247   9.908   4.549  11.616  0.0375  0.2735  0.0345
 9774W        W26248   7.895   4.800  11.637  0.1594 -0.1591  0.0367
 9775W        W26249   6.548   8.674   0.398 -0.1943  0.3950 -0.0357
 9776W        W26250  12.417  17.926  13.844 -0.0214  0.0168 -0.1685
 9777W        W26251  10.679   7.205   3.832 -0.0364  0.2808 -0.3404
 9778W        W26252   0.278  16.019   1.378  0.2894  0.3869  0.1026
 9779W        W26253   8.832   6.536  11.944  0.0156 -0.2208  0.0418
 9780W        W26254   0.304   7.688   0.508  0.0871 -0.0622 -0.0376
 9781W        W26255  12.336   4.232   2.129  0.0292 -0.1543 -0.1489
 9782W        W26256   2.303  10.560  11.912 -0.1700 -0.3212  0.0769
 9783W        W26257   0.350   5.550  12.015 -0.0269  0.0459 -0.1177
 9784W        W26258   6.651   6.565   2.116  0.0494 -0.1488 -0.0861
 9785W        W26259  14.267  11.653   2.918  0.2092  0.0061  0.1168
 9786W        W26260   6.817  14.198   2.319  0.3355  0.2219 -0.1119
 9787W        W26261  11.161   9.978   4.658 -0.0836  0.0538 -0.0020
 9788W        W26262   0.057  12.004   3.790 -0.1359 -0.2216 -0.2122
 9789W        W26263   0.190   7.142   0.390 -0.2090  0.0625 -0.0542
 9790W        W26264   8.346  11.418  14.796 -0.3657 -0.1356  0.2393
 9791W        W26265   0.205   5.338  15.483 -0.4480 -0.0045 -0.0326
 9792W        W26266   3.042   6.647   4.172  0.2720  0.1940  0.0571
 9793W        W26267   5.080   7.189   2.127 -0.2847 -0.1426 -0.0101
 9794W        W26268  13.444   0.712  12.773 -0.0260  0.3689  0.0659
 9795W        W26269   1.725  12.199  13.793  0.1794 -0.1720  0.1419
 9796W        W26270   9.354   5.747  15.749  0.2493  0.2732 -0.1284
 9797W        W26271  11.261  16.216   2.200  0.1671  0.0387  0.1621
 9798W        W26272   3.379  13.363   2.285 -0.1112  0.0099 -0.2258
 9799W        W26273   7.817  14.303   4.034 -0.0829  0.0669 -0.3610
 9800W        W26274   1.185  17.078  14.256  0.0225  0.0790 -0.0352
 9801W        W26275  18.012   3.605  11.953  0.2065 -0.4350 -0.0146
 9802W        W26276  11.201  10.179  12.120  0.0482  0.0898 -0.2179
 9803W        W26277  17.429   1.305  15.769  0.0222 -0.1568 -0.1027
 9804W        W26278   2.577   9.134   1.005  0.1591  0.3893  0.1888
 9805W        W26279   8.901  17.493   0.577 -0.2331 -0.2028 -0.0158
 9806W        W26280   8.897   8.849   2.855 -0.1462  0.0992  0.1920
 9807W        W26281   9.450   2.774   5.563  0.3078  0.2509  0.0326
 9808W        W26282   3.680  16.544   5.307  0.0653  0.1601 -0.0026
 9809W        W26283  12.263   7.284   3.709  0.2396  0.2015 -0.1737
 9810W        W26284  13.305   3.698   0.775  0.3794  0.2552 -0.0829
 9811W        W26285  11.465  14.467  14.405 -0.1135 -0.4425  0.1938
 9812W        W26286   1.120   1.835   3.064  0.2487  0.3449  0.1081
 9813W        W26287  17.434   1.197  14.688  0.1427 -0.1071 -0.0532
 9814W        W26288  17.635  10.870  16.005  0.2145  0.0545 -0.5817
 9815W        W26289   2.301  16.222  14.502 -0.4637  0.4434  0.0612
 9816W        W26290  14.982   9.091   3.430  0.0857  0.1327 -0.1146
 9817W        W26291  17.821   4.826   1.629  0.0087 -0.1270 -0.0731
 9818W        W26292  12.956   2.105   2.953  0.3233  0.0987  0.3740
 9819W        W26293   3.633   5.971  13.567  0.0932 -0.0163  0.0736
 9820W        W26294  13.080   9.754   5.704  0.2615 -0.1407  0.1483
 9821W        W26295  11.355   9.873   5.221  0.1405 -0.2273  0.0517
 9822W        W26296   4.614   1.914   1.316 -0.1600 -0.0216 -0.2553
 9823W        W26297  16.189   3.482   2.989 -0.2328 -0.1420  0.0712
 9824W        W26298   5.723   3.385   1.701 -0.1710 -0.1631  0.1178
 9825W        W26299   4.212   0.876   1.368  0.1262 -0.2657 -0.1218
 9826W        W26300   0.955  16.791   2.288 -0.0852 -0.1817 -0.1448
 9827W        W26301   0.477  15.557   1.394 -0.1064  0.0678 -0.0411
 9828W        W26302  12.392   1.389  11.655 -0.0792  0.2802 -0.0507
 9829W        W26303  15.983   9.863   4.304 -0.1955 -0.2423 -0.3890
 9830W        W26304  15.310   7.514  15.914 -0.1068 -0.1957 -0.1591
 9831W        W26305   4.073   5.311  14.348 -0.1327 -0.1580  0.2291
 9832W        W26306   5.206   1.434  14.166  0.1229 -0.1650 -0.1090
 9833W        W26307  15.484   3.564   1.836  0.3676  0.0942 -0.1833
 9834W        W26308   9.176   7.035  13.406  0.1818  0.0046 -0.0174
 9835W        W26309   7.640   6.398  14.310  0.1769 -0.1251  0.1957
 9836W        W26310   1.928   2.388   1.803  0.1205 -0.4255  0.0710
 9837W        W26311   7.209  12.767   4.704  0.0468 -0.1311 -0.1858
 9838W        W26312  14.588   5.361  13.732  0.0176  0.0917 -0.0887
 9839W        W26313  16.508  15.370   2.261 -0.1228 -0.2033  0.0079
 9840W        W26314   4.116   2.236  14.196  0.4806  0.0373  0.2380
 9841W        W26315  14.759  15.932   5.623  0.1870  0.1755 -0.2484
 9842W        W26316  10.033  14.895  14.139  0.2844 -0.0872 -0.1633
 9843W        W26317   2.669  10.497   3.330  0.0484  0.0910  0.1224
 9844W        W26318  13.465   2.542   2.591  0.1945 -0.1800 -0.1578
 9845W        W26319   4.033   7.069  13.676 -0.2973  0.0558  0.2805
 9846W        W26320   5.032  11.645   6.546  0.3171  0.1609  0.2562
 9847W        W26321   2.554  10.936   3.044  0.1181  0.0847  0.0208
 9848W        W26322   2.734   5.812   5.138 -0.1416 -0.1405 -0.1105
 9849W        W26323   9.086  10.796  14.369  0.0919  0.3529 -0.1363
 9850W        W26324  14.115  12.299  13.967  0.0270 -0.1495 -0.2195
 9851W        W26325   7.672   8.735   2.671  0.2259 -0.0471 -0.1205
 9852W        W26326  14.417   1.613   0.740 -0.4043 -0.4677  0.2050
 9853W        W26327   3.026   6.492  11.912  0.1816 -0.0692  0.0556
 9854W        W26328  11.199   3.042  16.178  0.1862 -0.1172 -0.1099
 9855W        W26329  14.935  16.848   1.597  0.1286  0.0116  0.1241
 9856W        W26330  11.487   8.825   2.926  0.0613 -0.0014  0.0944
 9857W        W26331  12.067  17.622  14.173 -0.2267  0.1557 -0.1367
 9858W        W26332  16.092   5.886   3.854  0.1227 -0.4767  0.2970
 9859W        W26333   2.108  11.846   4.591  0.0436 -0.1345  0.0899
 9860W        W26334   5.653   4.033  16.174 -0.2665  0.1637  0.1131
 9861W        W26335   7.827   9.552   3.218 -0.0353  0.2589 -0.0541
 9862W        W26336   4.581   5.086   2.383  0.0592 -0.0684 -0.1090
 9863W        W26337   4.728   1.010  12.747 -0.0183  0.0549  0.1748
 9864W        W26338   2.847   3.968  12.761 -0.1555 -0.2049  0.0315
 9865W        W26339  17.861  16.963  10.846  0.0676  0.2016  0.0966
 9866W        W26340   8.386   2.227   4.351  0.0859  0.0100  0.4391
 9867W        W26341  15.696   3.760  15.524 -0.1131 -0.3379 -0.0344
 9868W        W26342  13.420  17.950  14.875 -0.2228  0.0371 -0.0185
 9869W        W26343   7.882   4.602  16.214 -0.0717 -0.0959 -0.0228
 9870W        W26344  15.307  16.353   0.790 -0.3025  0.0467 -0.1679
 9871W        W26345   7.973  16.597  14.768 -0.0308 -0.2032 -0.0248
 9872W        W26346  14.122  11.514  12.648  0.2504 -0.0240 -0.2488
 9873W        W26347  13.087   2.751   1.276  0.0885 -0.1062  0.1789
 9874W        W26348   7.765   4.503  14.106  0.0786 -0.1470 -0.2144
 9875W        W26349   9.310   2.858   4.407 -0.0821 -0.0383 -0.0646
 9876W        W26350  17.444  16.056   2.947 -0.4691  0.0477 -0.1531
 9877W        W26351  15.039   8.799   1.726  0.0269 -0.4000  0.3255
 9878W        W26352  13.823   6.505   3.534 -0.0252  0.2173 -0.2693
 9879W        W26353   0.426   9.452  11.606 -0.3458 -0.0042  0.1183
 9880W        W26354   7.304  16.163  14.384  0.1073 -0.1469  0.0859
 9881W        W26355   8.437  17.180   0.742 -0.4926  0.0540  0.2229
 9882W        W26356  10.662  14.096  13.263  0.0837 -0.2861 -0.2851
 9883W        W26357   3.380   8.462  15.858 -0.0605 -0.0131 -0.0624
 9884W        W26358  11.836  14.507   3.066  0.2148  0.1241  0.1521
 9885W        W26359  17.027  11.815   4.126  0.0356 -0.0082  0.2090
 9886W        W26360  18.028   7.642   3.148  0.3207  0.2937 -0.0476
 9887W        W26361  13.710  16.021   4.577  0.0489 -0.0149  0.1221
 9888W        W26362   0.784  11.144  12.369  0.2679  0.2939 -0.5147
 9889W        W26363   1.824  16.185  12.218  0.0000 -0.2834  0.0617
 9890W        W26364   6.412   1.360   3.710 -0.0926 -0.2994  0.1931
 9891W        W26365   2.826  14.701   0.062 -0.0579  0.1422 -0.3949
 9892W        W26366  11.522   8.616   1.238  0.1805  0.1191  0.1053
 9893W        W26367  13.508  14.791  12.445 -0.1403  0.1279 -0.0647
 9894W        W26368  11.175  13.259  11.622 -0.0019 -0.0879  0.0426
 9895W        W26369  11.517  12.800   2.194 -0.0291 -0.2243 -0.2284
 9896W        W26370   0.289  16.743   0.612  0.2304 -0.0361  0.2510
 9897W        W26371  16.816   7.375  15.305  0.1897 -0.0818 -0.0901
 9898W        W26372   8.468  17.364  13.451  0.3571 -0.1874 -0.0746
 9899W        W26373  10.413   0.666   2.696  0.1175  0.1295  0.2032
 9900W        W26374  15.949   0.141   0.597 -0.0844  0.3932 -0.2182
 9901W        W26375   3.864  11.484  15.616  0.0387 -0.0242  0.1912
 9902W        W26376   0.442  15.000   3.714 -0.2897 -0.2236 -0.1773
 9903W        W26377   0.850   7.083   2.568  0.1228 -0.3055 -0.1186
 9904W        W26378   8.257  17.691  11.143 -0.0566 -0.0060 -0.3930
 9905W        W26379   5.412   5.466   4.725 -0.0501 -0.0981  0.1108
 9906W        W26380  10.122  13.472   0.097  0.0097  0.0510 -0.1201
 9907W        W26381  14.232   3.499  12.590 -0.1159 -0.1301  0.1909
 9908W        W26382   2.337   4.839  15.142 -0.3395  0.0137 -0.0328
 9909W        W26383   2.911   5.523   4.362  0.1669 -0.3229  0.0688
 9910W        W26384   0.661  11.741   1.521 -0.0063  0.2089 -0.1467
 9911W        W26385  14.595  12.174   1.606  0.2653 -0.3142  0.0076
 9912W        W26386  15.123  15.031  12.841 -0.0340  0.2243  0.1945
 9913W        W26387  10.206   5.823   0.925  0.1233  0.0762 -0.3294
 9914W        W26388  16.640  17.936   0.217 -0.0266  0.2014 -0.1471
 9915W        W26389   8.315   2.900  14.092 -0.1471  0.1050  0.1969
 9916W        W26390  13.669  17.485  15.510  0.0590 -0.3587 -0.0331
 9917W        W26391  16.261  15.050   3.897 -0.1823  0.3481  0.5646
 9918W        W26392   1.716   6.793   2.069  0.1385 -0.1426  0.3288
 9919W        W26393  14.142   4.829   5.894  0.0939  0.1905 -0.1724
 9920W        W26394   4.938   2.935   2.662 -0.3018 -0.1048  0.0218
 9921W        W26395  12.705  12.062  13.052  0.2512  0.2821  0.0520
 9922W        W26396  10.033   1.927  14.129 -0.1562  0.1737 -0.1297
 9923W        W26397  15.178   1.090  14.846  0.1843  0.0223  0.3652
 9924W        W26398  12.080   6.711   1.601 -0.2439 -0.1107  0.0448
 9925W        W26399  12.973  13.363  13.128 -0.1871 -0.4361 -0.4069
 9926W        W26400   7.825   4.228   0.175 -0.3608  0.1273 -0.0345
 9927W        W26401  13.179   3.276  15.778  0.0201 -0.0286 -0.1979
 9928W        W26402   0.515  11.740   3.513 -0.5545 -0.3240 -0.0596
 9929W        W26403  15.802  11.267  16.138 -0.2084 -0.0315  0.0290
 9930W        W26404   9.483   4.704   1.782 -0.0598  0.0757  0.1467
 9931W        W26405  12.290  17.708  13.249 -0.0524 -0.0489 -0.1246
 9932W        W26406  14.900   8.206  14.060  0.0203 -0.2399  0.2827
 9933W        W26407   2.640  10.880   4.136  0.0702 -0.2830 -0.0627
 9934W        W26408   4.970  17.241   0.376 -0.0527 -0.2349  0.0761
 9935W        W26409  17.488   0.517   6.180  0.0994  0.0484  0.1905
 9936W        W26410   1.234  12.062  15.257  0.0901 -0.1377  0.0605
 9937W        W26411   8.362   0.793  12.755  0.0610  0.3505 -0.1541
 9938W        W26412   8.254  17.628   5.843  0.2804 -0.1300  0.0995
 9939W        W26413  10.078  13.845  16.093  0.2053  0.7132 -0.0826
 9940W        W26414  14.772   6.966  14.248  0.0844  0.1861  0.2478
 9941W        W26415   6.567   0.397  12.378 -0.0630 -0.1975  0.0581
 9942W        W26416  15.649   1.594   0.136  0.1434 -0.0540 -0.1620
 9943W        W26417  17.077  13.566  11.388 -0.1013  0.1931 -0.1596
 9944W        W26418  11.308  10.209  15.399 -0.1264 -0.2853 -0.2718
 9945W        W26419  16.321   3.482  13.956 -0.3486  0.0553  0.2881
 9946W        W26420  13.707  13.140  14.559 -0.1826 -0.0865 -0.1027
 9947W        W26421  16.544   6.075   5.233  0.2575  0.0094 -0.0219
 9948W        W26422   7.986   8.660   0.694 -0.2194  0.1612  0.1995
 9949W        W26423  14.592   7.375  12.768 -0.0760  0.1418 -0.2801
 9950W        W26424  11.997  11.210   0.398  0.1020 -0.0824 -0.0879
 9951W        W26425  13.852  16.163   0.904  0.0215  0.1106  0.0383
 9952W        W26426  14.633  13.120  14.350 -0.2043  0.1885  0.2589
 9953W        W26427  17.401  17.008  15.892 -0.2102 -0.1530  0.0016
 9954W        W26428  16.572  11.773  16.267 -0.0456  0.1009  0.1374
 9955W        W26429  10.516  10.871  13.490  0.1738  0.3060 -0.2234
 9956W        W26430  13.361  15.558  15.824 -0.1622 -0.3895  0.0151
 9957W        W26431  13.649  13.290  15.485 -0.1775 -0.0706 -0.2817
 9958W        W26432  10.282   8.739  16.150  0.3489  0.0567  0.1764
 9959W        W26433  15.355  11.576   5.495  0.3351  0.0105 -0.0661
 9960W        W26434  18.309  10.100  11.882  0.1815  0.0207 -0.3221
 9961W        W26435   4.840   1.569   0.275 -0.1141  0.0708  0.2258
 9962W        W26436  11.247  18.295   0.456 -0.1421 -0.1070 -0.2137
 9963W        W26437  11.942   9.511   0.975  0.3245 -0.2577  0.0222
 9964W        W26438   8.993   5.026   2.728 -0.1206  0.1241 -0.1096
 9965W        W26439   2.833  10.328  15.110  0.0196 -0.0108 -0.0153
 9966W        W26440  12.833  17.250  14.517  0.0723 -0.2852 -0.2674
 9967W        W26441  10.625   8.603   5.465  0.3351  0.0835 -0.1958
 9968W        W26442  13.244   5.366   5.391 -0.0794  0.2957  0.1659
 9969W        W26443  17.323   2.199  13.893  0.1605  0.0012  0.0190
 9970W        W26444  11.654   1.546  15.772 -0.0368 -0.2952  0.2869
 9971W        W26445  10.893  15.937  14.748 -0.0182  0.0481 -0.3243
 9972W        W26446   2.326  14.474  14.584  0.2589 -0.3761  0.0817
 9973W        W26447  11.141   6.423   3.958 -0.0965 -0.1310  0.2036
 9974W        W26448  13.672  16.459   4.266 -0.0207 -0.0529  0.0943
 9975W        W26449  14.471  14.797  13.671  0.1104 -0.1051 -0.3609
 9976W        W26450   7.676  13.452   5.432  0.4000  0.1131 -0.2180
 9977W        W26451   1.763   9.518  11.629  0.0218 -0.0991 -0.0985
 9978W        W26452  12.298  11.772  16.044 -0.0042 -0.1823 -0.0352
 9979W        W26453   0.239   0.246  12.988 -0.0431  0.3012 -0.1909
 9980W        W26454  11.905  14.139   1.548 -0.0031 -0.0364  0.1709
 9981W        W26455   9.039  15.550   3.633  0.2846  0.0558  0.0870
 9982W        W26456  16.026   1.160  13.624 -0.1609 -0.2754 -0.0494
 9983W        W26457   6.158   6.156  15.961 -0.2084 -0.1449 -0.1503
 9984W        W26458   1.303   5.328  15.714  0.1420  0.1085 -0.2139
 9985W        W26459  13.789  16.415  11.770  0.0479  0.4123  0.0495
 9986W        W26460   4.781  16.459   3.445  0.1733 -0.1476 -0.0729
 9987W        W26461  14.703   6.568  15.133  0.1112 -0.1902 -0.0715
 9988W        W26462  14.451   4.562   4.922 -0.0953  0.1027 -0.0961
 9989W        W26463   5.199  10.756   2.158  0.0489 -0.1001 -0.0752
 9990W        W26464  16.547   7.336  10.447 -0.4749  0.3576 -0.1146
 9991W        W26465  10.689  11.263  11.500 -0.0445 -0.0138 -0.4070
 9992W        W26466  18.011  16.292   3.652 -0.1237  0.0693  0.1868
 9993W        W26467   3.389  16.556   2.880  0.0404 -0.1725 -0.0167
 9994W        W26468   3.208   2.412   4.214  0.1236 -0.2833 -0.2088
 9995W        W26469   5.796   9.179  13.325 -0.0785  0.2543 -0.1979
 9996W        W26470  12.878   9.714   6.184 -0.1513  0.0969  0.1301
 9997W        W26471   3.510  10.318   1.188 -0.3119  0.1222  0.2522
 9998W        W26472   2.428   4.321  15.369 -0.1998  0.3693 -0.0858
 9999W        W26473   2.137  15.200   1.659  0.3400 -0.0480  0.1849
10000W        W26474  15.065   1.595   2.385  0.4569 -0.1781 -0.0997
10001W        W26475  15.304  12.971   4.286  0.0981 -0.1963  0.0999
10002W        W26476  15.802   2.974  14.630  0.1136  0.1629  0.1160
10003W        W26477  17.601   0.295  15.241  0.0221  0.0260 -0.2397
10004W        W26478   7.109   6.354  10.833 -0.3499 -0.0985 -0.3206
10005W        W26479   1.305  15.357   2.058 -0.0240  0.0394 -0.2625
10006W        W26480  15.878   6.184   1.347 -0.0852  0.4169 -0.3155
10007W        W26481   1.586   0.879   1.750 -0.2070 -0.1016 -0.2081
10008W        W26482  11.051   7.987   1.756  0.0647  0.2904  0.0812
10009W        W26483   6.479   3.778  15.765  0.0032  0.0967  0.1063
10010W        W26484  16.209  17.760  12.006  0.3224  0.2430 -0.4336
10011W        W26485   4.044  16.850  11.046 -0.0753  0.0124 -0.2957
10012W        W26486   6.127  14.199  12.182  0.0759  0.0341 -0.3629
10013W        W26487   3.896   4.929   4.125  0.0909  0.1442  0.0543
10014W        W26488   2.131   5.018   3.102 -0.1342  0.0467  0.2029
10015W        W26489   6.768  13.843  11.515 -0.0391  0.0764  0.1612
10016W        W26490   5.439   9.520  12.914  0.4038 -0.0960  0.0178
10017W        W26491   2.937  13.022   0.572 -0.1023  0.1075  0.0310
10018W        W26492   1.663  13.933  13.080  0.1357  0.1332  0.0052
10019W        W26493  12.845  10.731  14.399 -0.1730  0.0287  0.2833
10020W        W26494   5.826  14.158   0.615 -0.0124  0.2742 -0.2268
10021W        W26495  12.599   2.447   3.211 -0.0397 -0.1504 -0.0692
10022W        W26496   2.312  10.411  15.295  0.0157  0.1534 -0.1968
10023W        W26497  16.107   6.053  13.470  0.0118 -0.3528  0.2874
10024W        W26498   5.956   3.547  13.990 -0.2039 -0.0848 -0.0229
10025W        W26499   4.233   7.264   1.360  0.3308  0.1435 -0.2757
10026W        W26500   9.677  15.055  13.173  0.0281  0.1179 -0.1109
10027W        W26501   6.615   7.936   1.461  0.0063 -0.2108 -0.5132
10028W        W26502   3.931  17.496  13.831 -0.3660 -0.2243 -0.2901
10029W        W26503  16.628  14.940   3.623 -0.0481 -0.0695 -0.2041
10030W        W26504  14.971   0.667  12.836  0.0133  0.1065 -0.1481
10031W        W26505   2.077   3.856   3.939 -0.1692  0.0432 -0.2169
10032W        W26506   8.138   4.407  13.780  0.0311 -0.0233 -0.0120
10033W        W26507   7.729   7.043   3.655  0.0472 -0.3967  0.1600
10034W        W26508  13.193  15.069  11.454 -0.1060  0.3136  0.1113
10035W        W26509  12.016  10.148  11.816 -0.0753 -0.0779 -0.1071
10036W        W26510  11.070   6.521   2.369  0.3250 -0.1428 -0.2274
10037W        W26511  14.235   8.815   3.862  0.1002 -0.0328 -0.0687
10038W        W26512  18.169  15.335  11.596  0.3003 -0.1754  0.2930
10039W        W26513   4.685   6.818   2.204  0.2377  0.1374  0.1895
10040W        W26514   3.125  17.967   0.690 -0.1150  0.0243  0.0766
10041W        W26515  15.789  11.201   4.031 -0.0360 -0.3055 -0.0413
10042W        W26516  10.328  16.170   5.193 -0.2659  0.0550 -0.1106
10043W        W26517   6.618   4.798  14.259  0.1825 -0.0643 -0.1212
10044W        W26518   5.420  14.080   4.935 -0.0988  0.0495 -0.2302
10045W        W26519  12.116  10.666  12.592 -0.1964 -0.2762 -0.4188
10046W        W26520   6.551  14.744   4.504  0.1746 -0.1909 -0.0588
10047W        W26521   5.647   6.610   1.163  0.1452  0.2584 -0.1155
10048W        W26522  15.709   3.888  13.529 -0.0106 -0.0736  0.2178
10049W        W26523   2.496   5.551   2.798  0.1486 -0.1992  0.1835
10050W        W26524  16.848   3.143   1.171 -0.0958 -0.1697  0.2685
10051W        W26525  11.249  18.019  13.727 -0.0409 -0.2920  0.1160
10052W        W26526  16.513   6.815   0.191  0.0272 -0.0909 -0.3097
10053W        W26527  12.556  16.131  15.894 -0.3191  0.0252 -0.1920
10054W        W26528  12.188  12.518   3.785  0.0019 -0.1924  0.1838
10055W        W26529  15.881   6.066   2.319  0.0006  0.2015 -0.4586
10056W        W26530   3.066   5.827  11.679 -0.0601  0.0854 -0.0081
10057W        W26531  16.337   1.116   3.772  0.0857  0.1076 -0.0748
10058W        W26532  14.762   9.139  16.065 -0.3066  0.1038  0.2507
10059W        W26533   6.796   0.300   2.309 -0.0027 -0.1520  0.0237
10060W        W26534  11.432   6.130  14.513 -0.1314  0.0554 -0.0797
10061W        W26535  18.235   8.315  11.776 -0.0614 -0.1039  0.0672
10062W        W26536   5.587   9.859   1.207  0.1671 -0.0562 -0.0094
10063W        W26537   4.861   0.597   5.383  0.0652  0.3881 -0.0409
10064W        W26538   9.055  17.120   5.678 -0.0886  0.1463  0.0276
10065W        W26539   6.657  17.740   1.917  0.2813  0.0615  0.3383
10066W        W26540  11.877   4.201   2.797  0.2127 -0.3157 -0.1378
10067W        W26541  13.062  16.569   3.632 -0.2254 -0.1899 -0.1169
10068W        W26542   3.310   8.300  14.835 -0.1241 -0.2284 -0.0059
10069W        W26543  11.901  10.329   2.410 -0.2198 -0.1979  0.2791
10070W        W26544   3.089  14.925  14.280 -0.0716 -0.1938 -0.3318
10071W        W26545  16.712  16.387   0.531 -0.0682  0.0408  0.1651
10072W        W26546   5.663  13.081   2.153 -0.4037 -0.2332 -0.1423
10073W        W26547  15.100  11.621  13.287  0.1673 -0.1709 -0.0716
10074W        W26548  16.032   1.443   2.308  0.0121  0.1196 -0.0336
10075W        W26549  12.219  12.079   5.354 -0.1512 -0.0775 -0.0563
10076W        W26550  18.132   2.333  14.801 -0.0013  0.1207  0.2360
10077W        W26551   2.256   1.066  16.285  0.0052 -0.0050  0.2628
10078W        W26552  17.814   2.392  14.393  0.1197  0.0765  0.1412
10079W        W26553  17.665   3.657   5.719 -0.0943 -0.2119  0.1643
10080W        W26554   9.361   0.281  12.329  0.0717 -0.0327  0.2958
10081W        W26555  16.120   3.283   1.974 -0.1176 -0.2381 -0.2205
10082W        W26556   3.859   2.132  13.222  0.3190  0.2530 -0.1867
10083W        W26557  15.207   6.900   1.452 -0.3450 -0.1620 -0.2249
10084W        W26558  17.230   8.557  16.321  0.0043  0.0950 -0.4451
10085W        W26559  16.469   4.467  13.005 -0.1583 -0.0303  0.2782
10086W        W26560  13.764   3.428   0.543 -0.3189  0.0513  0.2188
10087W        W26561   0.299  12.811  11.420 -0.0757  0.0415  0.1348
10088W        W26562   1.203  12.249  15.744 -0.0332 -0.0755 -0.0471
10089W        W26563  13.855   2.706   3.472  0.1569  0.0078 -0.1193
10090W        W26564  14.113  14.254   1.920 -0.0673  0.0865 -0.0319
10091W        W26565   9.892  11.741  14.050 -0.0476 -0.1149  0.0827
10092W        W26566  12.349  12.020   3.573 -0.1023  0.1978  0.1089
10093W        W26567   4.183  11.880   1.229 -0.1234 -0.1211  0.2084
10094W        W26568  14.561   3.928  15.042 -0.1810 -0.0285  0.2610
10095W        W26569   1.856  11.102  14.247  0.1176  0.1096  0.0074
10096W        W26570   0.269   7.090  11.850 -0.1489  0.2017 -0.0830
10097W        W26571  12.335   8.862   2.846 -0.0740 -0.1781  0.1255
10098W        W26572  14.129  17.332  13.856  0.1817  0.1148 -0.0097
10099W        W26573  17.070  17.429   3.141  0.3160  0.0315  0.1467
10100W        W26574   3.377  11.222  14.099 -0.0420  0.1653  0.4639
10101W        W26575   6.315  12.860   3.953  0.5984 -0.2804 -0.0302
10102W        W26576  14.216   0.308  14.313  0.0523 -0.3132 -0.1766
10103W        W26577  16.706   2.191   3.736  0.2373 -0.1455  0.0496
10104W        W26578   7.516   3.956   4.116  0.0145  0.1699  0.0240
10105W        W26579   5.713  15.240   2.139 -0.2668 -0.1721 -0.1009
10106W        W26580   4.422   8.001   5.309  0.1937 -0.2723 -0.2455
10107W        W26581   9.500  18.270   1.759  0.2933 -0.1600  0.0530
10108W        W26582   4.227   5.318  12.196  0.2202  0.0606 -0.2921
10109W        W26583   8.135  11.203   2.231  0.0333 -0.0518  0.0461
10110W        W26584  10.078   9.807  13.786  0.1734 -0.2751  0.2887
10111W        W26585  11.461   8.181  14.498  0.1702 -0.2204 -0.3352
10112W        W26586  12.208  15.892   0.044  0.1093  0.4586 -0.0344
10113W        W26587   8.522   4.757   2.892 -0.2326 -0.1989  0.0744
10114W        W26588   9.189  14.872   5.552 -0.1163  0.0077 -0.1444
10115W        W26589   7.736   1.187  15.357  0.0999  0.2031 -0.2304
10116W        W26590  11.827   7.329  14.581 -0.3028 -0.0193  0.0418
10117W        W26591  12.701  17.770  11.035  0.1376  0.1281 -0.2447
10118W        W26592   8.468  11.000   5.643 -0.3057  0.0490 -0.1580
10119W        W26593   6.760  17.300   2.769  0.1814 -0.1152 -0.0567
10120W        W26594   8.943  10.173  11.297 -0.0763 -0.1063 -0.2709
10121W        W26595  16.489   2.675   2.429  0.1862  0.2264  0.1683
10122W        W26596  12.521   8.083  13.423 -0.0335  0.1467  0.0007
10123W        W26597  16.928   5.894  13.379  0.0734 -0.2307 -0.1387
10124W        W26598   2.098  11.787   5.121  0.1007  0.0934  0.3698
10125W        W26599  18.246   3.396   3.032  0.0450 -0.1267 -0.0891
10126W        W26600   5.799  16.727   4.685  0.0666 -0.1525  0.0514
10127W        W26601   2.045  16.767   3.025 -0.1669 -0.0470  0.0485
10128W        W26602  17.225   9.315   4.102 -0.2727 -0.1846  0.1352
10129W        W26603   1.061  12.234   2.327  0.1593 -0.0912 -0.0117
10130W        W26604  11.672  13.943   4.198 -0.0183  0.0182  0.1368
10131W        W26605  10.380   0.966  13.131  0.0535 -0.0480  0.1791
10132W        W26606  13.803   5.865  14.276 -0.0517  0.0261 -0.0177
10133W        W26607   1.813   2.778  11.729 -0.3415 -0.0252 -0.0792
10134W        W26608   8.744   6.545  11.458 -0.0220  0.3181  0.1308
10135W        W26609  15.267   1.064   4.848 -0.1025 -0.1463  0.1633
10136W        W26610   6.556  18.139  11.814 -0.0534  0.0854 -0.0135
10137W        W26611   8.357   8.029  14.442  0.0927  0.0697  0.0764
10138W        W26612   1.077   5.783   2.107 -0.0331 -0.1924 -0.0282
10139W        W26613  18.130  11.509  12.293  0.0537 -0.0793 -0.1761
10140W        W26614   4.116   9.067   0.660 -0.0168  0.1760  0.0488
10141W        W26615  17.692  10.015   4.087  0.1777 -0.0745 -0.3431
10142W        W26616   3.372   5.387   1.205  0.2860  0.0059  0.0401
10143W        W26617   9.322  12.840  13.530  0.0354  0.6747 -0.1188
10144W        W26618   9.763   0.175  15.711 -0.3755 -0.2616 -0.1681
10145W        W26619  14.222   1.799   2.531  0.2368  0.2989 -0.3161
10146W        W26620  16.142  16.572   1.906 -0.0611  0.1742  0.0768
10147W        W26621  11.703  14.910  13.346 -0.1667 -0.2123  0.0127
10148W        W26622  13.892  14.960  15.218  0.0204 -0.2059  0.4153
10149W        W26623  10.276   8.382   5.756 -0.0396 -0.1707  0.0805
10150W        W26624  14.651   4.085  15.931  0.0414 -0.1686 -0.1093
10151W        W26625   2.365  16.933   1.706 -0.0698 -0.0399 -0.0302
10152W        W26626   0.087   0.944   0.749 -0.4303 -0.0732 -0.1796
10153W        W26627   7.084   3.468  11.379 -0.4545  0.0078 -0.2218
10154W        W26628   0.835   7.411  13.023 -0.1069 -0.0368 -0.0643
10155W        W26629  15.580  18.059   5.067  0.0100  0.1322 -0.1964
10156W        W26630   9.528  10.427   5.197 -0.2621 -0.1225 -0.3090
10157W        W26631   1.067   9.822  16.196  0.0795 -0.1303  0.1712
10158W        W26632   6.164  16.057   1.578 -0.2611  0.3991 -0.0302
10159W        W26633  11.421   7.721   4.842  0.0770  0.0548  0.3776
10160W        W26634  11.302  17.383  14.807 -0.0383 -0.1064  0.3091
10161W        W26635   2.860  11.196   2.715 -0.1958 -0.1765 -0.1075
10162W        W26636  14.404   8.955  13.722 -0.2354  0.0228  0.1311
10163W        W26637   7.506   2.559   1.349 -0.0150 -0.1467  0.0128
10164W        W26638   1.328   1.475   3.415  0.3542  0.3764  0.4095
10165W        W26639   4.522  17.316   0.632 -0.2207  0.0647 -0.3084
10166W        W26640   2.332  14.114   1.737  0.0486  0.1715  0.0119
10167W        W26641   7.035   6.442   1.794 -0.0602  0.1382 -0.1805
10168W        W26642   7.665  13.498  15.745  0.0310  0.2223 -0.4586
10169W        W26643   5.862   8.378   5.273 -0.2889 -0.1655 -0.3111
10170W        W26644   3.423   9.866  15.484 -0.1156  0.1459  0.1897
10171W        W26645   4.654  15.449  12.228 -0.2028  0.1409 -0.0160
10172W        W26646   8.776   5.346  12.658  0.1830 -0.2894  0.0645
10173W        W26647  16.283   9.695   2.644  0.0868  0.1069  0.1264
10174W        W26648   1.142  17.904   4.977  0.0004 -0.0614  0.1460
10175W        W26649   4.911  14.324  12.064  0.2020 -0.0595 -0.0735
10176W        W26650   6.690  14.700   1.932  0.1568  0.1061 -0.0259
10177W        W26651   0.803   3.598   2.600 -0.3115 -0.0511 -0.2625
10178W        W26652  16.348   2.216  15.530 -0.1657 -0.0862  0.1695
10179W        W26653  13.349  13.895  12.309  0.2510  0.2502  0.1348
10180W        W26654  10.013   3.673  14.999 -0.4380 -0.3011 -0.1864
10181W        W26655   2.928   1.863   0.918  0.0778 -0.0764 -0.0576
10182W        W26656  16.755   4.306  15.095  0.1512 -0.2121 -0.1059
10183W        W26657  17.557   1.188   4.990 -0.0188  0.0383 -0.3688
10184W        W26658   9.358  15.803   1.117  0.0591  0.1596  0.0135
10185W        W26659   5.411  16.602  11.264 -0.0006  0.0111  0.1380
10186W        W26660  17.840  14.673  12.698 -0.0783 -0.0739  0.0644
10187W        W26661   5.238  10.407  15.598  0.0411  0.1265  0.0257
10188W        W26662  11.395  14.375   4.286  0.2990  0.2574 -0.0127
10189W        W26663  15.821   5.952  12.598  0.1680  0.0079  0.0617
10190W        W26664   4.320  14.975   4.588  0.0967 -0.0666  0.0409
10191W        W26665   8.129  15.055   0.909 -0.3717 -0.0372  0.1189
10192W        W26666   9.772   3.828  15.403 -0.1601 -0.1516  0.3265
10193W        W26667  18.182  11.285  15.402  0.0259  0.2317  0.0801
10194W        W26668  17.283   7.320   2.775  0.0391 -0.4239 -0.1685
10195W        W26669   1.195   9.973  13.305 -0.1024 -0.1146  0.2108
10196W        W26670   3.014  12.702   0.122 -0.1705  0.3287  0.0654
10197W        W26671   3.829  13.364   2.120 -0.0426  0.1534  0.2960
10198W        W26672   3.291   5.451  11.982 -0.2977 -0.0468  0.1085
10199W        W26673  16.430  11.424   2.167 -0.4099 -0.0372  0.1836
10200W        W26674  14.220  11.543   4.074  0.0895  0.1637 -0.3009
10201W        W26675  17.236   6.363  10.956 -0.1753  0.0177  0.1979
10202W        W26676  14.471   3.096   3.205  0.0896  0.0956  0.1246
10203W        W26677  10.169   3.612   2.002 -0.1930 -0.1357 -0.1962
10204W        W26678   1.090  14.626  13.129 -0.0982  0.0350 -0.3107
10205W        W26679   2.055   6.604  16.245  0.1315  0.1436 -0.3057
10206W        W26680  10.301  11.418  14.199  0.2161 -0.0192  0.0279
10207W        W26681  16.483   9.900   4.797 -0.2139  0.3256  0.3057
10208W        W26682  13.261  12.650   1.527  0.1678  0.1060 -0.1751
10209W        W26683   5.228  16.976  11.972 -0.2366  0.0720  0.2189
10210W        W26684   6.644   3.069  13.516 -0.3473 -0.1102 -0.2547
10211W        W26685  12.843  11.387   5.143 -0.0703 -0.2101  0.4156
10212W        W26686  10.623  16.183   1.301 -0.5009 -0.3105  0.0299
10213W        W26687   7.291   5.207   0.877  0.1546 -0.0003  0.3288
10214W        W26688  15.209   4.768   5.062  0.1919  0.0785 -0.1343
10215W        W26689  10.222   6.697   1.711 -0.2729 -0.0933  0.0624
10216W        W26690  10.339  10.486   1.116  0.2157 -0.0664  0.1618
10217W        W26691  13.544   8.064  12.938 -0.0638  0.0273 -0.1263
10218W        W26692  12.899   2.836   3.964 -0.0133  0.1424  0.2984
10219W        W26693   9.789  16.769   1.009  0.3393  0.0626 -0.1224
10220W        W26694  17.215  12.940   4.014  0.2089  0.3103  0.0586
10221W        W26695   4.962   7.822   4.611  0.0715  0.3827  0.0362
10222W        W26696   4.861   0.588  11.812  0.0634 -0.2927  0.1340
10223W        W26697   5.641  16.704   2.779  0.1858  0.0299 -0.2467
10224W        W26698   4.351   5.747  15.412  0.0547  0.2587  0.1258
10225W        W26699  16.946   1.654   5.444 -0.2714 -0.1414 -0.2516
10226W        W26700   8.336   1.320   0.171 -0.1387  0.0291 -0.0588
10227W        W26701  10.138  16.035   1.452 -0.0328  0.1073 -0.0120
10228W        W26702  12.186  16.557   1.394  0.0084  0.2908 -0.0209
10229W        W26703  16.067   7.574   3.144 -0.2034 -0.1964 -0.0726
10230W        W26704   6.725   9.339   0.937  0.3056  0.4692  0.0676
10231W        W26705   7.128   7.602   2.663 -0.2241 -0.1396 -0.3918
10232W        W26706  16.905   1.757   3.412 -0.1007  0.2582  0.2713
10233W        W26707  17.874   2.950  15.008 -0.0196 -0.1701  0.1817
10234W        W26708  14.851   4.073   5.411  0.0596  0.0120 -0.1067
10235W        W26709   3.993   1.363  14.455  0.0113 -0.0828  0.2116
10236W        W26710  10.560  12.032   4.998 -0.0785 -0.1076  0.0957
10237W        W26711   8.039  14.249  13.793  0.1873  0.5326 -0.2611
10238W        W26712  17.697  11.758  11.678 -0.2391 -0.3442 -0.1133
10239W        W26713  14.909  15.086  14.478  0.1602 -0.0919  0.1758
10240W        W26714   6.557  16.676  15.301  0.0217 -0.1810 -0.1366
10241W        W26715  10.718  10.931   5.176 -0.1583  0.0496  0.1188
10242W        W26716  13.567   5.750   3.792  0.4052 -0.0536 -0.0676
10243W        W26717   8.193  11.982   1.166 -0.2128  0.0106  0.1473
10244W        W26718   4.576   0.255  13.756  0.0229 -0.0238 -0.4980
10245W        W26719   3.033   2.630  12.355 -0.3262  0.2386 -0.0054
10246W        W26720  14.969   7.690   5.019 -0.0842  0.0182 -0.1479
10247W        W26721   9.518  11.966  14.396  0.1092 -0.0187  0.0295
10248W        W26722  16.605   6.504   3.319 -0.0203 -0.1812 -0.1619
10249W        W26723   8.777   5.566   2.456  0.0770  0.2419  0.1297
10250W        W26724   7.148   2.905  11.327 -0.0310  0.1180 -0.1237
10251W        W26725   6.552  14.311   3.936  0.0797 -0.6023 -0.3185
10252W        W26726  12.448   2.321   1.680  0.0594  0.0920  0.2097
10253W        W26727   0.181   2.845   1.514 -0.2604 -0.2984  0.0794
10254W        W26728   8.497  10.124  14.421  0.0867 -0.3211  0.2548
10255W        W26729  14.986   9.817  11.967 -0.1312  0.1867 -0.1955
10256W        W26730   9.206  17.404   2.154 -0.1992 -0.2346  0.1328
10257W        W26731   8.932  10.069  11.781  0.0442  0.0966  0.0117
10258W        W26732   4.451   8.025  12.516 -0.1287  0.3910 -0.1853
10259W        W26733  11.147   1.224  12.771 -0.0234 -0.1171 -0.2371
10260W        W26734   4.983   0.399  16.313 -0.0708  0.2408  0.2662
10261W        W26735   7.302  13.635  11.628  0.1114  0.0309  0.2545
10262W        W26736   1.469  13.874  15.462 -0.1022 -0.0945  0.1526
10263W        W26737   0.792   1.139   5.151 -0.0737 -0.0150 -0.1049
10264W        W26738   8.157   9.160  11.430  0.0080  0.1321 -0.0361
10265W        W26739   6.261   4.034   5.112 -0.0678 -0.0632 -0.1710
10266W        W26740   6.934   5.195   2.426  0.2919 -0.0750  0.1129
10267W        W26741  13.911  11.975  12.608 -0.1916  0.0535 -0.0394
10268W        W26742  12.304  15.646   4.567  0.1750  0.1135  0.1245
10269W        W26743  10.021  10.836  15.362 -0.0740 -0.2775 -0.1439
10270W        W26744   8.938  17.596  16.059 -0.1714 -0.0841  0.1819
10271W        W26745  10.565  10.183  15.616 -0.1918 -0.0716 -0.3436
10272W        W26746   0.142   0.550  14.269 -0.0629  0.0301  0.0156
10273W        W26747   5.171   5.625  15.685 -0.1207 -0.0956  0.0235
10274W        W26748   1.037   3.406   3.756 -0.0626  0.1302  0.1416
10275W        W26749   6.709   4.302   1.940 -0.2091  0.1533  0.0655
10276W        W26750   2.245  14.445  15.239  0.0077  0.0706 -0.0080
10277W        W26751   4.369   9.589   3.204  0.0029  0.5210  0.0230
10278W        W26752   1.863   2.461  13.253  0.1104  0.1057 -0.0585
10279W        W26753  16.519  12.338   1.251  0.0579 -0.3798 -0.3126
10280W        W26754  15.731  10.740  11.124 -0.0402  0.1279 -0.0215
10281W        W26755   3.583  10.595   4.687 -0.1025  0.1976 -0.2034
10282W        W26756   7.345   7.195   0.417 -0.1498  0.3587  0.0221
10283W        W26757   2.538   2.854  15.547 -0.0420  0.1246 -0.0772
10284W        W26758   2.875   7.172   3.464  0.0965 -0.0190  0.0072
10285W        W26759  10.605   5.829   3.544  0.2143 -0.1877  0.0081
10286W        W26760   1.703  12.065   4.858  0.0097  0.0202  0.0021
10287W        W26761  18.195  12.405   0.988 -0.4181  0.3947  0.1569
10288W        W26762  16.784  14.884  11.272  0.1555  0.0769  0.0501
10289W        W26763   0.641   8.249  13.417  0.1430  0.2549  0.1504
10290W        W26764   1.631  11.412   1.310 -0.0998 -0.0240 -0.0398
10291W        W26765  13.861   4.218   4.353  0.0730 -0.2338 -0.0256
10292W        W26766   2.463   5.310   4.302  0.4774 -0.0781 -0.1270
10293W        W26767   0.196  14.116   1.800  0.2591 -0.0885 -0.1423
10294W        W26768  17.786   0.120   4.346  0.1223 -0.0939  0.2105
10295W        W26769  10.847   1.500   4.821 -0.0557  0.2366 -0.1675
10296W        W26770  10.116  14.827   1.359  0.2193 -0.1437  0.5467
10297W        W26771  18.138   6.190   0.749 -0.1335  0.3037 -0.0331
10298W        W26772   8.922   6.454   4.640  0.1423 -0.0641 -0.1663
10299W        W26773   0.208  10.503  14.876 -0.1360  0.0422 -0.0215
10300W        W26774  15.623  13.859   3.048 -0.1976  0.0135 -0.3245
10301W        W26775   3.870   3.950  13.632  0.0356  0.2025 -0.2050
10302W        W26776  17.561  12.136   5.164 -0.2649  0.1520  0.2439
10303W        W26777   7.411   3.355   4.881 -0.1711 -0.3845  0.2583
10304W        W26778  13.504  12.003  11.998  0.0106 -0.2850  0.2438
10305W        W26779   8.460  18.222  11.415  0.0451  0.4746 -0.0204
10306W        W26780  14.796   4.748   0.341 -0.3627  0.0852  0.1286
10307W        W26781   5.101  15.032   3.248 -0.0724  0.0076 -0.1371
10308W        W26782   7.569  15.704  12.128  0.0807 -0.3384  0.0329
10309W        W26783   6.728  18.263  13.068 -0.0604 -0.1605  0.1913
10310W        W26784   3.853  14.463   3.327 -0.0987 -0.1421 -0.0151
10311W        W26785  12.080   2.385   5.540 -0.2535  0.0186 -0.0201
10312W        W26786  16.796   8.767  14.009  0.1822 -0.0222 -0.1897
10313W        W26787  16.186   3.061   5.191 -0.1097 -0.4358 -0.0966
10314W        W26788   1.606  15.117  14.019  0.2488  0.0525  0.2264
10315W        W26789   1.457  13.859   2.936  0.1134  0.0154  0.0638
10316W        W26790   9.177   2.659  12.381 -0.0951  0.0309  0.1379
10317W        W26791  17.592  11.118   3.315 -0.0417  0.0191 -0.1980
10318W        W26792  11.780   1.189   1.865 -0.1279 -0.1684 -0.0471
10319W        W26793   5.917   3.947  11.943 -0.1259 -0.0873  0.0342
10320W        W26794   5.675   9.344   0.997  0.0293 -0.1537 -0.2098
10321W        W26795  12.127   3.647   5.099  0.5549 -0.0005 -0.1202
10322W        W26796  14.841   6.285   3.666  0.1715  0.0900  0.1809
10323W        W26797  10.836   0.549  15.783  0.0015 -0.2513 -0.1638
10324W        W26798  13.061  13.682  12.665 -0.2719 -0.1392  0.0025
10325W        W26799   1.820   9.334  13.446  0.2263  0.2215  0.1046
10326W        W26800   4.809   0.562  12.349  0.1784 -0.2036  0.0403
10327W        W26801  17.273  14.952  15.716  0.1390  0.1585 -0.0737
10328W        W26802   2.905  15.202  12.185  0.0562 -0.0404 -0.0912
10329W        W26803   8.699  12.254  11.743  0.2071  0.1868  0.3395
10330W        W26804   6.998   9.728   4.391 -0.3277 -0.0734 -0.1244
10331W        W26805  17.765   4.258   0.884  0.0780 -0.4792  0.0016
10332W        W26806   4.759   4.839   3.767  0.0456  0.0207  0.1755
10333W        W26807  17.527   9.375  14.756 -0.0797  0.0830 -0.0738
10334W        W26808  12.267   8.730   1.928  0.3060 -0.1747 -0.3677
10335W        W26809  16.067  11.364  12.337 -0.2058 -0.1335 -0.1892
10336W        W26810  12.559   8.239   4.574 -0.0407 -0.4247  0.1579
10337W        W26811  15.085  13.614   4.239  0.0743 -0.0562  0.0875
10338W        W26812   9.377   9.385  16.309 -0.2304 -0.0832  0.1215
10339W        W26813  11.085   9.910   5.610 -0.0674  0.0775 -0.3218
10340W        W26814   2.317  16.164  13.053  0.3442 -0.1537  0.0449
10341W        W26815   1.033  17.514  12.752 -0.2496  0.0397  0.1968
10342W        W26816  10.651   8.504   1.814  0.2135  0.2069 -0.0834
10343W        W26817   3.485  16.647  15.261  0.4707 -0.1024  0.3568
10344W        W26818  18.086  14.328   1.167  0.0702 -0.0977  0.0343
10345W        W26819   1.859   1.920   4.885  0.0020 -0.1798  0.0452
10346W        W26820  14.441   2.190  16.018  0.0931  0.0775  0.2764
10347W        W26821   4.105  15.264  13.295  0.0023  0.1477  0.2199
10348W        W26822   5.252   5.136   2.814 -0.0756 -0.3970  0.0610
10349W        W26823  17.432  16.956  13.983 -0.1748 -0.1840  0.1901
10350W        W26824   4.933   1.059  13.957  0.1996  0.2396 -0.1921
10351W        W26825   6.551   9.628  15.180  0.3644 -0.1639 -0.2022
10352W        W26826   7.572  13.962   1.128  0.0965 -0.0693 -0.0647
10353W        W26827  16.015  11.957  14.397  0.1019  0.2192  0.1024
10354W        W26828  12.649   4.836   0.216 -0.2774  0.1913  0.1275
10355W        W26829  11.863   6.858  13.020 -0.1147 -0.1568 -0.1474
10356W        W26830  16.719  15.832  15.915 -0.2113 -0.3788 -0.0190
10357W        W26831  15.448   4.652   5.534 -0.0136  0.0970  0.1678
10358W        W26832  16.684  11.141  15.663  0.2371  0.2113 -0.3003
10359W        W26833  12.824   0.437   2.770 -0.1805 -0.0251  0.0199
10360W        W26834  12.902  15.933   1.170 -0.1517  0.0360 -0.1162
10361W        W26835  10.393   6.156   2.118  0.1797  0.0838 -0.1927
10362W        W26836  10.936  11.676   0.134  0.1451 -0.1612 -0.2302
10363W        W26837  15.444  14.433   0.495  0.2572  0.2252  0.4132
10364W        W26838   9.294   2.682  16.090  0.1810 -0.2707  0.0534
10365W        W26839   2.943  15.529   4.668  0.2462 -0.0638  0.0578
10366W        W26840  15.216   8.340   2.031 -0.0433 -0.5539  0.0850
10367W        W26841  11.111  13.313   5.252  0.1717 -0.0071 -0.2057
10368W        W26842   6.094   3.707   2.603  0.3087 -0.0258  0.0814
10369W        W26843  15.952   0.777   1.871 -0.0644 -0.0754 -0.1340
10370W        W26844  18.122  17.121   0.644 -0.0595  0.1732  0.2391
10371W        W26845  16.304  15.333   3.482 -0.1096  0.1112 -0.1713
10372W        W26846  16.889  11.469   0.737 -0.0076 -0.1474 -0.3285
10373W        W26847  15.380  16.752  16.312 -0.0820  0.2712  0.0048
10374W        W26848  14.181  17.042   1.546 -0.0200 -0.6192 -0.0894
10375W        W26849   1.063   3.899   5.628  0.2285 -0.2618 -0.2291
10376W        W26850   4.791   8.387   1.212 -0.4099 -0.3601 -0.2289
10377W        W26851   1.196   5.099  13.265  0.0289 -0.2096  0.2093
10378W        W26852  13.618   1.597  14.908  0.1654 -0.2775 -0.0470
10379W        W26853  16.077   0.487   0.273  0.2485  0.0545  0.1341
10380W        W26854  13.490  18.003   4.571 -0.0459 -0.1322  0.1524
10381W        W26855   9.657   4.574   0.020  0.0036  0.0353  0.0540
10382W        W26856   8.866   4.335   0.660 -0.0304  0.0890 -0.0905
10383W        W26857  17.953  17.017  13.890 -0.0035 -0.1868 -0.0385
10384W        W26858   3.549  17.534   5.790 -0.0141 -0.2869  0.1035
10385W        W26859  17.594  15.570  14.756 -0.1097  0.0353  0.1425
10386W        W26860   3.696  13.019  12.100 -0.0495  0.0928 -0.3413
10387W        W26861  14.698  17.839  13.756  0.2440 -0.1879 -0.1254
10388W        W26862   0.899  14.040  13.398 -0.0815 -0.0194  0.1734
10389W        W26863   3.776   8.081  15.768 -0.1802 -0.0871  0.3615
10390W        W26864   0.389   7.205   2.861  0.1096  0.3008  0.0547
10391W        W26865  16.417   1.482  13.340  0.3602 -0.2255  0.2061
10392W        W26866  12.393   9.909  13.988 -0.1129  0.0613 -0.0590
10393W        W26867   9.944  13.986   0.284 -0.2162  0.1099 -0.0505
10394W        W26868  16.947  10.772  12.288 -0.0696  0.2092  0.5285
10395W        W26869  15.584  11.410  13.484  0.2719 -0.2750 -0.1699
10396W        W26870   3.834  14.441   4.993 -0.0098 -0.2436  0.2418
10397W        W26871  18.238  13.887   2.736  0.0744 -0.2284 -0.0030
10398W        W26872  16.003  11.724   4.910 -0.1189 -0.1639  0.2264
10399W        W26873  11.118   9.082   3.647  0.0922  0.1099  0.0860
10400W        W26874   7.692   5.357   1.891  0.1717  0.0799 -0.2295
10401W        W26875  11.794   4.602   5.127 -0.1423  0.2773 -0.1361
10402W        W26876   7.170   9.997  15.939  0.2939 -0.0814 -0.2119
10403W        W26877  12.317  11.517   3.298  0.0754 -0.0830 -0.0936
10404W        W26878   5.846   0.724   2.730 -0.1257  0.1183  0.1088
10405W        W26879   7.093  12.750  11.762 -0.0281  0.0864 -0.1074
10406W        W26880   4.109  17.656  15.480 -0.3636  0.0214  0.0347
10407W        W26881   7.634  10.280   2.438  0.1397  0.1453 -0.2563
10408W        W26882   5.645   3.935  13.782 -0.0302 -0.1377  0.0683
10409W        W26883   1.263  11.549   2.945  0.1323 -0.4508  0.0756
10410W        W26884   1.518  10.620  14.078 -0.2012 -0.2972 -0.0680
10411W        W26885   6.784  16.450   1.212 -0.1550  0.0853 -0.1152
10412W        W26886  17.796  12.598   5.429  0.0408  0.0555  0.2090
10413W        W26887   9.267   0.471   0.203 -0.0350  0.0064  0.2519
10414W        W26888   5.864   5.162   0.601  0.3814  0.0061 -0.1891
10415W        W26889  14.156   1.526  12.365 -0.0271 -0.0851  0.1510
10416W        W26890   7.424  14.239   3.484 -0.0460 -0.1770 -0.0110
10417W        W26891   4.978   3.024  11.996  0.2411  0.0265  0.1628
10418W        W26892   0.542   7.220  13.418  0.0587 -0.0911  0.1188
10419W        W26893  12.091  11.712  10.983 -0.1246  0.2915 -0.0291
10420W        W26894   2.051  16.896   0.511  0.1119 -0.3758  0.1432
10421W        W26895  15.484   0.719  14.569 -0.3044  0.2145  0.0035
10422W        W26896   5.462  11.641   5.010  0.1378  0.0024 -0.0269
10423W        W26897  16.987   4.488   1.575 -0.0757 -0.1586 -0.1186
10424W        W26898  17.265  10.619   0.522  0.1041 -0.0706  0.1201
10425W        W26899  12.020  15.341  15.495 -0.1865  0.0503  0.2091
10426W        W26900  13.513   8.129  11.737 -0.1150  0.0508  0.0709
10427W        W26901   4.645   2.846  12.457 -0.1413 -0.1899  0.1388
10428W        W26902   3.067  14.273  16.264 -0.1191 -0.0632 -0.0160
10429W        W26903  14.826   1.819   1.015 -0.0635  0.2660  0.0080
10430W        W26904   7.973   3.719   2.978 -0.0709 -0.1800  0.0290
10431W        W26905  16.958   6.382  13.109  0.1293  0.2484  0.1661
10432W        W26906   9.114   7.453   4.392 -0.2470 -0.1180 -0.0856
10433W        W26907  17.008   3.854  15.038  0.1542  0.2261  0.2181
10434W        W26908   9.818   1.743   2.835  0.1852  0.1728  0.0785
10435W        W26909  13.792   4.412   2.927  0.0794 -0.2060 -0.3040
10436W        W26910   8.775   2.410   9.898 -0.2428  0.0873  0.0222
10437W        W26911  14.345   7.932  14.039  0.0342 -0.1696  0.1401
10438W        W26912  18.031  15.452  12.470  0.2130 -0.0173 -0.0183
10439W        W26913  15.089  16.864   0.920 -0.2452  0.0745  0.2745
10440W        W26914   8.258  16.299   5.517 -0.0368  0.0114 -0.2379
10441W        W26915   5.075   5.283  11.667  0.2298 -0.2790  0.0346
10442W        W26916  16.212   7.120  14.761  0.5844  0.0041  0.0460
10443W        W26917  14.500  12.989  10.656 -0.0287  0.1891 -0.0255
10444W        W26918   0.154  16.433  15.134 -0.4698  0.0138  0.4987
10445W        W26919   2.561  15.819   3.139  0.1546  0.1540  0.2158
10446W        W26920  15.259  12.720   3.273  0.0567 -0.1193 -0.0716
10447W        W26921   8.308   9.631   0.474 -0.3478 -0.1139 -0.1440
10448W        W26922   2.292  16.204  12.424 -0.0538 -0.0167 -0.1210
10449W        W26923  13.168   0.999  13.568 -0.0522  0.2953  0.3788
10450W        W26924   3.860  10.979  13.827 -0.1777  0.2443 -0.0245
10451W        W26925   2.502   9.952  15.254  0.0325 -0.2165 -0.0641
10452W        W26926  13.406   8.611   5.559  0.0615 -0.3042  0.1569
10453W        W26927   8.815  16.749   2.097 -0.1596 -0.0299 -0.2575
10454W        W26928  13.535   1.023  15.021  0.0346  0.4183  0.3523
10455W        W26929   4.236   8.034  16.066 -0.1751  0.2325 -0.0020
10456W        W26930   5.322  10.553   2.634  0.0822 -0.2438  0.2263
10457W        W26931  12.421   4.067   3.230 -0.0201 -0.0061  0.0900
10458W        W26932   1.281   0.992  15.152  0.0949  0.1274 -0.0909
10459W        W26933  14.668  12.334  15.793 -0.0160  0.1355  0.0863
10460W        W26934   6.096  13.791  11.460 -0.1792  0.0346 -0.1918
10461W        W26935  13.579  12.692   2.391  0.0874 -0.0666 -0.1732
10462W        W26936   1.492   7.000   1.069 -0.1219  0.0532 -0.1132
10463W        W26937   5.135   1.809   0.829  0.0860  0.0993 -0.0627
10464W        W26938   9.715  16.105  11.752 -0.1920 -0.2201  0.0018
10465W        W26939  18.291   9.924   0.592  0.1342  0.1748 -0.3253
10466W        W26940  12.166   2.728   2.633 -0.0070  0.0113  0.0701
10467W        W26941  16.229   0.947   0.460  0.0000  0.0980 -0.1706
10468W        W26942  15.180   4.559   2.874  0.0916 -0.1701 -0.1948
10469W        W26943   0.772   8.581   0.979 -0.0520  0.0204  0.0065
10470W        W26944  15.791   7.456   5.240 -0.0789  0.2558 -0.0660
10471W        W26945  16.016   0.215   1.075  0.0783  0.0440  0.1436
10472W        W26946   3.814   0.606  15.661  0.1504 -0.0425 -0.1900
10473W        W26947   6.203   8.751  13.016  0.1450  0.0808 -0.0280
10474W        W26948   7.710   9.532   3.700  0.0420 -0.1256  0.1381
10475W        W26949  16.966   6.381  13.660 -0.3118 -0.1878  0.0649
10476W        W26950   3.414  14.907  14.959  0.1742  0.0906 -0.4025
10477W        W26951   6.237  11.822   3.591 -0.1887 -0.1825  0.0912
10478W        W26952   4.586   5.101   1.783  0.1419  0.0290 -0.1616
10479W        W26953  17.961   8.168   0.170  0.0804  0.3182 -0.0389
10480W        W26954   9.552  10.368   0.156  0.1704  0.0607 -0.1321
10481W        W26955  14.527   3.652   1.853 -0.0384  0.0754  0.0324
10482W        W26956  16.114  10.623   0.487  0.3760 -0.0976  0.0860
10483W        W26957   5.657   4.439  11.609  0.0279  0.0140  0.0692
10484W        W26958   3.690   0.037   4.955  0.4241  0.2758 -0.0524
10485W        W26959  17.059   4.235  13.797 -0.3684 -0.0820 -0.1726
10486W        W26960  14.799  16.463  12.165  0.1419  0.0694  0.0392
10487W        W26961   6.031   8.936  14.363 -0.0453  0.2921  0.0790
10488W        W26962   5.209   9.679  14.983 -0.2101 -0.2132  0.2385
10489W        W26963   7.149   5.031  13.298 -0.0128 -0.0741 -0.0993
10490W        W26964   7.358   3.618   3.788 -0.0787  0.3583 -0.0212
10491W        W26965   4.168   7.103   4.181  0.1126  0.3524  0.4753
10492W        W26966   6.415  11.011  14.265  0.3754  0.3677 -0.1647
10493W        W26967  17.836   4.048  11.339 -0.0811  0.2566  0.5179
10494W        W26968  18.086   9.895   3.268  0.1414  0.1572 -0.0094
10495W        W26969   3.044   8.040  12.539 -0.1948  0.3117  0.2192
10496W        W26970   3.204  16.345   3.363  0.0577  0.1166 -0.0259
10497W        W26971   2.187   8.719  13.501  0.1377 -0.0177  0.2389
10498W        W26972  14.662   1.864   2.938  0.0935 -0.0894  0.1887
10499W        W26973  10.176   0.087  10.916 -0.1996  0.2559 -0.1387
10500W        W26974   4.129  11.613   1.642  0.0451 -0.0477  0.4822
10501W        W26975   4.954   2.098  11.308  0.0267 -0.1765  0.0418
10502W        W26976  11.008  10.196   0.312 -0.0412 -0.1755  0.3635
10503W        W26977   6.206  12.935  11.313  0.2010 -0.0938 -0.1601
10504W        W26978   3.316   5.516  12.600  0.0668 -0.1643  0.1101
10505W        W26979  17.923   9.678   3.697 -0.0160 -0.1214  0.1073
10506W        W26980   8.017   5.197   5.055  0.1173 -0.1169  0.1824
10507W        W26981   6.279   4.667   5.127  0.2333  0.1652 -0.0099
10508W        W26982  11.836  11.200  14.915 -0.2816  0.0581 -0.0868
10509W        W26983   8.785  11.893   3.205 -0.0202  0.1776 -0.4359
10510W        W26984  18.139   6.301  12.065 -0.1074  0.2211  0.1908
10511W        W26985  10.836  14.575  11.991  0.0586  0.2834 -0.1327
10512W        W26986   6.109   3.208  15.667 -0.0113 -0.1306  0.0670
10513W        W26987  13.850   7.770   1.864  0.0287  0.2268 -0.4508
10514W        W26988   1.945  10.168   0.999 -0.0778  0.3207  0.2662
10515W        W26989   5.309  16.423   0.399  0.1075  0.0021 -0.2074
10516W        W26990   0.346  11.363  15.206  0.2182  0.1102 -0.1807
10517W        W26991  12.651   4.837  13.147 -0.2924 -0.1109 -0.0800
10518W        W26992  17.232   6.272  15.580 -0.3518 -0.2648  0.0069
10519W        W26993  12.417  12.990   0.394 -0.0220  0.0817  0.0096
10520W        W26994  13.618  12.565  14.669 -0.2170 -0.0623  0.0348
10521W        W26995   1.197   5.800  11.306 -0.1989  0.0311  0.0914
10522W        W26996  13.373  11.446   0.358  0.2517 -0.2534  0.2192
10523W        W26997   0.637   0.383  15.103 -0.1030  0.0728  0.0512
10524W        W26998  15.025  17.032  14.805  0.0495  0.1377 -0.0572
10525W        W26999   2.989  15.827  13.086 -0.1413 -0.0416  0.0446
10526W        W27000  16.228  16.567  14.837 -0.1797 -0.2288  0.2844
10527W        W27001   3.854  14.050  11.679 -0.1475 -0.1022 -0.1438
10528W        W27002   4.283  13.046   2.216 -0.1254  0.0864  0.1429
10529W        W27003  16.921   7.530   1.019 -0.0270  0.0364 -0.1482
10530W        W27004  15.037   0.989  13.392  0.4424 -0.0854 -0.0349
10531W        W27005  15.244   2.647  14.119 -0.2797 -0.2213  0.0697
10532W        W27006   4.163   6.255   0.332 -0.1504  0.2158 -0.1057
10533W        W27007  17.251   4.440   2.010  0.0757 -0.1329 -0.1098
10534W        W27008  14.493  12.178   2.099  0.0518 -0.0050  0.1457
10535W        W27009  16.212  17.945   5.508  0.1907  0.2815 -0.0758
10536W        W27010   7.859   5.081   0.242  0.2196  0.0057 -0.2864
10537W        W27011   9.127   1.527  15.799 -0.0394  0.0798 -0.0509
10538W        W27012   6.539   3.605   4.264 -0.1576  0.2556 -0.3606
10539W        W27013   8.745  14.034  11.230 -0.4170 -0.1558 -0.1768
10540W        W27014  14.091   6.283  15.801  0.0501  0.0246 -0.0726
10541W        W27015  11.664  11.216   4.393 -0.2721 -0.3724  0.0141
10542W        W27016  11.919   9.935  13.551 -0.1711 -0.0913 -0.2852
10543W        W27017   8.328   8.693  13.113 -0.0998 -0.2654 -0.0258
10544W        W27018   1.753   4.300   1.297  0.0502 -0.1361  0.0945
10545W        W27019   5.919  17.428   0.298 -0.4001  0.0161  0.1672
10546W        W27020  12.418   1.888  14.011 -0.1107  0.4324  0.1241
10547W        W27021   3.645   4.690  10.960 -0.3447  0.0449 -0.0150
10548W        W27022   3.678  13.997   0.537  0.4918  0.0250  0.0018
10549W        W27023   3.345   3.973   3.878 -0.0609  0.2634 -0.1117
10550W        W27024   2.288  14.221   4.477  0.1722  0.1684  0.1117
10551W        W27025   6.034   2.108  10.724  0.1961  0.1049  0.0122
10552W        W27026   7.886  13.556   2.801 -0.2072 -0.2563  0.2207
10553W        W27027   9.156   6.633   0.233 -0.1125 -0.0730  0.1809
10554W        W27028  15.259  15.381  12.099 -0.1031  0.0450  0.0281
10555W        W27029   7.818   9.355  12.860  0.1275 -0.0446 -0.1410
10556W        W27030  10.753   5.403  12.368  0.2520 -0.2315 -0.1243
10557W        W27031   2.870  15.452  12.614  0.0021 -0.1742 -0.1128
10558W        W27032   8.043   1.138  12.834 -0.2544  0.0755 -0.0535
10559W        W27033   1.501  17.636   4.555 -0.3165  0.1010  0.0277
10560W        W27034   0.396   7.171  11.334 -0.0970  0.3521  0.1103
10561W        W27035   1.441   6.332   1.950  0.2107 -0.1774  0.1367
10562W        W27036   7.361  16.814   0.128  0.0569  0.0537 -0.1612
10563W        W27037  11.327  10.243   2.604  0.2157  0.0669 -0.0400
10564W        W27038   0.506   2.671  15.132 -0.0890 -0.0982 -0.1009
10565W        W27039  17.467  14.668   3.624 -0.0554 -0.3631 -0.3704
10566W        W27040   0.190   3.190   1.137  0.1008 -0.2174 -0.2869
10567W        W27041  11.928  17.297   2.472  0.0880  0.2054 -0.1062
10568W        W27042  11.778   9.006   1.933 -0.1149  0.3159  0.1042
10569W        W27043  10.149   8.629   6.148  0.0326  0.0204 -0.3220
10570W        W27044   5.289   1.528  16.212  0.2731  0.1593  0.1155
10571W        W27045  15.382   0.571  13.399 -0.2677  0.0077  0.1170
10572W        W27046   5.322  17.049   2.201  0.1382 -0.1085 -0.0779
10573W        W27047  11.095  14.217  13.489  0.2392 -0.3551  0.2484
10574W        W27048   5.835   0.373   2.434 -0.1641 -0.0392  0.2615
10575W        W27049   0.162  11.416  11.379 -0.0229  0.0738 -0.1923
10576W        W27050   1.360   0.436   4.294  0.1432  0.0513  0.1961
10577W        W27051  11.398  16.112  14.915 -0.0145  0.1250  0.0219
10578W        W27052   4.035   9.406  13.568 -0.1180 -0.1314 -0.1090
10579W        W27053  10.082  15.958   0.701  0.2678 -0.0177 -0.1736
10580W        W27054   6.994   0.125   0.764 -0.1275 -0.2287  0.3497
10581W        W27055  18.053  15.598  13.605 -0.1417  0.1185  0.0111
10582W        W27056  17.512  11.928   4.000  0.2477  0.0523 -0.0570
10583W        W27057   3.901   3.429  13.580  0.0084 -0.0723  0.2109
10584W        W27058  11.972   8.251   5.895 -0.2092 -0.1558 -0.1022
10585W        W27059  13.939  16.891  13.105 -0.0237  0.1093  0.1404
10586W        W27060  17.239   0.959  14.062 -0.3902 -0.1178 -0.0344
10587W        W27061   6.870   5.016  15.433  0.0731  0.1028 -0.1533
10588W        W27062   0.215  12.036   4.912 -0.0342  0.0762 -0.0407
10589W        W27063   1.626   6.420  15.672  0.0164 -0.0985 -0.0952
10590W        W27064   9.775   7.603  15.893 -0.0236 -0.1615 -0.0336
10591W        W27065   5.681   3.358  13.514  0.1137 -0.0386  0.0089
10592W        W27066   4.002  10.932  15.324 -0.2784  0.0239  0.1518
10593W        W27067   8.885  18.091   1.683  0.1526 -0.1682  0.0459
10594W        W27068  16.264  15.951  11.677 -0.2157 -0.0350  0.2132
10595W        W27069  12.238   7.191   1.754  0.4640 -0.0629 -0.0068
10596W        W27070  12.726   4.858  11.473  0.1175 -0.2411  0.2363
10597W        W27071  16.968   1.622   4.038  0.0847  0.0360  0.0321
10598W        W27072  14.197  16.124  12.523  0.2149  0.1188  0.4659
10599W        W27073   3.649  17.682  15.591 -0.0752 -0.0495  0.0272
10600W        W27074  17.959   4.864  10.922 -0.0656 -0.2771 -0.1671
10601W        W27075   0.840   9.581   2.999  0.0884 -0.1405 -0.1964
10602W        W27076  14.968  12.253   0.234  0.2507  0.4328 -0.2643
10603W        W27077  11.198   5.323  15.498  0.3644 -0.0057  0.0368
10604W        W27078   3.523  14.357   0.217 -0.0653 -0.1824 -0.0156
10605W        W27079  16.875   7.665   2.111 -0.1302 -0.0362 -0.1241
10606W        W27080   1.388  14.578  14.739 -0.1948 -0.0031 -0.0501
10607W        W27081   4.412   7.874  14.148  0.0947  0.2726 -0.0980
10608W        W27082   2.681   9.499  15.089 -0.1229  0.0898 -0.0087
10609W        W27083  10.526  10.786   2.173  0.0562 -0.3179 -0.0387
10610W        W27084  10.644  13.389  14.723  0.0609 -0.2849 -0.0894
10611W        W27085   1.043   1.459  12.556  0.1361  0.0508 -0.1696
10612W        W27086   0.044   6.851   5.286  0.0944  0.0517  0.0432
10613W        W27087  11.838   2.108   3.132 -0.2056 -0.2222  0.1481
10614W        W27088   2.764  13.520   2.380  0.1091  0.1042  0.2596
10615W        W27089  10.416  18.112   5.944  0.3023 -0.0725  0.1732
10616W        W27090   8.459   2.363  13.997 -0.1127 -0.1741 -0.2168
10617W        W27091  13.891  18.154  14.111 -0.1505 -0.0195  0.0518
10618W        W27092   2.151   6.983   4.874  0.1667  0.3913  0.1203
10619W        W27093   4.819   7.328   3.185 -0.0013 -0.3138 -0.0449
10620W        W27094  12.574  14.400  14.211  0.0767  0.1145  0.2432
10621W        W27095  12.505  11.313  14.353 -0.1640 -0.0493  0.1433
10622W        W27096  13.428   1.154  16.082 -0.0143  0.3015  0.0585
10623W        W27097   0.577   9.536  15.017 -0.1111  0.0209 -0.2323
10624W        W27098  16.113  18.155   1.479 -0.0402  0.0091  0.0343
10625W        W27099   5.010   1.409   5.010 -0.0230 -0.3170 -0.3072
10626W        W27100  12.403  15.659  15.689  0.3178  0.0946 -0.1459
10627W        W27101  10.436   0.397  11.607  0.0127  0.2250 -0.4114
10628W        W27102   3.473   4.767   2.373  0.1112  0.1558  0.0690
10629W        W27103  18.142  13.279   4.924 -0.0245  0.2340  0.0502
10630W        W27104  17.433  10.346   1.967 -0.1828  0.2127 -0.1476
10631W        W27105   3.109   2.726   1.177  0.1308 -0.1836 -0.2235
10632W        W27106   1.938   8.122  11.602 -0.0775  0.3362  0.3348
10633W        W27107  10.305  16.982   5.780  0.1168  0.1778 -0.1616
10634W        W27108   3.009   4.618   0.699  0.4553  0.3421 -0.0183
10635W        W27109   8.607  15.821   0.441 -0.0126  0.0110  0.0635
10636W        W27110   2.970  17.251   6.020 -0.0136 -0.1970  0.2326
10637W        W27111  17.985  13.715  10.577 -0.1136 -0.0026 -0.0998
10638W        W27112  13.067  14.255  14.185  0.1187  0.1465  0.0713
10639W        W27113  10.836   6.270   1.774  0.0514 -0.1000 -0.1982
10640W        W27114   5.488   6.642   3.776  0.2736  0.1973 -0.1463
10641W        W27115   7.115  11.707  11.537  0.3106 -0.2822 -0.1858
10642W        W27116  11.157  15.527  11.922  0.3569 -0.3581 -0.0439
10643W        W27117   4.770   7.671   0.806 -0.2587  0.0391  0.0751
10644W        W27118   3.146  13.365  13.837 -0.1403 -0.0251 -0.0387
10645W        W27119   5.433   5.888   3.025 -0.1073 -0.0631 -0.1082
10646W        W27120  17.493   0.413  14.192 -0.4292  0.1153 -0.2240
10647W        W27121   8.259   3.617  13.853 -0.2259 -0.0727 -0.0068
10648W        W27122  18.009  12.927  14.654  0.0391  0.0924  0.0045
10649W        W27123   5.449  18.269  13.747 -0.1902 -0.0335  0.0132
10650W        W27124   8.532  12.102  12.267  0.0451 -0.0262  0.5074
10651W        W27125   0.932   4.880   4.837  0.2231  0.3629 -0.1152
10652W        W27126   8.592   2.718   5.146 -0.2692  0.0019  0.0993
10653W        W27127  15.270   3.099   0.290 -0.1383  0.2530  0.1055
10654W        W27128  17.764   3.287  13.064 -0.4178  0.3736 -0.0995
10655W        W27129   9.117   8.812   2.351  0.4898  0.0558  0.2589
10656W        W27130  16.937  10.072   5.824 -0.1596 -0.1328 -0.4052
10657W        W27131  15.285  17.225   0.070 -0.0414 -0.0459 -0.1573
10658W        W27132  14.769   2.407   0.710  0.1660 -0.1283 -0.1281
10659W        W27133  11.353  15.649   1.498  0.0113  0.0060  0.2062
10660W        W27134   4.310  13.093   5.281  0.1854 -0.2275  0.4143
10661W        W27135   3.920   0.489   5.090 -0.1315  0.1457  0.0890
10662W        W27136   4.824  16.648  15.150 -0.1498  0.1016  0.0813
10663W        W27137  18.016  17.186   3.198  0.3333  0.3318  0.3716
10664W        W27138  12.313  14.581   3.062 -0.0748  0.0370  0.0427
10665W        W27139  17.140   1.888  12.023  0.0364  0.0335  0.1152
10666W        W27140  12.285  12.941   5.231  0.0458  0.3697  0.2914
10667W        W27141   7.230   1.865   0.360 -0.0944  0.0582 -0.2587
10668W        W27142   6.331   8.236   3.565 -0.2683 -0.0784  0.0914
10669W        W27143  10.901   5.172  13.140 -0.4230 -0.0601  0.1415
10670W        W27144  12.095   2.504   4.967 -0.2522  0.1152 -0.0008
10671W        W27145  17.785  11.306   0.514  0.0706 -0.0624  0.1603
10672W        W27146   3.139  11.413   1.486 -0.2200 -0.0141 -0.0602
10673W        W27147   4.530  10.041  11.313 -0.0933  0.2087  0.0035
10674W        W27148  10.078   2.437  13.417 -0.1222 -0.3169 -0.0803
10675W        W27149  11.784  12.685  15.950 -0.1198 -0.0664 -0.0584
10676W        W27150  15.727   3.641  11.607 -0.3623  0.0149 -0.1776
10677W        W27151   3.090  16.226  14.149 -0.1834 -0.0429 -0.0046
10678W        W27152  12.663  17.103   0.604  0.1462  0.0467 -0.1594
10679W        W27153   9.011  17.041  14.749 -0.0500 -0.1452 -0.2064
10680W        W27154   8.384  16.863  12.598 -0.0817 -0.0622  0.3224
10681W        W27155   8.648  13.928   0.331 -0.0455  0.0928  0.2346
10682W        W27156   1.093   0.858  13.214 -0.0427 -0.0579 -0.0784
10683W        W27157   1.275  13.520   2.053  0.1951  0.1602  0.0740
10684W        W27158   9.629  13.060  13.006 -0.1047  0.2727  0.0509
10685W        W27159   4.476   0.326  11.589 -0.1136  0.1126  0.0732
10686W        W27160   4.543  10.307  16.209  0.1486  0.2009  0.1156
10687W        W27161  11.182   1.401  14.448  0.3054  0.0616 -0.0415
10688W        W27162   5.001   3.156  14.120 -0.2507 -0.0750 -0.0094
10689W        W27163  12.377   7.665   2.441 -0.0080 -0.0773  0.2891
10690W        W27164   7.334  15.596  13.758 -0.2189  0.0774  0.1016
10691W        W27165   2.441   7.510   3.443  0.2002  0.1348  0.1314
10692W        W27166   9.587  13.924  16.203  0.0071 -0.0448 -0.2304
10693W        W27167   0.177  14.975  11.651  0.0324 -0.2348  0.4341
10694W        W27168   6.580  11.088  15.895  0.0195  0.1216  0.1160
10695W        W27169   5.402  14.791  12.708  0.2289  0.0572  0.2703
10696W        W27170   7.408  14.041   4.013 -0.0739 -0.0038  0.0941
10697W        W27171   3.474  16.158  11.401 -0.0585  0.0357  0.0501
10698W        W27172   3.898  13.159   0.121  0.0086 -0.2667 -0.3168
10699W        W27173  11.497   5.008  12.953  0.0596  0.1475 -0.2853
10700W        W27174   7.439  14.234  13.260  0.1565 -0.2217  0.2299
10701W        W27175   4.365  10.667   2.052  0.1429  0.1044 -0.2181
10702W        W27176  18.000   3.791  15.488  0.1651 -0.0401 -0.2290
10703W        W27177   5.255  10.631  15.051 -0.1983 -0.0605  0.0778
10704W        W27178  15.990  13.757   4.518  0.1972 -0.0043  0.0678
10705W        W27179   7.439   0.139  14.804  0.1924  0.0356  0.2853
10706W        W27180  11.871  12.851   4.915 -0.0894 -0.3230 -0.1095
10707W        W27181  12.117   2.657   0.517 -0.0311  0.1166 -0.3979
10708W        W27182  10.153   4.517   0.233  0.3113 -0.4160  0.1902
10709W        W27183   6.484  10.114  15.426  0.0489  0.3494 -0.4555
10710W        W27184   5.511   1.494   4.949 -0.3126 -0.2212 -0.1124
10711W        W27185   9.982   1.015   3.945 -0.2737  0.2325  0.3207
10712W        W27186  10.628  16.463  14.841 -0.0069  0.4557 -0.3418
10713W        W27187  14.919  10.553  15.287 -0.0658  0.0924  0.2213
10714W        W27188   7.771   0.678   0.279  0.4745  0.0139  0.2769
10715W        W27189   1.324   0.386   1.174 -0.2367 -0.0820 -0.0296
10716W        W27190  12.886  13.736   1.605  0.0151 -0.0352 -0.0020
10717W        W27191  15.623   8.072  12.274  0.1955 -0.0006 -0.3740
10718W        W27192   8.309  12.199  16.190 -0.1769 -0.1217  0.0890
10719W        W27193  11.260   2.738   2.014  0.1131  0.0523 -0.0820
10720W        W27194  17.611   0.175   4.847 -0.1184  0.0488 -0.0850
10721W        W27195  16.578   4.032   4.941  0.0660 -0.0658  0.1002
10722W        W27196  15.782   4.245  13.882  0.2804  0.2171 -0.1296
10723W        W27197   6.877   2.253  14.076 -0.0117 -0.2607 -0.1508
10724W        W27198   0.562   8.086   0.205  0.3985 -0.0451 -0.0986
10725W        W27199  12.120  10.567   3.787 -0.2525  0.0728  0.0873
10726W        W27200   0.693   8.780  12.891  0.2804  0.1585  0.0398
10727W        W27201  10.764   4.746   3.510 -0.0477 -0.3694 -0.0427
10728W        W27202  18.251  10.291   2.413 -0.0499  0.4059  0.1626
10729W        W27203   8.657  15.954   4.733 -0.1880 -0.1780 -0.0110
10730W        W27204  13.671  11.958   2.773  0.0522  0.2784  0.1511
10731W        W27205   6.799  12.832  10.602  0.1106  0.1024 -0.1226
10732W        W27206   9.538   9.897   2.886  0.0962 -0.3802 -0.1690
10733W        W27207   8.085  12.275   2.435 -0.2220  0.0198  0.3325
10734W        W27208   4.006  12.575   1.542 -0.1059 -0.1365 -0.2481
10735W        W27209  10.885   2.152   3.720  0.3557  0.1329 -0.1622
10736W        W27210   4.952   9.188   5.199 -0.0183  0.3462  0.0129
10737W        W27211   9.956   7.062   4.536  0.0452  0.3246  0.3340
10738W        W27212   2.293   2.545   4.337 -0.1221 -0.0810 -0.3414
10739W        W27213  10.549   7.448   4.250 -0.1184 -0.0202 -0.0016
10740W        W27214  13.937   4.759   4.549  0.0074  0.0759 -0.1445
10741W        W27215  10.395  13.041   2.446 -0.1889 -0.1028  0.2396
10742W        W27216   4.423  13.187  14.739 -0.1314  0.3805  0.2841
10743W        W27217   8.529   9.493   0.033 -0.3841  0.2407 -0.0055
10744W        W27218  10.635   6.580  15.631 -0.3175 -0.0405  0.1243
10745W        W27219   5.964   4.335   4.741  0.3120 -0.1322  0.2982
10746W        W27220   7.808   7.117   5.247  0.3255 -0.1873  0.0295
10747W        W27221  14.057  17.321  14.795 -0.2709  0.2759 -0.0692
10748W        W27222   2.618  11.533  14.393  0.0884  0.2126  0.0534
10749W        W27223   2.607   2.584   3.220  0.2828  0.0888 -0.0384
10750W        W27224   8.999   4.047   0.213  0.2867 -0.0172 -0.0897
10751W        W27225   7.454   4.467   2.180  0.0914 -0.0224 -0.1575
10752W        W27226   8.036   3.314   1.306 -0.2075 -0.2417  0.0960
10753W        W27227   7.085   1.798  14.300  0.0815 -0.2969  0.0208
10754W        W27228  10.504   6.586  13.146 -0.1013  0.0373  0.2152
10755W        W27229   3.285   2.605   4.727  0.0739 -0.1065  0.2413
10756W        W27230  10.039   9.035   4.285 -0.3234  0.2457  0.1842
10757W        W27231   6.670   8.679  15.238  0.0336 -0.3649  0.0201
10758W        W27232   8.253   9.256   2.900 -0.2624 -0.0627 -0.0415
10759W        W27233  16.434  10.708  11.565  0.0077  0.0654  0.0402
10760W        W27234   2.869   4.803   3.507  0.0063  0.1617  0.0204
10761W        W27235  14.937   8.621   5.232  0.4831 -0.2053  0.3269
10762W        W27236   0.663  17.313  14.916  0.1666 -0.0195  0.1225
10763W        W27237  16.855   1.825   2.843 -0.3251 -0.3330 -0.2074
10764W        W27238   5.105   1.016  10.967 -0.2598 -0.0065  0.0866
10765W        W27239  17.425   6.541  12.904  0.3455  0.5173 -0.2327
10766W        W27240   5.153  13.002  13.073  0.1737 -0.1185  0.0418
10767W        W27241   6.419   0.075   1.463  0.1137  0.1823 -0.2321
10768W        W27242  17.530  12.557   5.862  0.0144  0.1344 -0.0819
10769W        W27243  14.522   9.519   2.030  0.1222 -0.4175  0.0943
10770W        W27244  14.447  12.516   3.563 -0.0475  0.3012 -0.1229
10771W        W27245   3.593  12.329   5.378 -0.0715 -0.0658  0.3555
10772W        W27246  10.383  14.631   1.714 -0.1177  0.2213  0.0075
10773W        W27247  16.766  10.469   0.920  0.1107  0.2325  0.1762
10774W        W27248   7.035  11.951   0.165  0.0530 -0.2952 -0.0635
10775W        W27249  12.433   7.097   5.408  0.0236 -0.2950 -0.4090
10776W        W27250  12.158   6.205  11.878  0.0065  0.1326  0.2492
10777W        W27251   0.895  13.689  12.541 -0.1437 -0.1027 -0.0997
10778W        W27252   4.290   1.898  14.727 -0.0595 -0.0748 -0.3141
10779W        W27253  10.047   9.003   4.771  0.2398  0.0109  0.0561
10780W        W27254  16.032   2.529   2.630  0.0556  0.0238  0.1837
10781W        W27255  17.884  14.868   3.370  0.0466  0.0123 -0.0393
10782W        W27256  10.085   5.019   0.144  0.4406  0.3006 -0.2486
10783W        W27257  17.654   7.104  15.642 -0.0633  0.0858 -0.3603
10784W        W27258  13.017   8.104  13.327  0.2780 -0.0364 -0.0721
10785W        W27259   2.384   8.782   0.547  0.3748  0.1456  0.0745
10786W        W27260   3.082   9.632  11.407 -0.0663 -0.1468  0.0448
10787W        W27261   6.198  12.414   0.017  0.2168  0.2710 -0.2318
10788W        W27262   3.440  17.284   3.665 -0.1180  0.1509  0.0430
10789W        W27263   0.899  11.414  14.744  0.2800 -0.2054 -0.2052
10790W        W27264  14.034  14.061  11.830  0.1341  0.0350  0.1601
10791W        W27265   4.771   0.755   1.549 -0.3220  0.0674  0.1378
10792W        W27266   5.592  10.051  14.271  0.1184 -0.0481 -0.0208
10793W        W27267   1.171  12.992  11.874 -0.0647  0.0334 -0.1970
10794W        W27268   4.969   1.092   4.429 -0.0248 -0.2306  0.0737
10795W        W27269   8.770  14.072   4.079 -0.0071 -0.2251 -0.2082
10796W        W27270   5.659   9.171  14.613 -0.1153 -0.2630 -0.0458
10797W        W27271  14.991   1.687  15.463  0.0201 -0.1696 -0.0247
10798W        W27272   8.319   4.487   1.020  0.1039  0.0534 -0.3522
10799W        W27273   2.083  15.095  13.829  0.0517  0.2885  0.3008
10800W        W27274  11.616   7.077  11.715  0.1284  0.2405 -0.0328
10801W        W27275   6.043  11.241   2.583 -0.0620  0.2273  0.0866
10802W        W27276   8.813   4.884   0.222  0.0551 -0.2716 -0.2050
10803W        W27277   7.251   5.225   1.594  0.1147 -0.0141 -0.0314
10804W        W27278   2.149   7.212  16.260 -0.2434 -0.1621 -0.3689
10805W        W27279   5.142  15.921   2.037 -0.1564 -0.1575  0.3481
10806W        W27280   3.001   3.864  15.872 -0.1815  0.3674  0.4185
10807W        W27281  13.432  17.512  14.686  0.0213 -0.3342  0.2070
10808W        W27282  15.474   1.156  12.019  0.2670 -0.3472 -0.3645
10809W        W27283   0.466  11.039   2.648 -0.4984  0.1842 -0.3150
10810W        W27284  13.544  16.049   2.197  0.3345  0.0744  0.0622
10811W        W27285   8.710  16.150  12.207  0.2065  0.1760 -0.0920
10812W        W27286   6.684  13.551   3.303  0.1113 -0.1984  0.1936
10813W        W27287   1.117   9.819   4.474  0.1138 -0.0041 -0.1044
10814W        W27288  10.866  17.286   3.887  0.0802  0.1288  0.1788
10815W        W27289   2.206  13.973   2.659  0.0169  0.1330 -0.3400
10816W        W27290   8.332   4.943   0.294 -0.0392 -0.4424 -0.0759
10817W        W27291   7.303  13.185  15.793 -0.0527 -0.1228 -0.0980
10818W        W27292   0.866   6.771   3.534 -0.2011  0.0714 -0.0152
10819W        W27293  10.396  14.636  15.146 -0.0296  0.2429  0.1824
10820W        W27294   6.919  16.251   4.717 -0.2867 -0.1241  0.1627
10821W        W27295  11.020   6.507   0.669  0.2295 -0.2691 -0.2146
10822W        W27296   5.846  17.865  10.685  0.0126 -0.1183 -0.2930
10823W        W27297   9.743   1.861   2.361  0.0971 -0.0997  0.3635
10824W        W27298   9.272  17.988  15.907  0.3514  0.2578 -0.3254
10825W        W27299   3.697  18.292  13.993  0.2559 -0.2063 -0.0142
10826W        W27300   2.343   9.294   4.092  0.0691 -0.1011  0.0661
10827W        W27301   4.816   4.033  11.292 -0.0444 -0.0904 -0.1511
10828W        W27302  17.194   3.157  15.454 -0.1617  0.0017 -0.0079
10829W        W27303   3.285  16.984   0.921 -0.1068  0.0561 -0.2056
10830W        W27304  17.120   2.394  12.115 -0.3186  0.0617 -0.1825
10831W        W27305  12.363   3.938  15.971 -0.1479  0.0083  0.2512
10832W        W27306   6.735  13.080  15.198 -0.1704  0.1205  0.1410
10833W        W27307   7.761  11.306  15.507  0.1619 -0.0967  0.1795
10834W        W27308   2.934   4.471   3.106  0.2746  0.1052 -0.0775
10835W        W27309   0.472   7.398  12.648 -0.2085 -0.1561  0.1527
10836W        W27310  10.949   2.376  15.376  0.1294 -0.0825  0.0932
10837W        W27311   8.226  14.758  15.470  0.1927 -0.0449  0.2759
10838W        W27312   9.257  17.139  15.771  0.0554  0.0038  0.1641
10839W        W27313   8.200  10.918   1.379  0.1770 -0.0574  0.0384
10840W        W27314  14.333   6.264   1.782  0.0885 -0.2493  0.0012
10841W        W27315   6.418  12.413  14.271 -0.2459  0.0383  0.2323
10842W        W27316   0.583  17.240   1.408  0.1752  0.2709  0.0069
10843W        W27317   2.294   4.072   4.924 -0.0192  0.5386 -0.2497
10844W        W27318  11.091  15.370  13.852 -0.0522  0.2155 -0.1640
10845W        W27319   3.834  16.598  12.232 -0.2180 -0.3408  0.2890
10846W        W27320   3.214  15.782  12.451  0.2529  0.1050 -0.2316
10847W        W27321   5.477   7.195   1.789  0.1569  0.0105 -0.0240
10848W        W27322   4.015  17.255   2.535 -0.0177 -0.2293  0.1196
10849W        W27323  16.675   4.974   1.635 -0.0988  0.0413  0.1022
10850W        W27324  15.401   0.930   2.282  0.1570 -0.0708  0.1246
10851W        W27325   3.194  14.397  14.141 -0.0996  0.0584 -0.0683
10852W        W27326  13.002  18.228  14.646 -0.0386  0.0357  0.0482
10853W        W27327  16.124  13.157   3.322 -0.0070  0.2436 -0.1622
10854W        W27328   8.668   2.641   5.719  0.1329  0.0128  0.1725
10855W        W27329  18.215   5.056  13.167  0.1698  0.0940 -0.2082
10856W        W27330  13.149  13.318  13.655 -0.3817 -0.0986  0.4099
10857W        W27331   2.603   0.321   5.000 -0.2131 -0.1711  0.2780
10858W        W27332  15.474  12.174   1.702 -0.1495 -0.0076  0.1708
10859W        W27333  10.784  16.852   5.616  0.2968  0.2583 -0.1589
10860W        W27334   8.774  12.511   2.990  0.2146  0.0717  0.0140
10861W        W27335  11.368  13.397   6.248  0.2045 -0.0133 -0.4537
10862W        W27336  11.500   7.717   1.718  0.1300 -0.3197  0.0987
10863W        W27337   9.898   5.087   5.833 -0.2146 -0.1057  0.0153
10864W        W27338  15.812  17.998  16.004 -0.0561  0.1516  0.1573
10865W        W27339   9.408   5.313  12.018  0.1723  0.4162 -0.1330
10866W        W27340   6.311   5.447  11.412 -0.0072 -0.0105  0.2317
10867W        W27341   6.154   2.510   3.787 -0.1377 -0.1405  0.0460
10868W        W27342   9.571  16.753  15.570  0.2152 -0.0722 -0.0310
10869W        W27343   5.440  11.640   4.493 -0.0493  0.1280  0.0382
10870W        W27344   2.586   9.312  12.850 -0.0220  0.1265  0.2497
10871W        W27345  18.128   3.197  12.685 -0.3812  0.0336 -0.2825
10872W        W27346  13.328  14.773   2.137 -0.0494 -0.1044 -0.0113
10873W        W27347   8.565   7.728   5.115 -0.1046 -0.1879 -0.0758
10874W        W27348   6.276   9.878   4.305  0.1569  0.3380  0.0395
10875W        W27349   2.556   5.999  12.558 -0.1319  0.0421 -0.2327
10876W        W27350   7.980   7.721  11.903 -0.1364 -0.1503  0.1013
10877W        W27351   7.777  17.672   4.388 -0.2359  0.2625 -0.2151
10878W        W27352   1.766   5.327  11.720 -0.0464  0.0265  0.5540
10879W        W27353   4.583   8.720  14.851  0.1688 -0.1852  0.1161
10880W        W27354  18.292   5.790  15.900 -0.0967  0.3693  0.1695
10881W        W27355   2.914  17.134  13.989 -0.2245 -0.0492 -0.2299
10882W        W27356   7.605   6.263  15.977 -0.0360  0.1236 -0.3349
10883W        W27357   7.489   9.085  13.219  0.3239  0.0995 -0.1031
10884W        W27358   5.777   4.844   2.998 -0.0000  0.0264  0.2803
10885W        W27359   6.782  14.332  14.557  0.1696 -0.0137  0.2236
10886W        W27360   1.518  13.598  15.013  0.0437  0.0014 -0.1440
10887W        W27361   3.413   6.095   4.701  0.0264 -0.0020  0.0504
10888W        W27362   0.729  13.949   3.713 -0.2022 -0.0219 -0.2963
10889W        W27363   2.874  14.482   1.005  0.0324  0.2160 -0.2267
10890W        W27364   8.183  15.761  12.288  0.1773 -0.2765  0.1053
10891W        W27365   0.528   1.389   3.818  0.0241  0.2957  0.4988
10892W        W27366  16.840   7.845  13.770 -0.0911 -0.2094  0.1814
10893W        W27367   8.802  13.796   1.888  0.0461 -0.0244  0.1236
10894W        W27368   5.168   6.697   2.439 -0.2873  0.1188 -0.1650
10895W        W27369  16.698  15.701  13.159 -0.2147 -0.1599  0.0744
10896W        W27370  16.027  18.066   0.945 -0.2709 -0.0998 -0.2673
10897W        W27371   1.459   9.809  12.928  0.2934  0.0632  0.0410
10898W        W27372   0.294  12.602   3.261  0.3673  0.2424 -0.0450
10899W        W27373  11.823   7.086   2.866  0.0851 -0.1650 -0.0545
10900W        W27374   5.482   9.958  13.597  0.2208  0.0413 -0.1774
10901W        W27375  13.439   4.679  14.463 -0.0508  0.2211  0.2243
10902W        W27376   4.142  11.612   3.338  0.0880  0.0295 -0.1562
10903W        W27377  10.931  10.602  16.316  0.0483  0.2890  0.2916
10904W        W27378  11.699  14.659  15.916 -0.0979 -0.3767 -0.1286
10905W        W27379  10.738   7.821   1.155 -0.2516 -0.0536  0.0726
10906W        W27380   4.085  15.266   0.010 -0.2595 -0.1921  0.1272
10907W        W27381  12.724   5.580  12.080 -0.1383  0.0099 -0.0235
10908W        W27382   5.905   1.256  13.562 -0.1968 -0.0848  0.0818
10909W        W27383   8.298   9.036  13.727  0.2180 -0.0819  0.1274
10910W        W27384  11.340  12.071  14.715 -0.0801  0.1254 -0.0517
10911W        W27385   6.675   5.244   0.864  0.0119  0.3475  0.0360
10912W        W27386   0.395  11.651  16.042 -0.0681  0.1406  0.0382
10913W        W27387  14.469   2.886   0.744 -0.0360 -0.2900  0.1123
10914W        W27388  10.456   7.005   1.280  0.1059  0.2054 -0.0677
10915W        W27389   6.557  11.039   5.842 -0.1269  0.1803 -0.2077
10916W        W27390  12.667  10.867  16.069  0.1859  0.3023  0.0373
10917W        W27391   3.672  10.247   2.444 -0.2082  0.0797  0.0177
10918W        W27392   0.428   3.498  16.294 -0.1697  0.0631  0.1646
10919W        W27393  18.276  12.010  13.692 -0.1217 -0.0082 -0.0285
10920W        W27394  17.614   5.841   4.518 -0.1557  0.0712 -0.2340
10921W        W27395  14.556   2.490   2.453  0.1048  0.0923 -0.2922
10922W        W27396   2.111  11.108   2.235  0.0603 -0.3404 -0.1990
10923W        W27397   7.278   1.098   3.238 -0.1841  0.1527 -0.0931
10924W        W27398  14.798   0.155   2.971 -0.1200  0.1562  0.0493
10925W        W27399  11.393  11.848  11.556  0.0153  0.0659 -0.1817
10926W        W27400   6.040  18.142   1.007 -0.0394 -0.2430 -0.0337
10927W        W27401   8.134   2.512  15.953  0.1884  0.2356  0.2733
10928W        W27402  15.717  14.910   2.678  0.0753 -0.1078  0.0092
10929W        W27403  11.422   9.017   1.598 -0.0652 -0.1186  0.3509
10930W        W27404   4.970  10.109   3.285 -0.2367 -0.1210 -0.1118
10931W        W27405  12.671  18.278   5.986 -0.4953 -0.0113  0.0471
10932W        W27406  16.849   1.211  13.236 -0.0962  0.2883 -0.1414
10933W        W27407   4.028   8.489  16.050 -0.2646  0.1879  0.1874
10934W        W27408   5.326   6.160  16.291  0.0739  0.4561  0.2459
10935W        W27409   0.098   2.939   3.414 -0.1252 -0.0198  0.1816
10936W        W27410  15.828   8.643   1.022 -0.0642  0.0970 -0.3652
10937W        W27411  17.302   4.303  15.362 -0.3855  0.1995 -0.3143
10938W        W27412   9.487   5.307  16.036 -0.0100  0.2335 -0.2179
10939W        W27413  18.206  16.081  10.802  0.1680 -0.2519  0.0296
10940W        W27414  16.110   5.955  11.512  0.1748  0.2948 -0.0294
10941W        W27415   3.903   4.570   1.006  0.0977 -0.1057  0.2725
10942W        W27416  11.482  10.714   2.444  0.0088 -0.5560  0.1429
10943W        W27417   5.025   4.058   1.820  0.0882 -0.1547 -0.2188
10944W        W27418   4.414   5.308  16.313 -0.0302 -0.1087 -0.0045
10945W        W27419   5.468   4.837   2.074  0.0325 -0.1910  0.1476
10946W        W27420   8.127   8.590   3.525 -0.2061  0.0839 -0.1340
10947W        W27421   5.072   9.255   2.717 -0.1101 -0.3030  0.2325
10948W        W27422  17.840  17.889   0.011 -0.0940 -0.0424  0.0879
10949W        W27423   6.405   5.751  13.766 -0.0307 -0.2549  0.0014
10950W        W27424   1.134   6.184   0.642  0.1049 -0.0576 -0.2635
10951W        W27425   3.600   5.166  14.185  0.2386 -0.1294 -0.1289
10952W        W27426   7.586  16.106   3.088  0.1589  0.0575  0.0659
10953W        W27427  16.418   0.041   4.923 -0.4590 -0.1483  0.0323
10954W        W27428   9.590   2.391  15.226  0.0083 -0.0632 -0.2864
10955W        W27429   0.207   2.684   2.180  0.1507 -0.1756 -0.1374
10956W        W27430   9.474   3.945  15.001 -0.0308  0.0810  0.0542
10957W        W27431   0.930   0.003   4.186 -0.2290 -0.0859 -0.2548
10958W        W27432  12.678  12.901   3.758  0.0464  0.0760  0.0795
10959W        W27433   6.420   7.349   4.034  0.0479  0.0035 -0.0241
10960W        W27434  18.075   3.410  14.381 -0.2374 -0.1151 -0.0739
10961W        W27435  14.787  14.095   4.331  0.2103 -0.2517  0.5040
10962W        W27436   2.506  12.926   2.356 -0.1685 -0.1734 -0.3227
10963W        W27437  12.342  13.154   4.780  0.1143 -0.3252  0.0594
10964W        W27438   4.768   3.711   3.344  0.0989  0.0652 -0.1584
10965W        W27439  10.244  17.929   3.841 -0.1657  0.4436 -0.0097
10966W        W27440   6.148   6.277  11.938 -0.0010 -0.0823 -0.0736
10967W        W27441   0.237  11.549  12.990  0.1784  0.2172  0.0198
10968W        W27442  14.569  14.875   3.235  0.0166 -0.3977 -0.0504
10969W        W27443   4.453  11.321   4.257  0.0924 -0.1475  0.4156
10970W        W27444   0.173  14.571   3.633 -0.1036  0.1394 -0.1674
10971W        W27445   3.330  17.499   0.878  0.1076  0.1132  0.1103
10972W        W27446  10.377   8.593   1.363  0.0995 -0.1397 -0.1872
10973W        W27447  17.919  14.225  11.276 -0.2308 -0.0140  0.1681
10974W        W27448   3.276  15.125   4.640  0.1507 -0.1260 -0.0501
10975W        W27449  12.250   7.580  14.672  0.0901  0.0128 -0.0586
10976W        W27450  11.804   9.765   3.957  0.3828  0.0158 -0.0178
10977W        W27451   4.053   7.464   0.620 -0.1342 -0.1590 -0.1205
10978W        W27452  14.997  12.687  15.865  0.0664 -0.1040  0.0200
10979W        W27453   2.068  10.622  14.241 -0.0421 -0.2038 -0.2314
10980W        W27454   3.236   4.725  10.142 -0.2407 -0.0159  0.0312
10981W        W27455  13.847  13.798   5.783  0.1521 -0.1715  0.1353
10982W        W27456  12.148   2.992   4.946  0.0337 -0.1059  0.3647
10983W        W27457  15.579   7.678   2.877 -0.0893 -0.5284  0.1640
10984W        W27458  16.398  13.225  14.051  0.3855 -0.3942 -0.1138
10985W        W27459  10.960   3.702  13.994  0.0570 -0.0647 -0.0555
10986W        W27460  15.672   6.022  13.074  0.2563  0.0374 -0.1094
10987W        W27461  13.275   8.219   5.905  0.1617 -0.2034  0.1468
10988W        W27462  14.489   5.221  11.968  0.1606  0.1877  0.0855
10989W        W27463   2.560   2.113   3.339  0.2005  0.0713  0.2844
10990W        W27464  13.098   5.368   4.410 -0.2435 -0.2643  0.0742
10991W        W27465  10.510   5.699   5.822  0.0405  0.2557  0.1140
10992W        W27466   1.661   3.912   2.711 -0.1597 -0.0840  0.0732
10993W        W27467   7.452  13.574   4.406  0.1996 -0.1257  0.2616
10994W        W27468  12.573  17.880   0.279 -0.0272 -0.0845 -0.1182
10995W        W27469  17.369   2.160  11.716 -0.2743 -0.2144  0.3963
10996W        W27470  11.841  13.143   2.443  0.0168  0.5004 -0.0318
10997W        W27471   2.067   0.996  12.683 -0.0925  0.0828  0.2537
10998W        W27472   3.739   8.587  15.039  0.0512 -0.1024 -0.0272
10999W        W27473   0.829  16.836   3.180 -0.0351  0.0584 -0.4809
11000W        W27474  10.613   8.526   3.706  0.0748 -0.1034  0.1877
11001W        W27475   3.420   6.704   4.607  0.2461  0.2256 -0.2162
11002W        W27476   9.347   6.347  16.214 -0.0831  0.0213  0.1679
11003W        W27477  15.098   0.483  16.149 -0.3238 -0.1285  0.0849
11004W        W27478   8.043   8.381  15.552 -0.2013  0.0214 -0.0876
11005W        W27479   8.259  16.681  15.198 -0.0869 -0.0694  0.0044
11006W        W27480  10.222   3.721   3.981 -0.0565 -0.0768 -0.1366
11007W        W27481   5.620  12.798  12.941 -0.0909 -0.0177 -0.1673
11008W        W27482  14.376   9.778  14.912  0.0867 -0.0464  0.1822
11009W        W27483   3.526  12.600   4.956 -0.1849  0.0094  0.0150
11010W        W27484  10.027  15.117  14.689  0.2700 -0.2416 -0.0990
11011W        W27485   1.651  15.651   0.445 -0.0806 -0.1707 -0.1819
11012W        W27486  10.074  17.661  12.707 -0.0010  0.0702  0.1136
11013W        W27487   9.842  11.892   1.135 -0.3304  0.0442 -0.0059
11014W        W27488   3.242  10.276  14.177  0.0647  0.2296  0.0367
11015W        W27489   3.172   4.449  14.213 -0.0760  0.0442 -0.1502
11016W        W27490  14.608   6.295   0.724  0.0235  0.0312 -0.1998
11017W        W27491   4.614   3.147  14.737  0.0526  0.0898 -0.1298
11018W        W27492   5.386   2.622   3.108 -0.2909 -0.2411 -0.0388
11019W        W27493   0.454  14.219  11.371  0.1085 -0.1360 -0.0894
11020W        W27494   2.796  11.923   3.275 -0.1079 -0.0582 -0.1536
11021W        W27495  16.546   8.482   2.400  0.0268  0.2057  0.0816
11022W        W27496  17.847   9.535   4.999 -0.0209  0.0178 -0.1756
11023W        W27497   5.000   1.461  12.613  0.4719  0.1485  0.2002
11024W        W27498  12.952   6.156   0.113  0.3347 -0.1921 -0.1296
11025W        W27499   6.552   8.922   5.369  0.1098 -0.0919 -0.0639
11026W        W27500   7.566  17.700   2.754  0.0923 -0.1609  0.0663
11027W        W27501  13.362  13.535  14.123  0.0890 -0.1011  0.1032
11028W        W27502   0.050   4.568  11.000 -0.2514 -0.0239 -0.1383
11029W        W27503   4.676  16.112   2.713  0.2570 -0.1102 -0.1866
11030W        W27504   8.726   4.702  14.451  0.0406  0.0397 -0.1196
11031W        W27505   1.833  16.738   4.239  0.0599 -0.0542  0.0927
11032W        W27506  10.935   9.187   1.062  0.0340 -0.1437 -0.0058
11033W        W27507   9.918   5.567   4.049  0.0935  0.0178 -0.0253
11034W        W27508  12.561   7.553   0.779  0.0025  0.0377  0.0253
11035W        W27509   7.734   4.564  12.189 -0.2093 -0.1232 -0.0621
11036W        W27510   5.474   5.429  16.070  0.2758 -0.0498  0.0518
11037W        W27511   4.724   0.705  11.199  0.0863 -0.2325 -0.1817
11038W        W27512   8.513  14.622  11.781 -0.0313 -0.0924  0.0437
11039W        W27513  12.969   0.933   1.072  0.3556  0.0170 -0.2096
11040W        W27514   3.807   4.113  15.834  0.0477 -0.2625  0.2904
11041W        W27515  15.867  14.276  14.746  0.0544 -0.3218 -0.3079
11042W        W27516   3.308  11.591   3.341  0.0770  0.2034  0.0639
11043W        W27517   1.934   2.626  12.235  0.1481  0.0365 -0.1602
11044W        W27518   3.268  15.332  14.607 -0.4664  0.5744  0.5225
11045W        W27519   6.452  15.123  15.404 -0.0705  0.1945  0.0328
11046W        W27520   6.936   8.820   0.098  0.0538 -0.0673  0.1674
11047W        W27521  16.732   8.695  10.965  0.2957  0.2509 -0.2821
11048W        W27522  10.916  12.752   2.617  0.1463  0.1388  0.0730
11049W        W27523   3.861  14.054   4.691  0.2181 -0.1240 -0.2236
11050W        W27524  14.715   8.034   3.697  0.3979  0.2546 -0.0943
11051W        W27525   5.011   8.419  11.958 -0.0401  0.0098 -0.2201
11052W        W27526  11.192   4.487   3.479  0.0299 -0.0035  0.0481
11053W        W27527   0.886   5.883   3.454  0.1953  0.1066 -0.0446
11054W        W27528  11.579   8.635   0.195  0.2124  0.3805 -0.4145
11055W        W27529   1.716   7.191  13.770 -0.3206  0.0482 -0.1410
11056W        W27530  15.103   3.118  12.864 -0.0678  0.1683  0.2603
11057W        W27531   4.384   9.033  11.414 -0.0421  0.5713  0.0210
11058W        W27532   0.912   7.296  10.174 -0.5413  0.1325 -0.3454
11059W        W27533   6.669  10.210   4.388 -0.1345 -0.3116 -0.0633
11060W        W27534   4.648  11.393   3.396 -0.1270 -0.1448  0.6393
11061W        W27535   4.878  17.816  14.929  0.0129 -0.5820 -0.2447
11062W        W27536  14.495  18.129   1.430 -0.0471 -0.0007  0.2598
11063W        W27537  14.688  13.142  13.870 -0.1692  0.1306  0.0529
11064W        W27538  17.217  11.748   1.029 -0.4266  0.1517 -0.0922
11065W        W27539   1.568   1.625   0.023 -0.0353 -0.7482  0.2641
11066W        W27540   9.975  10.634   5.944 -0.1012  0.0277 -0.0685
11067W        W27541   5.471   2.363  12.292  0.0542  0.2810  0.2548
11068W        W27542  17.088  13.747  13.344 -0.1752 -0.3140  0.1408
11069W        W27543   4.223   4.567   3.020 -0.1410  0.4087  0.1996
11070W        W27544   9.467  11.645  12.828 -0.3652 -0.1171  0.0067
11071W        W27545   5.773   9.681  13.329  0.2764 -0.0853 -0.0075
11072W        W27546   7.141   1.529   3.002 -0.2471 -0.2726 -0.0299
11073W        W27547  14.094   4.991   4.128 -0.2885 -0.1603  0.2281
11074W        W27548   7.508  11.559   2.932  0.2728  0.0358 -0.1944
11075W        W27549  11.840   8.284  14.816  0.1014  0.0476 -0.1349
11076W        W27550  10.949  16.761  13.536  0.0566  0.2169  0.1205
11077W        W27551  11.038   5.197  14.513 -0.0991  0.1165  0.2296
11078W        W27552   6.485  14.894  15.936 -0.0221  0.1661 -0.0083
11079W        W27553   9.814  17.830   5.978 -0.1366  0.2099  0.0658
11080W        W27554   0.041   5.913  11.329 -0.2436  0.6690 -0.1507
11081W        W27555  12.953   5.335  14.354 -0.2163 -0.1878 -0.2198
11082W        W27556  15.981   1.305  13.075 -0.1585  0.1634  0.0178
11083W        W27557  15.236   5.824   4.357  0.1426 -0.1918 -0.1162
11084W        W27558   8.911   8.489  15.513 -0.0183  0.0511  0.0777
11085W        W27559  11.377  16.294  15.441 -0.0089 -0.2840 -0.1386
11086W        W27560   5.371  11.702  14.120  0.2122  0.2543 -0.3882
11087W        W27561   0.970  17.841   0.120  0.0044 -0.0966 -0.0392
11088W        W27562   3.014   5.828   2.917 -0.0542 -0.1959  0.1229
11089W        W27563   8.311   7.874   4.199 -0.0900 -0.1418  0.2097
11090W        W27564   3.260  11.910   4.415  0.1825  0.0961 -0.3361
11091W        W27565   4.724  15.835  10.818 -0.0919 -0.1076  0.1629
11092W        W27566   0.174  12.024   2.804  0.0480  0.1269 -0.0098
11093W        W27567   1.879   6.061   3.337 -0.0561  0.1216 -0.0048
11094W        W27568  13.582   2.167   2.293 -0.1305  0.2660 -0.0112
11095W        W27569   1.032   3.077   1.565 -0.0933 -0.0077 -0.1081
11096W        W27570   3.797   2.214   1.797 -0.0792 -0.2551 -0.0769
11097W        W27571  15.121  11.799  16.311  0.0860  0.0288  0.0688
11098W        W27572   3.700  16.428   3.589  0.1057 -0.0583  0.2770
11099W        W27573   6.797  14.532  16.055 -0.0184  0.1710 -0.0947
11100W        W27574   5.070   1.243  13.087 -0.0455  0.0186 -0.0272
11101W        W27575   4.564   5.363   2.878  0.0986 -0.0042 -0.1322
11102W        W27576   3.960  16.731   1.637 -0.2678  0.3280 -0.1370
11103W        W27577  10.246  13.566   5.177  0.0044 -0.0539 -0.0075
11104W        W27578  12.755  15.943   0.611  0.0451 -0.0281 -0.1667
11105W        W27579  16.444   2.568   4.474  0.0802  0.0891 -0.1441
11106W        W27580   9.151   4.375   2.081  0.2159 -0.1585 -0.0569
11107W        W27581  16.974   7.179   1.345 -0.0048  0.1382  0.0704
11108W        W27582   1.535  16.727   0.552 -0.3587  0.1165 -0.3466
11109W        W27583   5.888  10.180   1.530 -0.2085  0.2437  0.0262
11110W        W27584   9.117  11.135   3.226  0.1166  0.1228  0.1019
11111W        W27585   4.096   7.207  12.225  0.0694  0.2592 -0.1420
11112W        W27586   7.092  14.217   5.185 -0.0477 -0.0672 -0.0729
11113W        W27587   8.626   5.276   3.016  0.3328  0.3077 -0.0231
11114W        W27588   3.243  11.383  11.591 -0.2750 -0.1363 -0.0530
11115W        W27589   0.267  18.060   0.859  0.0541  0.3093 -0.0104
11116W        W27590   8.733  16.272   0.787  0.0345 -0.1319 -0.2750
11117W        W27591   9.511  17.082   5.446 -0.1088  0.0376 -0.3850
11118W        W27592   6.448   6.675  12.628  0.1034  0.0641 -0.0002
11119W        W27593   5.690  13.736  14.577 -0.0699 -0.1997  0.1568
11120W        W27594  17.229  13.773   1.865 -0.0589  0.0982  0.2563
11121W        W27595  18.098   8.633   1.520 -0.1087  0.1440 -0.0159
11122W        W27596   6.255   0.130  12.032 -0.1014 -0.0987  0.1024
11123W        W27597   5.778  10.239  11.730  0.0282 -0.0092 -0.0431
11124W        W27598   8.588   5.061   2.483 -0.0174  0.2068  0.1845
11125W        W27599   6.069  11.187   6.025 -0.0602  0.0960 -0.0558
11126W        W27600   1.365   7.615  12.739 -0.1745  0.2664  0.1695
11127W        W27601  10.646  15.502  12.051  0.1189 -0.1952  0.0380
11128W        W27602  13.366  11.240   1.142  0.3136  0.3023  0.2558
11129W        W27603   4.373  13.520  13.513  0.0528 -0.1629  0.0902
11130W        W27604   2.030  12.188  15.655 -0.4087  0.0046  0.1398
11131W        W27605   8.780  12.695  15.743  0.1328 -0.1065  0.2465
11132W        W27606  14.569  14.757  15.866 -0.2242 -0.1579  0.0553
11133W        W27607   1.305  10.135  15.822  0.3932 -0.1816 -0.0488
11134W        W27608   7.154  10.117   4.143  0.2851 -0.1206  0.0603
11135W        W27609  10.485   7.162   0.016  0.0376 -0.0804  0.2774
11136W        W27610   1.550   2.878  12.403 -0.0297  0.2018  0.3480
11137W        W27611   9.433   7.569   3.345 -0.1416 -0.0026 -0.0818
11138W        W27612   1.189   0.085  11.575  0.0329 -0.2002  0.0880
11139W        W27613   4.735   5.985   2.077  0.1962  0.1374 -0.2089
11140W        W27614  16.774   8.329   2.904  0.3078 -0.0142 -0.0230
11141W        W27615   4.930   6.140  12.296 -0.0230 -0.0710 -0.0028
11142W        W27616  13.592   0.275  14.053  0.0272  0.0886  0.0310
11143W        W27617  15.443  11.996  13.564  0.1184  0.0101  0.1111
11144W        W27618  13.587   7.483   4.114 -0.0010 -0.0226 -0.1222
11145W        W27619  14.821  12.688  15.411  0.2849  0.2204  0.1853
11146W        W27620  13.304  12.363  13.260 -0.2946 -0.1885 -0.1028
11147W        W27621   7.072   9.381   2.739 -0.1049  0.2597 -0.2166
11148W        W27622   9.152   6.599  12.380  0.2980 -0.2305  0.1039
11149W        W27623  10.865  15.708  14.214  0.0276  0.0878  0.0116
11150W        W27624   7.719  15.539   1.450 -0.1556 -0.4356  0.0068
11151W        W27625   7.603   3.557   1.221  0.0497  0.1048  0.3298
11152W        W27626   8.909   7.662  15.480 -0.2326  0.0672  0.1361
11153W        W27627   1.861  16.588   2.091 -0.1628  0.1232 -0.1404
11154W        W27628   8.118  17.666   4.758 -0.3929  0.2141  0.0096
11155W        W27629  14.723  12.924  12.707  0.0840 -0.3694 -0.0947
11156W        W27630   0.646  13.074  14.781  0.1750 -0.0343 -0.1979
11157W        W27631   6.712  12.477  12.427 -0.0327 -0.1092  0.0580
11158W        W27632   9.982  12.235   0.839  0.1720 -0.2773 -0.1118
11159W        W27633   1.533   4.382  13.725  0.1373 -0.1549 -0.1663
11160W        W27634  13.856  14.889   2.304 -0.2114 -0.1255  0.0880
11161W        W27635  14.944   2.059  12.681  0.1070 -0.3329 -0.2925
11162W        W27636  16.941  12.807   3.252 -0.0304 -0.2342  0.1815
11163W        W27637   3.668  15.466   3.439 -0.2237  0.0734  0.3127
11164W        W27638   5.604   6.055   5.506 -0.2222 -0.2936 -0.3076
11165W        W27639  12.847   9.584   1.385 -0.2311  0.0164 -0.1043
11166W        W27640   5.448   8.229  16.006  0.2559 -0.0344  0.0318
11167W        W27641  11.328  12.239  12.870  0.0838  0.2893  0.2287
11168W        W27642   1.323   6.577   4.962  0.3916  0.3368 -0.0244
11169W        W27643   4.574   7.397   2.166 -0.1503  0.0863 -0.0215
11170W        W27644   5.824   6.957   1.520 -0.0180 -0.0518 -0.1795
11171W        W27645   9.968  12.132  14.270  0.0520 -0.1416  0.3056
11172W        W27646  15.061  14.563  15.830 -0.0878 -0.0551 -0.0971
11173W        W27647  13.384  11.252  15.049  0.0838 -0.0557  0.4132
11174W        W27648   7.161   7.263   1.647  0.0301 -0.1019 -0.1564
11175W        W27649  10.438  10.158   0.691 -0.0781  0.2607 -0.3241
11176W        W27650   0.606  13.451  13.538  0.0517  0.2358  0.1181
11177W        W27651   2.836   8.561   5.979 -0.1844 -0.0632 -0.1742
11178W        W27652   7.183   3.532   2.070 -0.2212 -0.0997  0.0796
11179W        W27653   2.604   2.370  12.020 -0.4565 -0.0894  0.0471
11180W        W27654  11.964  14.069  13.247  0.1270 -0.0201  0.0667
11181W        W27655  13.082  13.699   3.875  0.2053 -0.2585 -0.0121
11182W        W27656  16.521  10.415   5.063 -0.0564 -0.3432  0.0619
11183W        W27657   4.391   7.682  12.080  0.2501 -0.1540 -0.0019
11184W        W27658  15.773   5.570  10.115  0.2449  0.0339  0.0300
11185W        W27659   9.863   5.997   1.208  0.2733  0.0251 -0.0877
11186W        W27660   4.312   1.531  10.751 -0.1176  0.4421 -0.0174
11187W        W27661   1.267   6.849   2.340 -0.1252 -0.0076 -0.0888
11188W        W27662  11.351   7.385   5.924  0.0337  0.1451 -0.1886
11189W        W27663   9.377   5.603   1.402  0.1496  0.0484 -0.1637
11190W        W27664   1.838   5.232   4.511  0.0293 -0.1194  0.1224
11191W        W27665   3.555  16.623   4.148 -0.0070 -0.2210 -0.3387
11192W        W27666   3.817  12.165  11.466 -0.1977  0.0601  0.2135
11193W        W27667   9.866  13.798   4.947 -0.0156  0.1873  0.0550
11194W        W27668  10.928   9.695  13.869 -0.0318  0.0070 -0.2044
11195W        W27669   8.892   5.279  13.611 -0.1509 -0.1113 -0.0980
11196W        W27670   7.973  14.532   0.647 -0.1258  0.0458 -0.2003
11197W        W27671  16.008  17.469  12.709 -0.0661  0.2681  0.3169
11198W        W27672   0.401   8.378   4.276  0.2328  0.0727  0.2541
11199W        W27673   2.821  11.588   1.876  0.1812  0.0918  0.0456
11200W        W27674   6.542   0.901  12.524  0.4554  0.0942 -0.1987
11201W        W27675   4.576   7.185  12.006  0.1439  0.2566 -0.3027
11202W        W27676  12.252  15.781   1.810  0.2694  0.0382  0.4170
11203W        W27677  17.487   5.286  16.262 -0.2615  0.3086 -0.4015
11204W        W27678  11.353  16.573   0.479 -0.3556  0.0081 -0.0042
11205W        W27679  15.048  15.384  15.226 -0.0797 -0.0906  0.1414
11206W        W27680   7.986  15.551   1.036 -0.0741  0.2423 -0.0794
11207W        W27681  16.908  16.619  12.182 -0.3258 -0.0017 -0.0712
11208W        W27682   7.718   9.807  11.627 -0.1882  0.0089  0.0741
11209W        W27683   7.556  15.500  11.581  0.1193 -0.1761  0.0300
11210W        W27684   5.275   4.590  11.965 -0.0448 -0.0341  0.2364
11211W        W27685   9.492  11.246  15.983 -0.2979 -0.0532  0.0708
11212W        W27686   0.424  14.468  16.043 -0.0636  0.1214 -0.2903
11213W        W27687  14.534   5.498   4.732 -0.0986 -0.3137 -0.1014
11214W        W27688   4.415  10.243   1.725 -0.1362  0.1232  0.4584
11215W        W27689   0.266  12.644  12.973 -0.1749  0.0826 -0.2271
11216W        W27690  17.033  17.178  13.137  0.0956 -0.1782  0.1371
11217W        W27691   9.263  17.895   3.249  0.3844  0.1626  0.2149
11218W        W27692  14.113  17.609  14.397  0.0749  0.2677 -0.1376
11219W        W27693  15.196   0.106  13.283 -0.2921 -0.0123  0.1656
11220W        W27694  12.622  12.972  12.989 -0.1148 -0.2006 -0.0590
11221W        W27695   6.945   1.892   2.731  0.0242 -0.0801  0.1816
11222W        W27696  12.470   0.938  14.216 -0.1422  0.2518  0.1889
11223W        W27697   3.054   5.122  13.677 -0.1635 -0.2039 -0.0383
11224W        W27698   8.972  15.409   1.038 -0.2786 -0.0453 -0.1438
11225W        W27699   8.040  15.139   3.477  0.0698 -0.0304 -0.5873
11226W        W27700  15.102   2.604  12.783 -0.0171 -0.2451 -0.3997
11227W        W27701   2.922   0.534  12.803 -0.3489 -0.4316 -0.1692
11228W        W27702   2.127   2.764  13.849 -0.0291  0.1126  0.1119
11229W        W27703   1.625   1.774   3.156 -0.0901 -0.0554 -0.0447
11230W        W27704  16.235  14.670   1.089  0.0156  0.1042  0.2578
11231W        W27705   2.748   9.923   1.299 -0.1665 -0.0083 -0.0591
11232W        W27706   4.840  12.667  15.140 -0.1445 -0.2285 -0.1034
11233W        W27707  10.358  18.318   1.432  0.1507 -0.0981  0.2196
11234W        W27708  17.358  16.274   0.689  0.1725 -0.0183  0.2634
11235W        W27709  12.413  16.552  16.247  0.1529 -0.2550 -0.0701
11236W        W27710  15.586  11.059  14.920  0.1003  0.0329 -0.4149
11237W        W27711  17.738  13.534  10.108 -0.2664 -0.1740  0.2395
11238W        W27712   1.862   3.172   5.584 -0.1575 -0.1053 -0.2672
11239W        W27713   0.139  17.059   2.958 -0.0549  0.0745  0.1208
11240W        W27714   7.524   2.648   1.858  0.0684 -0.3777 -0.1338
11241W        W27715   2.950   7.691  15.808 -0.1041 -0.1616  0.0623
11242W        W27716   0.460  15.191   3.049  0.0100  0.0185  0.0563
11243W        W27717   4.372  11.352   1.214 -0.1089 -0.1879  0.0165
11244W        W27718   1.027   8.043  12.248 -0.2701  0.2245  0.0694
11245W        W27719   5.392  11.810  15.182  0.1928 -0.0245  0.0708
11246W        W27720  17.905   7.569  15.792  0.1785  0.1677 -0.1690
11247W        W27721   5.167   3.372  15.031 -0.0468  0.3901 -0.0157
11248W        W27722   4.598  12.317  13.789  0.0600 -0.4538  0.0776
11249W        W27723   4.326   4.606   2.527 -0.0521 -0.2039  0.4377
11250W        W27724   4.630  16.751   3.840  0.2652  0.3236 -0.1261
11251W        W27725  17.129   1.317   0.364  0.2132  0.0167 -0.0327
11252W        W27726   2.038   5.611   3.094  0.0896 -0.4907 -0.2966
11253W        W27727  15.527  14.737   3.600  0.1298  0.1069 -0.1584
11254W        W27728  13.462  14.268   2.959 -0.0032 -0.2033  0.1560
11255W        W27729  11.796  12.553  12.967  0.0865 -0.0989 -0.1088
11256W        W27730   0.119  17.193  13.678  0.0406  0.2436  0.2129
11257W        W27731  13.463  14.129  11.802  0.0640  0.0463  0.0208
11258W        W27732   3.454   7.177   1.324  0.0438 -0.0165  0.0813
11259W        W27733   0.657   1.719  14.460 -0.0354 -0.1175 -0.3090
11260W        W27734   2.386  17.556   0.100 -0.0233 -0.3523 -0.0557
11261W        W27735  17.515  15.208   0.963 -0.2534  0.1905 -0.2692
11262W        W27736   7.010   5.107  14.332 -0.0778  0.0233  0.2196
11263W        W27737   0.008   4.484  13.895  0.2386 -0.2085  0.0053
11264W        W27738   1.306   2.656  12.984  0.2859 -0.2907  0.1849
11265W        W27739  11.185   6.499   3.175  0.0159  0.1417  0.3948
11266W        W27740   9.957   0.232   1.581  0.0673  0.0756 -0.0932
11267W        W27741  12.974  12.059   2.730  0.0234 -0.0924  0.1800
11268W        W27742   8.983   0.268   1.819 -0.0830 -0.2753 -0.3411
11269W        W27743   8.274  16.374  12.462 -0.2520 -0.4097  0.2074
11270W        W27744  11.254   5.442  12.187 -0.2931  0.0158  0.1290
11271W        W27745  17.845   4.235  13.118 -0.2285 -0.3685 -0.2264
11272W        W27746   4.932  10.220   1.886 -0.0858 -0.1252  0.0177
11273W        W27747   7.029  15.120   1.049  0.0727  0.0340  0.0186
11274W        W27748   0.248   8.544   4.810 -0.2412  0.1885 -0.0380
11275W        W27749  13.140  16.791   1.685 -0.2013 -0.0389 -0.2534
11276W        W27750  10.867  10.147  14.191 -0.0397  0.1893 -0.0836
11277W        W27751  12.782   7.371   4.247  0.0958 -0.0193  0.0871
11278W        W27752   9.866   7.948   3.337  0.0193  0.3379  0.2357
11279W        W27753  14.433   0.472  15.177  0.0531  0.1044  0.1427
11280W        W27754  10.299  15.382  14.174  0.0746  0.0054  0.2437
11281W        W27755   3.820  18.205  15.783  0.0375 -0.0380 -0.0137
11282W        W27756   7.545  11.732  11.932  0.1269 -0.0563 -0.3014
11283W        W27757  18.318   3.131  11.195  0.0873 -0.1362 -0.2550
11284W        W27758  17.291   1.964   0.064 -0.0718  0.1712  0.0055
11285W        W27759   3.785   6.085   6.168  0.0502 -0.0673  0.1701
11286W        W27760   0.002  15.263  15.716  0.2664  0.0210 -0.2000
11287W        W27761  10.576   0.754   1.327 -0.0060  0.2699 -0.2879
11288W        W27762   6.142   5.965   0.392 -0.0096  0.2710 -0.1071
11289W        W27763   8.673  11.379  16.045 -0.1271 -0.1260 -0.3602
11290W        W27764   7.672   4.399   4.324  0.0881  0.0337 -0.1225
11291W        W27765   5.244   4.910  14.978 -0.2191 -0.1119  0.1970
11292W        W27766   8.809   1.813   5.011  0.2049  0.1402 -0.3029
11293W        W27767   7.199  15.763  11.330 -0.0012  0.2943 -0.0022
11294W        W27768   5.874   8.157  14.960  0.2192 -0.1098 -0.0903
11295W        W27769  15.615   0.408   3.606  0.0433  0.0800  0.2425
11296W        W27770   7.247  17.375   0.041  0.3362 -0.2271  0.1425
11297W        W27771   3.086  14.435  12.652  0.0647 -0.0463 -0.0577
11298W        W27772  14.063   4.553   3.884  0.4383  0.4546  0.1259
11299W        W27773  16.678  13.545  13.286  0.0399  0.2873  0.0571
11300W        W27774  10.729   1.071  15.533 -0.0191 -0.0497 -0.2169
11301W        W27775   6.153   2.901   4.675  0.1635  0.0143  0.0378
11302W        W27776  17.435   6.943  14.259  0.0135 -0.0306 -0.3180
11303W        W27777   7.872   8.202  13.243  0.1801  0.0151  0.4179
11304W        W27778   0.663   3.043  14.216  0.1340  0.0422 -0.0070
11305W        W27779   1.046   4.105  12.161 -0.2087  0.0380  0.0139
11306W        W27780   6.711  14.508  11.626 -0.0383  0.0756  0.1097
11307W        W27781   7.594  16.640   2.991 -0.3391 -0.1914 -0.2736
11308W        W27782  15.900  17.656  15.023  0.0928  0.0871  0.3758
11309W        W27783  17.674  14.684  15.939  0.1662 -0.1965 -0.0571
11310W        W27784  15.242   7.927   4.111  0.1303 -0.0278 -0.2229
11311W        W27785   1.030  17.933  11.884 -0.2397  0.3528 -0.2583
11312W        W27786   3.196   1.281   2.359 -0.1126 -0.0073  0.0450
11313W        W27787  11.014   1.028  14.867  0.1100 -0.0658  0.0877
11314W        W27788  12.551   2.200  15.540 -0.0503 -0.1680 -0.0964
11315W        W27789   2.499   0.847   5.165 -0.0183 -0.1685 -0.2501
11316W        W27790   1.789  11.114   4.628 -0.1456  0.1377  0.1537
11317W        W27791  12.954   4.713  14.328 -0.3558 -0.1345 -0.0392
11318W        W27792   8.182   5.986   5.770  0.1392  0.1593  0.0172
11319W        W27793  16.147  10.056  15.313  0.0150  0.0552 -0.2852
11320W        W27794   9.216   2.432   2.986 -0.0206 -0.2341 -0.1827
11321W        W27795   9.778   9.185  14.845  0.0779 -0.2712  0.2083
11322W        W27796   4.687  10.969   3.099  0.1301  0.0695  0.0984
11323W        W27797   8.128  13.717   4.663  0.0688 -0.0015  0.0753
11324W        W27798   9.602   9.985  13.856 -0.0302  0.0186  0.0264
11325W        W27799   2.965   6.146  15.439  0.0414  0.3053 -0.3197
11326W        W27800  15.447   5.181  12.806  0.2464 -0.0002 -0.0676
11327W        W27801   9.041  13.921   1.410  0.1882 -0.2193 -0.3060
11328W        W27802  15.696  14.309   3.285  0.3314 -0.2665  0.0745
11329W        W27803   6.991   3.399   3.094  0.0760  0.1416  0.0911
11330W        W27804   2.525  14.854   2.988  0.2153  0.0041 -0.0595
11331W        W27805  10.927   0.305   1.324  0.0175 -0.1768 -0.0057
11332W        W27806  17.795   2.997  13.477 -0.0297 -0.2265 -0.0977
11333W        W27807   2.523   7.222  14.743  0.1366  0.1285  0.0307
11334W        W27808  14.629   9.235  15.496 -0.1256  0.2034  0.0498
11335W        W27809   6.289  13.671  12.936 -0.1163 -0.3098  0.0374
11336W        W27810   7.258  15.765   1.606 -0.0592 -0.0720 -0.1357
11337W        W27811   9.273   4.659  15.979  0.2381 -0.1707  0.0760
11338W        W27812   9.850  15.684   1.115 -0.2382 -0.2530 -0.1154
11339W        W27813  12.975   5.674   0.003 -0.1071 -0.2428  0.3316
11340W        W27814  18.158   0.282   3.445  0.1560  0.0535  0.2341
11341W        W27815   5.754   2.540  14.437  0.1290 -0.0876  0.1598
11342W        W27816  10.304   6.556  11.915 -0.0140  0.1317 -0.0974
11343W        W27817   9.709  17.287  12.868  0.0959  0.3130 -0.1180
11344W        W27818   1.750  11.166   2.533  0.0852  0.0385 -0.1241
11345W        W27819   5.599   5.576   5.329  0.0051 -0.1057 -0.1782
11346W        W27820  10.570   1.158   2.423 -0.1408  0.3322 -0.1849
11347W        W27821  10.339   5.893  13.116 -0.3084  0.0282  0.1019
11348W        W27822   1.021   8.108  13.684  0.1382 -0.1511  0.1363
11349W        W27823  13.025   0.755   2.333  0.0603  0.0330 -0.1808
11350W        W27824  14.633   5.591  15.671  0.0161  0.0579 -0.0748
11351W        W27825   7.544   9.175  15.490  0.2661 -0.0038 -0.2457
11352W        W27826  16.336  15.609   0.902 -0.0891 -0.2389  0.1018
11353W        W27827   4.884  13.843   4.829 -0.1449 -0.0752  0.1969
11354W        W27828   3.168  16.138  13.536 -0.1449 -0.2432 -0.2398
11355W        W27829  16.802   9.940   0.910  0.2379 -0.0316 -0.1548
11356W        W27830   1.623  16.040  13.105 -0.1227  0.1163 -0.2973
11357W        W27831  12.032   4.191   4.349 -0.2262  0.1821 -0.0239
11358W        W27832   4.671   7.935  13.345  0.0710  0.0984  0.0081
11359W        W27833   4.440  13.971   1.604 -0.0742 -0.0637  0.0466
11360W        W27834   7.051  14.611  10.676  0.2020 -0.0441 -0.0110
11361W        W27835  13.234   6.204   3.640  0.1661 -0.5963 -0.2477
11362W        W27836   5.655   4.465  13.723  0.0537  0.1743 -0.4208
11363W        W27837  10.543   1.227   4.486 -0.0689  0.0085  0.1505
11364W        W27838  17.140   2.606  15.533 -0.1530 -0.1943 -0.0269
11365W        W27839   9.329   9.055  11.894  0.0886 -0.0958 -0.0087
11366W        W27840   5.119  10.298   4.428 -0.0870  0.0347 -0.1564
11367W        W27841  11.028   7.195   4.255 -0.0956  0.0587 -0.1281
11368W        W27842  15.980   9.835  11.188  0.3880  0.2804  0.1034
11369W        W27843  11.719   3.375   1.076  0.0178 -0.1104  0.3534
11370W        W27844  15.449  11.470  10.786 -0.0158  0.2029  0.2761
11371W        W27845  11.851  11.755  11.670  0.0593 -0.0373  0.0856
11372W        W27846   6.201  10.965   4.723 -0.3098 -0.2001  0.4379
11373W        W27847  14.469   0.779   4.408  0.0371 -0.0130 -0.0507
11374W        W27848   4.921  16.450  15.686 -0.1331  0.3130  0.1531
11375W        W27849  12.630  10.021   5.712  0.1136  0.1473  0.1386
11376W        W27850  15.270  14.794  14.646 -0.0877  0.1348  0.0672
11377W        W27851   4.379  12.717   1.041  0.2824  0.1750 -0.2278
11378W        W27852   2.613   3.060  13.718 -0.0717  0.0077 -0.1486
11379W        W27853  18.068   6.476   5.078  0.3340  0.2766 -0.1680
11380W        W27854   8.472   8.052  13.886  0.0004  0.0500  0.2009
11381W        W27855  12.114   1.415  16.007  0.0597 -0.3587  0.1472
11382W        W27856   8.591   7.621  13.661  0.0395  0.0505  0.0058
11383W        W27857   8.958  11.115   5.569 -0.1305  0.1150 -0.2970
11384W        W27858  12.404   7.930  15.317  0.1661  0.2626  0.2136
11385W        W27859   4.545  12.682   0.065 -0.0362 -0.1864  0.1988
11386W        W27860  17.669   3.966   1.280 -0.0171 -0.3463 -0.0619
11387W        W27861   3.331   1.068   0.904  0.0048  0.1849 -0.0348
11388W        W27862   7.760  16.944   6.131  0.1578 -0.1652  0.3206
11389W        W27863  18.011   1.583  14.377 -0.0635  0.3459  0.2329
11390W        W27864  10.017  11.482   4.452  0.0787  0.1121  0.2171
11391W        W27865   3.244  10.260   3.858 -0.0599 -0.1638  0.0328
11392W        W27866  14.099   6.557  13.229 -0.0531 -0.2286 -0.4065
11393W        W27867  11.345   9.454   3.417  0.1181 -0.0656  0.1324
11394W        W27868   4.370  12.057   0.695 -0.6574  0.5587 -0.1690
11395W        W27869  15.858   0.682  13.962 -0.1640 -0.2547 -0.0579
11396W        W27870  12.515  15.358   5.274 -0.0750  0.1909  0.0535
11397W        W27871   5.805   8.371   1.363 -0.0077  0.1294  0.0297
11398W        W27872  13.412  10.500   4.397 -0.0580  0.0853 -0.0855
11399W        W27873  13.305   4.575  12.837 -0.1365  0.1291 -0.2191
11400W        W27874  14.689   2.144  15.557 -0.1456 -0.2219  0.1327
11401W        W27875  14.807   8.386  13.372  0.0044 -0.0211 -0.0961
11402W        W27876  12.648   6.516  12.133  0.1305  0.0206 -0.0297
11403W        W27877   8.500  13.038   0.464 -0.1371  0.2069  0.2934
11404W        W27878  17.761  11.952  14.519  0.2279  0.2210 -0.2223
11405W        W27879  12.563   8.866  15.312 -0.0005 -0.0675  0.5101
11406W        W27880   1.161   3.301  15.936  0.1214  0.0626  0.0811
11407W        W27881   0.505   2.447  13.160 -0.2040  0.1582  0.1809
11408W        W27882  15.922  11.127   5.970  0.1487  0.0203  0.2653
11409W        W27883   0.981   7.715   2.385 -0.3647  0.3985  0.0510
11410W        W27884   5.960  15.363  15.319  0.1676 -0.3431  0.3886
11411W        W27885  16.888   2.341  13.836  0.0583  0.2088 -0.0767
11412W        W27886   2.921   4.091  13.756  0.1681 -0.6000  0.1811
11413W        W27887  10.268   9.454  12.921 -0.3674  0.0945 -0.2539
11414W        W27888  10.003   6.887  13.941  0.2763 -0.2329 -0.0185
11415W        W27889  14.497  16.413  14.785 -0.0984 -0.2050 -0.0001
11416W        W27890  15.806  10.473   4.337  0.0497  0.1850 -0.0235
11417W        W27891  15.003   1.802   4.553 -0.1220 -0.0448 -0.0584
11418W        W27892   4.880   2.869   3.140  0.0464 -0.0104  0.0558
11419W        W27893   9.066  16.268   2.225  0.1070 -0.3567 -0.1207
11420W        W27894  17.305  10.937  12.022 -0.4475  0.2164  0.0509
11421W        W27895  14.067   8.134  13.633 -0.2842 -0.0912 -0.0956
11422W        W27896   0.216   4.808  14.888 -0.1403 -0.2515 -0.0899
11423W        W27897   6.697   1.117   2.837 -0.1274  0.0005  0.1412
11424W        W27898   6.442  11.096   0.070 -0.1400 -0.0722 -0.0877
11425W        W27899  15.697  17.630  14.532 -0.0523 -0.1374  0.0280
11426W        W27900  12.256  10.425   1.055 -0.0553 -0.1181 -0.0127
11427W        W27901   0.171  17.743  12.395 -0.0637  0.3745  0.3812
11428W        W27902   3.251   5.210  10.948 -0.0937 -0.0341 -0.1725
11429W        W27903  13.694   8.331  13.349 -0.0126 -0.1357  0.1676
11430W        W27904   7.648  13.671  12.452 -0.1471  0.0856  0.2097
11431W        W27905  10.797  14.725   1.989 -0.1513  0.0246 -0.0836
11432W        W27906  12.165   5.017   4.849 -0.0536 -0.2596 -0.1301
11433W        W27907   9.251   4.814  11.308 -0.2891  0.0130 -0.1493
11434W        W27908  13.311   5.344  11.375 -0.1788  0.1341  0.3239
11435W        W27909   0.445  14.800  13.901  0.1257  0.1245 -0.0761
11436W        W27910   8.991  16.408   1.259 -0.2397 -0.1631  0.0412
11437W        W27911   4.319   0.744  12.541  0.1232  0.2453  0.2184
11438W        W27912   3.825   2.432  11.912 -0.0408  0.2545 -0.0057
11439W        W27913   1.207   9.493  13.888  0.0630 -0.0436  0.1530
11440W        W27914   4.671  10.904   1.261 -0.0101  0.2343 -0.0406
11441W        W27915   6.788   0.801  14.995 -0.0549  0.4200  0.3333
11442W        W27916  10.369   3.505   0.811 -0.0854 -0.0111  0.3722
11443W        W27917  11.353   2.640  11.916  0.3016 -0.0066  0.1760
11444W        W27918   7.472  10.303  13.254  0.2321  0.0134  0.0432
11445W        W27919  12.352   2.465  12.238 -0.0672 -0.0722 -0.1068
11446W        W27920  11.699   3.576  15.207  0.0097 -0.1021  0.0802
11447W        W27921   3.620   7.682  15.396  0.0695  0.2120 -0.5319
11448W        W27922   3.029   5.002   2.320  0.1859  0.0731  0.2619
11449W        W27923   5.616  12.575   3.581 -0.0734  0.0571  0.2338
11450W        W27924   6.937   3.811  11.707  0.0438  0.0569  0.2800
11451W        W27925  12.773   0.390  16.133  0.1332  0.1132  0.2241
11452W        W27926  16.628  17.168   5.297 -0.2350 -0.0408  0.3143
11453W        W27927   5.591   6.319   2.169  0.0079  0.3366 -0.0025
11454W        W27928   3.488   5.555   4.540 -0.1266 -0.1165 -0.2708
11455W        W27929   7.931   0.699   5.246  0.0702  0.0883 -0.1042
11456W        W27930  13.993   9.496  11.647 -0.2393 -0.4112  0.0258
11457W        W27931   0.636   3.056   5.353  0.0643 -0.0342 -0.1129
11458W        W27932  10.103  11.183   4.061  0.2713 -0.0688 -0.0077
11459W        W27933  10.588   9.060  11.135 -0.0276 -0.3634 -0.0653
11460W        W27934   9.629  10.856  11.666 -0.0356 -0.1885  0.0506
11461W        W27935   9.860   4.703  12.833  0.0355  0.0283 -0.0436
11462W        W27936   3.116   8.765   3.892 -0.0649 -0.4216 -0.2497
11463W        W27937   9.761  11.261  12.493 -0.0212 -0.0589  0.1737
11464W        W27938   5.779   7.901   5.439 -0.0174 -0.1355  0.0900
11465W        W27939  16.198  12.893   4.339 -0.2730  0.1271 -0.0971
11466W        W27940   9.569   3.398  13.301 -0.1807  0.0494 -0.0574
11467W        W27941  12.715   7.743  15.668  0.0746  0.0751 -0.0600
11468W        W27942   3.726  12.797  13.434  0.2515  0.0108 -0.1335
11469W        W27943  10.868   9.092  12.396 -0.0889 -0.1327  0.0280
11470W        W27944   5.017   8.752   2.503  0.0012  0.0323 -0.1085
11471W        W27945  13.476  14.779   5.483 -0.3166 -0.0665  0.0336
11472W        W27946  16.953   6.862  15.068 -0.1855 -0.2667 -0.0361
11473W        W27947   3.200  16.731  14.851  0.1862 -0.0278  0.0161
11474W        W27948   6.844  15.483   1.419 -0.2287  0.2095 -0.4233
11475W        W27949   7.190  17.514   3.040 -0.2364 -0.1191  0.1706
11476W        W27950   8.421  13.551  11.819  0.0782  0.0740 -0.3198
11477W        W27951   5.872  15.632  11.762  0.1343  0.2753 -0.0687
11478W        W27952   3.263  14.748  12.217  0.1171  0.0131  0.1009
11479W        W27953  11.262   6.183   5.221 -0.0042  0.1367 -0.1032
11480W        W27954   2.367   1.564  16.115 -0.1274 -0.1653 -0.1951
11481W        W27955   6.668   2.273   2.513  0.1991  0.0667 -0.3027
11482W        W27956  14.012  16.875  11.892 -0.1019 -0.0949 -0.1583
11483W        W27957  14.986  17.011   2.571 -0.2610  0.2030 -0.1237
11484W        W27958  13.966   5.313  11.854 -0.3074  0.1344  0.1743
11485W        W27959   5.269  16.706   4.670 -0.0585 -0.0523  0.1875
11486W        W27960  12.324  14.098   3.187  0.0464 -0.0036 -0.3540
11487W        W27961  13.286  11.109   5.097  0.1596 -0.0402 -0.2716
11488W        W27962  11.404   8.672   2.009  0.0970  0.3956  0.3531
11489W        W27963   2.106  17.778   1.596 -0.1674  0.1793 -0.2021
11490W        W27964   3.852   0.905  11.236  0.0036  0.0167 -0.0707
11491W        W27965   0.323   2.047  12.262  0.1682  0.3465  0.0339
11492W        W27966   4.332   9.125   1.289  0.2916 -0.1149  0.0857
11493W        W27967   2.336  16.068   3.777 -0.0812  0.0986 -0.0082
11494W        W27968   1.918  13.086  13.584 -0.0578  0.2282  0.0316
11495W        W27969   1.571   3.488   3.772 -0.0290 -0.2237 -0.0273
11496W        W27970  16.833  12.701   5.599 -0.1694 -0.1742 -0.0525
11497W        W27971  18.267  13.583   5.744 -0.0234 -0.0394  0.1059
11498W        W27972  16.223   3.692  11.798  0.1575  0.0171  0.0357
11499W        W27973  11.580   6.864  13.616  0.1062 -0.1078 -0.1953
11500W        W27974   6.464   0.054   9.935 -0.1572 -0.3740 -0.2808
11501W        W27975   5.778   0.814  14.117  0.1725  0.0541  0.1276
11502W        W27976  12.172   8.497  13.493 -0.0238 -0.1377 -0.1863
11503W        W27977  13.995  12.725  11.956 -0.0345  0.1122  0.0641
11504W        W27978  17.839   1.330   0.051  0.3795  0.3771 -0.2800
11505W        W27979   7.282   4.083  11.089  0.0741  0.0090 -0.3917
11506W        W27980  15.789  14.074  11.316 -0.3216 -0.1880  0.1767
11507W        W27981  12.434  14.909   3.876  0.1237  0.2883 -0.0150
11508W        W27982   6.310   3.438   1.023 -0.2092 -0.0246  0.0933
11509W        W27983   8.225  11.809  15.074  0.1975 -0.1412  0.0564
11510W        W27984  11.413   7.928  13.221 -0.1114 -0.0453 -0.1832
11511W        W27985   5.759   3.177   0.237  0.0865  0.2233 -0.1398
11512W        W27986  14.113   1.622   4.798 -0.1476  0.0037  0.0437
11513W        W27987   6.493   5.807  14.288  0.1819  0.0503 -0.1068
11514W        W27988  12.508  12.014   2.600  0.0774 -0.0015 -0.0193
11515W        W27989  18.279  14.967  12.524  0.2045  0.0607  0.0216
11516W        W27990  13.806   2.514  14.131 -0.2844  0.1499  0.0027
11517W        W27991   0.001   1.981  10.734  0.1198 -0.1859 -0.0441
11518W        W27992   4.225   4.073   4.250 -0.0826  0.0097 -0.0351
11519W        W27993  16.400   9.888  15.762 -0.1618 -0.1063  0.0293
11520W        W27994  10.308  12.011  13.908 -0.0571 -0.3274  0.2039
11521W        W27995   5.110  17.025   5.053  0.2308  0.0437 -0.0235
11522W        W27996  15.818  18.322   3.363 -0.1354 -0.0543  0.2484
11523W        W27997  11.611  13.130  14.674  0.1086 -0.1042 -0.0385
11524W        W27998  16.456  17.977   1.937 -0.2820 -0.0921 -0.2891
11525W        W27999  18.020  11.427  13.301  0.3002 -0.2414 -0.0105
11526W        W28000   9.671  12.747  11.876 -0.0222 -0.3262 -0.0306
11527W        W28001  15.855  14.124  12.298 -0.0185 -0.3683  0.0385
11528W        W28002  11.451   2.248  14.711  0.0596  0.0123  0.0218
11529W        W28003  17.696   6.233  11.884 -0.2539 -0.0064 -0.0270
11530W        W28004   6.068   3.735  13.473 -0.0295 -0.0715  0.2191
11531W        W28005   3.118  12.738   1.330  0.4108 -0.3382  0.1089
11532W        W28006   3.770  13.622  15.174  0.1713  0.3331  0.2186
11533W        W28007  11.040  18.174   3.328  0.0264 -0.0090 -0.2053
11534W        W28008   4.748  17.894   2.397  0.0449 -0.2240  0.0077
11535W        W28009  13.399   3.198   1.990 -0.0221 -0.1199  0.4085
11536W        W28010  15.474  15.193   3.313 -0.1979 -0.1487 -0.1238
11537W        W28011   0.248   3.832   2.875  0.1219  0.2118 -0.0834
11538W        W28012   7.340   6.887  11.515  0.0412  0.1737  0.3825
11539W        W28013   1.892  11.138   0.417  0.1552  0.0412  0.3196
11540W        W28014   5.880  15.889   0.897  0.0297  0.2235 -0.1374
11541W        W28015   8.584   1.413  15.578 -0.0492  0.1942  0.1970
11542W        W28016  15.222   4.708  16.143  0.2464  0.3089  0.1499
11543W        W28017  10.556   8.688  11.996 -0.2010  0.1787  0.1237
11544W        W28018   9.307   6.349  11.909  0.1745 -0.0707 -0.3210
11545W        W28019   4.472   2.835  13.610  0.1184  0.0147 -0.1482
11546W        W28020   2.475   0.722   1.725  0.2314  0.0760  0.0140
11547W        W28021   6.725   8.616  11.951 -0.0819 -0.1614  0.1231
11548W        W28022  16.937   7.626   1.523  0.2427  0.0656  0.0183
11549W        W28023   8.327   8.397   1.412  0.1750 -0.0263  0.1511
11550W        W28024   8.576   2.319   1.554  0.3087  0.2242 -0.0926
11551W        W28025   6.426   2.174  13.851 -0.0171 -0.0989  0.3340
11552W        W28026  17.935  11.807   5.362 -0.0830  0.1159  0.1727
11553W        W28027   3.617  13.830  13.782  0.2084 -0.2565  0.0369
11554W        W28028  16.057  16.798  13.513  0.0918 -0.0754  0.1885
11555W        W28029  14.405  13.278   2.919  0.1619  0.0753 -0.2527
11556W        W28030   4.452   0.071   3.646 -0.2434  0.2447  0.2055
11557W        W28031   9.539  10.420  12.022  0.0711 -0.2706 -0.0187
11558W        W28032  14.342   6.120  16.259 -0.0037 -0.0142  0.1415
11559W        W28033  15.459   7.005   3.331  0.2285 -0.3168 -0.1852
11560W        W28034   7.393   5.418  12.770  0.1883  0.1029 -0.3112
11561W        W28035  14.178   8.430   0.880  0.0361  0.0222 -0.1802
11562W        W28036  16.867   8.268  11.662  0.0958  0.0629 -0.1000
11563W        W28037  18.121  16.955   1.477  0.1938  0.1932 -0.0357
11564W        W28038  11.338   5.741  14.824  0.0125  0.0891 -0.0990
11565W        W28039  17.942   9.152  14.447 -0.0816  0.2086  0.1381
11566W        W28040   9.447   8.641   1.179  0.1149  0.0248  0.1587
11567W        W28041  18.113  10.754  14.063  0.0537  0.1613 -0.0389
11568W        W28042  16.845   1.100  14.665  0.1243 -0.0713  0.0009
11569W        W28043  10.274   8.898  13.939  0.0156 -0.1868  0.2069
11570W        W28044  14.844  15.234  11.885 -0.1277  0.1317 -0.0112
11571W        W28045   7.077  15.376  13.169  0.0116  0.1996  0.2105
11572W        W28046  16.814   0.119   3.066 -0.1302  0.0770  0.1032
11573W        W28047   4.484   1.300  14.723  0.1811 -0.1124 -0.0111
11574W        W28048   6.640   8.519   4.462 -0.1003 -0.3077  0.0050
11575W        W28049   1.801  17.661  12.437  0.0671  0.1358 -0.0047
11576W        W28050   3.666   7.533   4.828  0.0665  0.0031  0.2456
11577W        W28051   1.599   7.455   0.163  0.0502  0.0958 -0.2109
11578W        W28052  11.836   2.587  12.186 -0.4054 -0.1382 -0.1498
11579W        W28053   5.360  11.046   0.572  0.1600  0.0407  0.0848
11580W        W28054  12.465   5.113   0.616 -0.2969  0.3179 -0.1697
11581W        W28055   3.849  11.240   3.647 -0.0767  0.0964  0.4213
11582W        W28056  13.057  13.103  12.719 -0.3081  0.5274 -0.3135
11583W        W28057  12.599  12.732   4.852 -0.0419 -0.1172  0.1970
11584W        W28058   2.585   6.714  11.225  0.0877 -0.1239 -0.1816
11585W        W28059  15.153  15.029   5.468  0.0597 -0.1167 -0.2059
11586W        W28060  14.751  17.086  16.247  0.3894  0.1818  0.1181
11587W        W28061   3.523  12.693   1.736 -0.1755 -0.3971 -0.1865
11588W        W28062   5.160  15.310  14.095  0.0636 -0.1671  0.1496
11589W        W28063   2.762  17.862  11.273 -0.0800  0.1093 -0.1479
11590W        W28064   8.875  11.777   5.290  0.0148 -0.0898  0.2037
11591W        W28065  17.978   0.572   5.206 -0.2088  0.0530 -0.0436
11592W        W28066   2.280  10.969  11.462  0.0187 -0.1336  0.3835
11593W        W28067   8.174  10.067  15.827 -0.1137  0.0907 -0.0005
11594W        W28068  17.040   9.159  12.495  0.0317 -0.1337 -0.1332
11595W        W28069   1.057   1.458  14.441  0.0150 -0.0327 -0.2013
11596W        W28070   5.809   6.461   1.747 -0.0596  0.2306 -0.2897
11597W        W28071  16.304   6.589  14.950 -0.3047  0.1768 -0.2958
11598W        W28072  13.152   0.973  14.254 -0.3106 -0.1083 -0.1819
11599W        W28073   9.726   6.833   2.788 -0.5102  0.0282  0.2234
11600W        W28074  17.180  10.350   5.009  0.0847  0.0309 -0.1061
11601W        W28075  11.537  15.145   0.428 -0.0106  0.0243 -0.1642
11602W        W28076  14.336  13.699  12.235  0.2040  0.0641 -0.1763
11603W        W28077  16.524   7.584   4.564  0.2317 -0.1550  0.1155
11604W        W28078  12.530  16.935  11.414  0.0204  0.1952 -0.0892
11605W        W28079  16.949  13.403   2.005 -0.1819 -0.1751 -0.1228
11606W        W28080  12.604   1.349   0.774  0.0693 -0.1097  0.2878
11607W        W28081   8.750  12.415  16.154 -0.2864 -0.0120 -0.1573
11608W        W28082   6.032  17.835   4.547  0.0426 -0.1246 -0.1377
11609W        W28083  10.984   7.520  14.015  0.0961 -0.0774  0.0730
11610W        W28084   4.393   2.412   4.988 -0.0215 -0.0629  0.1083
11611W        W28085  18.191  14.217   0.330 -0.0741 -0.2801 -0.0633
11612W        W28086  13.749   6.551   2.821  0.3102 -0.2764 -0.2153
11613W        W28087   5.565  16.471   2.335  0.4165 -0.3028 -0.0931
11614W        W28088  15.796   8.074  11.463  0.1189 -0.0335  0.0264
11615W        W28089   8.012  14.682   2.014 -0.3063  0.0717  0.0741
11616W        W28090  13.708   2.192   2.837  0.2499  0.3751  0.0638
11617W        W28091  10.861   5.639  15.588  0.1108 -0.0420  0.0521
11618W        W28092   1.499   8.818  12.610  0.0292  0.0512  0.1609
11619W        W28093   0.306  17.710   3.918  0.1420  0.1460 -0.1360
11620W        W28094   1.818  12.749   2.789 -0.0878  0.1458  0.0582
11621W        W28095  17.427  18.135   5.095 -0.3749  0.0997  0.1080
11622W        W28096   3.586  10.139   0.705  0.1199  0.1438 -0.1269
11623W        W28097   3.526  11.638   3.924 -0.0453  0.1094 -0.0794
11624W        W28098  10.901   6.634   6.117  0.0193  0.1095 -0.1755
11625W        W28099   0.553   5.197   0.511  0.1198  0.2605 -0.0501
11626W        W28100  14.328   7.710  12.418 -0.1668 -0.0568  0.1691
11627W        W28101   1.717   2.914  12.904  0.0783  0.0176 -0.1751
11628W        W28102  15.572   9.559   4.598  0.0782 -0.0211 -0.0951
11629W        W28103  16.626  11.174  12.482  0.1100  0.0696 -0.0226
11630W        W28104   0.981  15.600  11.790 -0.0382 -0.3802 -0.1759
11631W        W28105   7.721  14.153  12.276  0.1173 -0.4881 -0.0085
11632W        W28106  11.868   0.007   0.081 -0.1943  0.0357 -0.1002
11633W        W28107  14.197   7.836   5.405  0.1291  0.1903 -0.3632
11634W        W28108  17.106   0.822   0.200 -0.0672  0.0493  0.2269
11635W        W28109   4.761  15.628   5.085  0.2013  0.1737  0.2409
11636W        W28110   6.035   9.370  16.227  0.4205 -0.2900 -0.3965
11637W        W28111   2.178  17.812  15.201 -0.2238  0.3462  0.0289
11638W        W28112  11.051   9.911   0.773  0.3286 -0.2732 -0.0470
11639W        W28113  15.097  14.947   1.438 -0.1244  0.3548  0.0677
11640W        W28114   3.956  16.224  11.567 -0.0206 -0.1056  0.1801
11641W        W28115  12.300   0.243  13.164 -0.1673  0.1735  0.0489
11642W        W28116  14.409   7.914  11.834 -0.1782  0.0476  0.0940
11643W        W28117  10.992  17.026   4.489 -0.2183 -0.2662 -0.1879
11644W        W28118   0.084  13.263  14.783 -0.0518  0.2299 -0.0438
11645W        W28119  11.859   4.269   2.268  0.2695 -0.0938  0.0359
11646W        W28120  13.196  12.621  16.145 -0.1574  0.0655 -0.3131
11647W        W28121  14.356  13.401  15.923 -0.2158 -0.1363 -0.0588
11648W        W28122   5.622  17.355   1.173 -0.0068 -0.0415 -0.1492
11649W        W28123  15.767   1.826   2.619 -0.2584  0.0901  0.1445
11650W        W28124  15.837   3.458   3.758  0.1981  0.0402 -0.0095
11651W        W28125  16.885   2.713   4.475  0.1081 -0.0695  0.0557
11652W        W28126  10.122   0.006   3.535 -0.0143 -0.0210  0.1186
11653W        W28127  10.418  15.916  14.930 -0.4635  0.0629 -0.0882
11654W        W28128  16.848  13.220  11.644  0.2140 -0.2825 -0.1629
11655W        W28129  13.358   6.896  15.280  0.0265  0.1357  0.2444
11656W        W28130   0.062  11.315   0.444 -0.0858  0.0519 -0.0656
11657W        W28131   8.324  15.401  15.482 -0.1165 -0.3163 -0.0942
11658W        W28132  16.594   7.193   4.201  0.1081 -0.2041  0.1982
11659W        W28133   4.202   8.252  15.530 -0.2531 -0.2787  0.0604
11660W        W28134   2.752   2.226  13.347 -0.2515 -0.0171  0.2218
11661W        W28135  12.147   0.891  11.814  0.1532  0.0952 -0.2714
11662W        W28136  14.009  17.727   2.524  0.1957 -0.1434 -0.0109
11663W        W28137   8.598  10.316   3.797  0.2905  0.5002  0.4865
11664W        W28138   3.716  16.669   2.069 -0.0997  0.0150  0.0838
11665W        W28139  11.087  12.801  11.407  0.0150 -0.0654  0.0394
11666W        W28140   2.690   4.680   2.111 -0.2155  0.0742  0.0259
11667W        W28141   1.545  14.707  11.637 -0.0253  0.3131 -0.3756
11668W        W28142  10.072  16.145  15.824 -0.1396 -0.0045  0.2128
11669W        W28143  11.794   4.975   1.228  0.0705  0.1590  0.0605
11670W        W28144   4.409  11.217   0.696  0.1823 -0.2340  0.2267
11671W        W28145  17.573   7.076  12.039 -0.0326  0.2087 -0.2468
11672W        W28146   6.699  16.169   0.321 -0.1027  0.0821 -0.3327
11673W        W28147   0.596  12.156  13.655 -0.3029 -0.0025  0.0873
11674W        W28148  12.072   7.140  11.649  0.0720  0.0279 -0.0214
11675W        W28149   9.958   0.146  16.184  0.1002  0.4365 -0.1335
11676W        W28150   1.605   1.507   4.803  0.0776 -0.0932 -0.1090
11677W        W28151  17.044  10.298   4.251 -0.0710 -0.0145 -0.1720
11678W        W28152   0.387  16.057  14.636  0.0874 -0.0715  0.0607
11679W        W28153  12.671   0.720  14.676  0.1685  0.0639 -0.0876
11680W        W28154  16.419  10.175   2.596  0.1687 -0.1952  0.1036
11681W        W28155   6.822   4.903   4.938  0.2802  0.1364  0.2960
11682W        W28156   5.144   9.339  15.315  0.0759  0.3966  0.0333
11683W        W28157   6.905   8.597   3.042 -0.2046 -0.0076 -0.0217
11684W        W28158  14.494  16.547  12.655 -0.2781 -0.1389  0.3942
11685W        W28159   5.862  11.118  12.200 -0.2284 -0.0808  0.3237
11686W        W28160   9.914  15.692   2.264  0.1382  0.2838  0.1893
11687W        W28161  15.732   9.418  11.404 -0.3772  0.1937 -0.0046
11688W        W28162  11.350  12.134   4.936  0.1179 -0.1315  0.3308
11689W        W28163   1.399  17.993   0.932 -0.0769  0.2446  0.2590
11690W        W28164   6.834   9.033   2.001  0.2742 -0.3204 -0.1513
11691W        W28165   9.433   1.344  13.122  0.1347 -0.0917 -0.4803
11692W        W28166  11.467   4.944   0.719 -0.0694 -0.1856  0.0953
11693W        W28167  16.823  12.944  12.620  0.2247 -0.2795  0.4066
11694W        W28168  14.787   3.619   3.363 -0.1891 -0.0991  0.0309
11695W        W28169  17.346   5.867  11.162  0.0794  0.0869 -0.3788
11696W        W28170  18.313   7.812   5.398  0.1001  0.0974  0.0550
11697W        W28171   6.463  11.603   3.964  0.1411  0.0883  0.1349
11698W        W28172   1.809   1.038  14.636 -0.2681  0.3112 -0.1733
11699W        W28173   5.262  16.370  14.824 -0.1089 -0.1077  0.0104
11700W        W28174  15.100  10.395   1.415 -0.2084  0.1861  0.1631
11701W        W28175  11.485   2.487  13.109 -0.0845  0.2343  0.2237
11702W        W28176  16.811   6.048  12.737 -0.0730 -0.1698 -0.4285
11703W        W28177   9.932   8.084  12.783 -0.0013  0.2520  0.0319
11704W        W28178   8.059   4.810   3.629 -0.0875 -0.2219 -0.0149
11705W        W28179   3.424  18.168  13.421 -0.3092  0.2897  0.3096
11706W        W28180  15.837  11.462  14.618 -0.1146 -0.0735 -0.1544
11707W        W28181  14.158   8.032   4.874  0.0135 -0.4397 -0.1989
11708W        W28182  10.334   2.012   1.326 -0.0024 -0.2104 -0.3367
11709W        W28183  14.142   5.292  14.816  0.2662 -0.2725 -0.1061
11710W        W28184  17.146   7.191  15.574 -0.4134 -0.1465  0.2582
11711W        W28185   0.956  14.191   0.383 -0.1343  0.0336 -0.1633
11712W        W28186   3.504  10.881  15.896  0.0288 -0.0595 -0.1010
11713W        W28187   0.886   0.669   3.386 -0.0108  0.2317 -0.3649
11714W        W28188   8.190   2.232   3.809  0.0394  0.0929  0.0209
11715W        W28189   7.911   6.184   2.584 -0.4009  0.1202  0.1761
11716W        W28190   2.776  11.129  14.081 -0.1613 -0.2597  0.2366
11717W        W28191  14.736  17.733  11.928 -0.2997 -0.2163 -0.0380
11718W        W28192  15.503  10.472  12.908 -0.1998  0.0507 -0.0818
11719W        W28193   2.323  11.843  12.868 -0.1146  0.1439  0.0702
11720W        W28194   2.101   6.929  11.842 -0.1426  0.1299 -0.2422
11721W        W28195   1.509  15.566  12.957 -0.3071 -0.0281 -0.2819
11722W        W28196  14.825  10.566   2.942  0.2815  0.1029 -0.2884
11723W        W28197   4.127  12.860   4.790 -0.1358 -0.1678 -0.0167
11724W        W28198  11.196   8.549   3.282  0.3146 -0.2796  0.1646
11725W        W28199  14.060   6.013   2.153 -0.0096 -0.1806  0.0717
11726W        W28200   8.689   9.893  15.331 -0.0844 -0.1885  0.2302
11727W        W28201   8.947  10.753   2.415  0.0472  0.0467 -0.0587
11728W        W28202  16.919  13.652   3.458 -0.0934 -0.1414 -0.1051
11729W        W28203  18.051   4.658   1.166  0.1472  0.3020  0.3843
11730W        W28204   6.913   4.128   0.134  0.0215  0.1186  0.1269
11731W        W28205   6.801   9.803  13.672  0.1120 -0.0179  0.0820
11732W        W28206   8.122   3.580   2.086 -0.1584  0.2448 -0.1620
11733W        W28207  12.783  12.439   2.948 -0.0549 -0.1545 -0.1012
11734W        W28208   7.402   7.782  15.053  0.0711  0.1944 -0.1405
11735W        W28209   4.862   0.780  15.698 -0.0616  0.1598  0.2963
11736W        W28210  11.298   9.403  14.111 -0.0575 -0.1450 -0.4387
11737W        W28211   8.568   7.019   4.181 -0.2101  0.3616  0.3916
11738W        W28212  14.884   2.824   2.840  0.0060 -0.0885 -0.2126
11739W        W28213  12.997  13.154   0.991  0.0080  0.0085  0.3552
11740W        W28214   6.454   1.617   4.994  0.2202  0.1079 -0.0807
11741W        W28215   5.272  13.986  13.839 -0.0432  0.3539  0.1465
11742W        W28216   2.253   0.927  11.930 -0.0261  0.2197  0.0387
11743W        W28217   9.902   5.177  12.082 -0.0194  0.1299 -0.0925
11744W        W28218   6.719   3.887   5.098  0.1905 -0.3545  0.2496
11745W        W28219  16.952  12.590  10.911  0.3925  0.1340  0.4182
11746W        W28220   7.965  12.830  12.107  0.4034  0.0340 -0.0799
11747W        W28221   1.353   3.643  11.507  0.2811 -0.0095 -0.0280
11748W        W28222  17.281  16.835   1.436  0.0520  0.0642  0.3159
11749W        W28223   6.156   4.690  14.008  0.4681  0.2177  0.0084
11750W        W28224   1.241  12.785  10.915  0.1734  0.3657  0.0725
11751W        W28225   6.002   9.189  14.966  0.0529 -0.0713  0.0456
11752W        W28226  11.116   5.278  14.004  0.3268 -0.0347  0.1770
11753W        W28227   3.814  15.934  12.879 -0.1058  0.2590 -0.1276
11754W        W28228  12.585  17.824   5.032 -0.0862  0.1570 -0.1948
11755W        W28229  17.998  15.250   5.236  0.0789  0.0139  0.1301
11756W        W28230  13.421   0.776   1.539  0.1044 -0.0676  0.2956
11757W        W28231   4.385   4.462   3.930 -0.5322  0.0679  0.0868
11758W        W28232   6.144  12.853   1.530 -0.3919 -0.0209 -0.1104
11759W        W28233   2.474   6.527   1.867 -0.0728 -0.3080  0.2681
11760W        W28234   2.856   9.009   4.696  0.1069 -0.0063  0.2394
11761W        W28235  14.391   1.021   5.375  0.1090 -0.0902  0.2065
11762W        W28236  12.039  14.114   2.740  0.1482 -0.1028  0.0360
11763W        W28237   9.176   3.711   5.193  0.0960 -0.0063 -0.0954
11764W        W28238  13.171   9.436   5.247 -0.0239  0.2990  0.0080
11765W        W28239   5.514  16.853  10.087 -0.1504 -0.0619 -0.1173
11766W        W28240   2.766  11.142  13.059  0.3911  0.0691 -0.2729
11767W        W28241  15.729  17.733  11.752  0.1530 -0.1406 -0.1563
11768W        W28242  16.459  17.289  11.844  0.1693  0.0239 -0.1730
11769W        W28243   7.468  18.239  15.347 -0.1487  0.2368  0.0269
11770W        W28244  16.977  10.995  10.582 -0.3007  0.1247  0.0707
11771W        W28245  14.560  12.697  14.885 -0.0442  0.1594  0.0608
11772W        W28246   5.476  12.392  15.681  0.3653 -0.0725  0.0303
11773W        W28247  13.433   0.839   5.267  0.0490  0.3270 -0.2056
11774W        W28248  13.956  16.817  14.045  0.0983 -0.2332 -0.0976
11775W        W28249   9.743   4.936  11.176  0.0714 -0.0287 -0.1232
11776W        W28250  15.066   9.873   0.720  0.1136 -0.0129 -0.1026
11777W        W28251   1.687   8.946  15.793  0.1771 -0.3568  0.2987
11778W        W28252   8.977  13.544   1.068  0.3220  0.3112 -0.2554
11779W        W28253  17.136   3.033   3.517 -0.0272 -0.0793 -0.0297
11780W        W28254  14.956   9.559  16.106  0.1271 -0.4087 -0.1997
11781W        W28255  10.122  18.252  12.453 -0.0959 -0.2450 -0.1409
11782W        W28256   6.107  10.291   5.468 -0.3261  0.0380  0.0524
11783W        W28257   8.903  14.371   1.152  0.0681 -0.1396  0.0706
11784W        W28258  17.195   5.641   2.434  0.0063  0.0465  0.1135
11785W        W28259   6.423   3.205   2.369  0.2325 -0.5325  0.0267
11786W        W28260   5.749   1.678  13.899  0.0616 -0.3905 -0.0529
11787W        W28261  18.065   9.781  15.324 -0.1067  0.0154  0.0778
11788W        W28262  12.198  14.533  13.378  0.1318 -0.1925 -0.0436
11789W        W28263  15.415  16.063   4.502  0.1329  0.0144  0.1051
11790W        W28264  15.212  13.283   2.389 -0.0731  0.0023 -0.0927
11791W        W28265  11.199   8.597  12.993  0.2676  0.0143  0.0711
11792W        W28266  11.879  18.191  15.005 -0.0449 -0.3280 -0.2645
11793W        W28267  16.402  13.656   0.123  0.2195 -0.0793  0.0102
11794W        W28268  10.411   8.138  14.798 -0.2061 -0.3308  0.1373
11795W        W28269   8.019  10.037  14.609 -0.2036 -0.0617  0.1269
11796W        W28270  16.230   3.519   0.511 -0.2548 -0.0892  0.1018
11797W        W28271   1.480   6.181  13.865  0.1789 -0.3727  0.4060
11798W        W28272  16.094  17.531   4.706 -0.2009  0.1376 -0.1561
11799W        W28273  18.077  12.602  15.038 -0.1537  0.2732  0.0712
11800W        W28274   1.000  18.025   3.679  0.3659  0.1748 -0.1349
11801W        W28275  16.877  14.759  12.898  0.0827 -0.2759 -0.2912
11802W        W28276   8.658  12.432   0.324  0.1248  0.5884 -0.2747
11803W        W28277   2.964  16.236   2.718 -0.0441  0.2685  0.0139
11804W        W28278  16.187   5.135  16.019  0.1366 -0.2486 -0.0787
11805W        W28279  14.519   6.888  11.292 -0.0700  0.1106  0.0226
11806W        W28280   6.832   5.507  12.322  0.3172  0.0671 -0.0988
11807W        W28281   5.875  14.596  13.959  0.0023 -0.0684 -0.3657
11808W        W28282  12.803  17.575   1.160 -0.2627  0.3386 -0.1605
11809W        W28283  12.564  14.365  15.931 -0.1645  0.3399  0.0195
11810W        W28284   9.044   1.307  11.262 -0.0553 -0.1366 -0.0856
11811W        W28285  11.938   5.381  11.258 -0.1774  0.0907 -0.1311
11812W        W28286   8.678  17.370  14.590  0.1921  0.0377 -0.0092
11813W        W28287   6.284   9.825   5.208  0.2290  0.0278  0.0424
11814W        W28288  13.169  15.257  15.438 -0.2614  0.4583 -0.0842
11815W        W28289   5.338   1.701   4.576  0.2717 -0.1213  0.2081
11816W        W28290  16.643   5.945  14.772 -0.1188  0.3866 -0.0027
11817W        W28291  11.115  11.337  12.807  0.2329 -0.3257 -0.3453
11818W        W28292   4.383  12.440   4.753  0.0548  0.0728  0.1768
11819W        W28293   1.085   5.682  15.192  0.0781  0.0021 -0.0326
11820W        W28294   0.114  12.157   3.311 -0.2157 -0.3287 -0.1127
11821W        W28295   2.177  15.739  14.578 -0.2253  0.0639  0.0187
11822W        W28296   7.800  10.876  13.630  0.1047 -0.0505 -0.3205
11823W        W28297  10.168  14.912   2.675 -0.2085 -0.1438  0.1032
11824W        W28298  18.288  11.634   4.787  0.0608 -0.0555  0.3786
11825W        W28299   8.557   5.949   0.648  0.5143 -0.3304  0.1663
11826W        W28300  12.336  17.042   3.801 -0.2646  0.1342  0.2993
11827W        W28301   6.805  10.067   0.037  0.0380  0.3408 -0.1314
11828W        W28302  15.572   2.835  12.658 -0.2554  0.1607 -0.0507
11829W        W28303   2.614   7.253  13.910  0.0914  0.2070  0.2175
11830W        W28304  17.584   5.520   1.089 -0.0725 -0.0043  0.0497
11831W        W28305   7.436  15.399  16.187  0.1392 -0.2201 -0.0038
11832W        W28306   3.309  12.010  12.990 -0.0246  0.0297  0.0244
11833W        W28307   5.686   7.476   5.816  0.2708  0.4234 -0.1649
11834W        W28308  13.293   9.117  11.770 -0.1582  0.0884 -0.1053
11835W        W28309   8.680  17.676   1.963 -0.1903 -0.0712 -0.5626
11836W        W28310   3.241   8.226  16.274  0.1830  0.1113 -0.1965
11837W        W28311   9.711  13.452  13.455  0.1310  0.0345 -0.2447
11838W        W28312  14.043   8.105   2.504  0.1022 -0.0209 -0.1342
11839W        W28313  17.690   4.594  15.730 -0.2808 -0.2281 -0.0817
11840W        W28314  11.944   8.079  13.107 -0.4550  0.0103  0.1537
11841W        W28315   7.317  13.803  15.438  0.0837 -0.2419  0.1173
11842W        W28316   2.992   6.041  14.944  0.1212 -0.0847 -0.1411
11843W        W28317  16.280   4.777   1.102 -0.2557 -0.2019  0.0204
11844W        W28318   4.450  16.369   4.090 -0.2464 -0.2568  0.0059
11845W        W28319  13.369  15.407  11.774 -0.0206 -0.2092  0.1506
11846W        W28320   9.231   4.249  12.887 -0.3296  0.0868 -0.1168
11847W        W28321  16.518  10.444  11.125 -0.3155 -0.2153  0.3167
11848W        W28322   2.422   6.518   3.587 -0.1617  0.1109 -0.0538
11849W        W28323   0.070   1.550   3.572  0.3128  0.0691 -0.0958
11850W        W28324   4.833  11.592  13.337 -0.2856 -0.4397 -0.1743
11851W        W28325   4.140   0.912   3.784 -0.0304  0.0165 -0.0457
11852W        W28326   6.945  13.439  14.076 -0.0087  0.2954  0.0496
11853W        W28327  14.918  10.439  13.143  0.1526  0.1713  0.1424
11854W        W28328  10.822  14.919   0.072 -0.5122  0.2021  0.0833
11855W        W28329   6.779  12.881  14.418 -0.3171  0.1688 -0.1305
11856W        W28330   4.213  14.284  11.332  0.2105 -0.2262  0.0307
11857W        W28331   6.014   9.896  15.331  0.0197 -0.0491  0.1239
11858W        W28332  14.090  11.167   3.743  0.1348 -0.1383  0.1317
11859W        W28333   4.078  15.914  13.987  0.1316  0.3651  0.0482
11860W        W28334   4.694  11.752  12.876 -0.2395 -0.1881 -0.2643
11861W        W28335   6.956   3.635  15.653  0.1054  0.1328 -0.1551
11862W        W28336  10.065  12.760   2.145  0.0093  0.0301 -0.1639
11863W        W28337   3.702  12.949   4.492  0.0298 -0.2556  0.1466
11864W        W28338  16.908   6.950  16.090  0.1101  0.0971  0.0299
11865W        W28339  16.653   3.504  12.105  0.0773  0.3228 -0.2311
11866W        W28340   4.409   1.135   1.717  0.1568  0.0530 -0.2297
11867W        W28341   2.475   1.173   0.833 -0.1079 -0.0528  0.2911
11868W        W28342   7.450   2.610   0.867 -0.2436  0.4869 -0.0128
11869W        W28343   7.931  12.134  10.840 -0.1567  0.0430 -0.1998
11870W        W28344   9.015   3.461  15.469 -0.0410 -0.1165 -0.1340
11871W        W28345  16.894  16.102   3.184  0.0257  0.0476  0.1401
11872W        W28346  11.687  17.167  15.121  0.1844  0.2436 -0.2085
11873W        W28347   5.371   9.795  12.456 -0.0225 -0.1633  0.0310
11874W        W28348   3.133   8.690   5.546 -0.0349 -0.1169  0.3018
11875W        W28349  18.228   8.029   3.746 -0.0789  0.1163  0.0564
11876W        W28350  14.371   4.393   0.265 -0.1601 -0.1222 -0.1995
11877W        W28351   6.653  10.748  11.692 -0.2091  0.2578  0.0328
11878W        W28352  17.031   8.036   2.413  0.0720  0.3496 -0.0777
11879W        W28353  15.441  11.246   5.861 -0.1903 -0.1925 -0.2838
11880W        W28354   6.201  16.048  12.740 -0.0218  0.3631 -0.1955
11881W        W28355   9.094  11.283  15.732  0.1733 -0.0307 -0.0283
11882W        W28356  18.124  14.697   5.273  0.1743 -0.3322  0.0965
11883W        W28357   9.865   8.974  15.969 -0.0691  0.1367 -0.0953
11884W        W28358   8.518   8.150   5.378 -0.3264  0.2368  0.4222
11885W        W28359  12.208  11.698   2.337 -0.1917 -0.5690  0.1473
11886W        W28360   4.770  13.798   1.124  0.2685  0.0022  0.0228
11887W        W28361   9.340   3.524  10.489 -0.1410 -0.0042  0.2751
11888W        W28362   6.008   5.679   5.719 -0.1907 -0.1931 -0.1164
11889W        W28363  11.338   4.850  10.840  0.0698  0.3695 -0.2099
11890W        W28364  15.725  13.215  11.840 -0.0987  0.4091 -0.1295
11891W        W28365   2.138  18.268   0.238 -0.3193 -0.1445  0.0222
11892W        W28366   6.348  11.440   4.876 -0.0585  0.0564  0.3569
11893W        W28367  12.642   9.875  13.091 -0.1159  0.0850  0.0735
11894W        W28368  11.743  10.643   0.579  0.0627  0.1140  0.0740
11895W        W28369  12.580  17.623  14.296  0.0226 -0.3486  0.0759
11896W        W28370   1.680  13.819   4.197 -0.2654 -0.1628 -0.2070
11897W        W28371   4.548  18.043  13.462 -0.3636  0.0196  0.1255
11898W        W28372   9.772   9.933  12.405 -0.0425 -0.0358 -0.2286
11899W        W28373  17.463  12.033   1.812  0.3309  0.1528 -0.1866
11900W        W28374   9.730  11.714  12.360  0.0514 -0.0611 -0.3234
11901W        W28375  11.290   9.043  15.171 -0.1405 -0.0054  0.1688
11902W        W28376   8.117   6.800   0.315  0.0852  0.2408  0.2236
11903W        W28377   1.040  13.525   4.782 -0.6257  0.0557  0.2004
11904W        W28378   0.285   9.212   1.590 -0.1549 -0.0358 -0.0721
11905W        W28379  17.951  15.890  12.866 -0.2357 -0.1441  0.0952
11906W        W28380  15.088  10.901  16.107  0.0585 -0.0447 -0.2843
11907W        W28381   2.314  15.575   3.517 -0.0273 -0.0343  0.1565
11908W        W28382  11.306   9.223   2.056 -0.0066 -0.1901  0.0527
11909W        W28383   7.132  13.571   0.721  0.1453  0.2270  0.0957
11910W        W28384   9.021   5.295   1.540  0.4246 -0.2614 -0.1670
11911W        W28385   4.420   9.363  13.927 -0.0195  0.2560 -0.4946
11912W        W28386  14.885  13.188  15.694  0.2239 -0.1454  0.0440
11913W        W28387  14.945  14.402   5.090  0.3522  0.1595  0.0959
11914W        W28388  15.276   7.756  12.054 -0.0825 -0.0258  0.1119
11915W        W28389  14.247   3.324   0.527  0.2447  0.0584  0.2147
11916W        W28390  17.608   2.081   5.283  0.3214 -0.0262  0.3226
11917W        W28391   2.354   8.581  13.991  0.1410  0.1170  0.1736
11918W        W28392  12.495   5.931  15.522 -0.0095 -0.1537 -0.1344
11919W        W28393   5.812   7.544   4.114  0.0092 -0.1953  0.0761
11920W        W28394  15.200  15.571   1.115 -0.2211 -0.1389 -0.0907
11921W        W28395   1.989   5.745  11.741  0.0018 -0.1268 -0.0860
11922W        W28396   9.664   4.426   2.380  0.2288  0.0859 -0.2924
11923W        W28397  10.896   9.354  15.672 -0.0756 -0.2322 -0.0510
11924W        W28398   8.009   4.439   3.972  0.2446 -0.2157  0.1834
11925W        W28399  15.682   9.576   5.665 -0.0200  0.2556  0.3602
11926W        W28400  14.711   4.028   3.741  0.1776 -0.1166 -0.1015
11927W        W28401   1.277  17.599  14.611  0.1135 -0.1629  0.2953
11928W        W28402  16.638  15.971   0.202  0.2354 -0.1888  0.1730
11929W        W28403  10.430   0.118   0.076 -0.0190 -0.3885  0.1379
11930W        W28404  15.156   1.850  13.822 -0.4128 -0.0633 -0.0218
11931W        W28405  11.135  16.821   3.652 -0.3166 -0.3036  0.0279
11932W        W28406  13.173  10.320   4.784 -0.0774  0.0825 -0.0755
11933W        W28407   6.088  13.866   2.101 -0.2006 -0.0792 -0.1754
11934W        W28408  13.850  12.469  12.783 -0.0147 -0.1257 -0.1478
11935W        W28409  12.797   5.440   3.916  0.2082 -0.0777  0.2017
11936W        W28410   1.580   0.990   2.806 -0.0589 -0.0254  0.1798
11937W        W28411  17.726  10.688   5.034 -0.1157  0.1372  0.0766
11938W        W28412  13.976  16.046  14.104  0.1352  0.2003 -0.2455
11939W        W28413  16.292   6.697  14.328 -0.1698 -0.5152  0.0113
11940W        W28414  12.251   1.894  11.662  0.2746 -0.0156  0.0157
11941W        W28415   6.462   9.187  15.993 -0.0213  0.2746 -0.1955
11942W        W28416  17.993   8.209   0.688 -0.1045  0.0541  0.0503
11943W        W28417  10.193  13.254  13.693 -0.0370 -0.2923  0.4821
11944W        W28418  18.145   0.350  10.988 -0.0917 -0.0091 -0.1688
11945W        W28419   0.253  17.797   5.340  0.2712  0.1990 -0.4017
11946W        W28420   5.507   8.539  13.777  0.2064  0.0936 -0.0355
11947W        W28421   4.079   9.951  12.271 -0.0510  0.2707  0.2536
11948W        W28422   8.885   2.297   1.186 -0.0824 -0.0050  0.0246
11949W        W28423   0.548  13.877  10.290 -0.1355 -0.3071 -0.0688
11950W        W28424   7.521   8.691   0.860 -0.1562 -0.0163 -0.0042
11951W        W28425   7.729  10.754  14.105  0.0407  0.3335 -0.0957
11952W        W28426  11.894  17.754  14.687 -0.1922 -0.1957 -0.1341
11953W        W28427   3.745  18.327   0.000 -0.3282 -0.0463  0.1034
11954W        W28428  10.109  14.443   4.748 -0.0363  0.0651 -0.3315
11955W        W28429   8.369   2.933  16.122 -0.0778  0.0704  0.2283
11956W        W28430  10.107   8.678   0.271  0.2409 -0.0436  0.0422
11957W        W28431  10.214   4.282   2.479 -0.2816 -0.1718  0.0316
11958W        W28432   2.004   1.529   1.032 -0.2772 -0.1217  0.0475
11959W        W28433   9.784   8.529  16.225 -0.2453  0.1376 -0.0195
11960W        W28434   1.538   6.266  12.442 -0.2016 -0.0307  0.0116
11961W        W28435   3.607   2.331   3.088  0.0146  0.1850 -0.0054
11962W        W28436  10.863   9.584   3.227 -0.1207 -0.0878 -0.5084
11963W        W28437   9.651  14.481   3.367 -0.1647  0.2395 -0.1981
11964W        W28438   9.604  11.712   4.335  0.0875  0.4058 -0.0172
11965W        W28439  12.480  11.797   4.523  0.0528 -0.0911 -0.1876
11966W        W28440   1.776   6.525  12.023  0.1345  0.3077  0.2756
11967W        W28441  14.276  11.266   3.183 -0.1858 -0.1933  0.4118
11968W        W28442   1.736   1.662   2.349  0.2276  0.1234  0.0933
11969W        W28443  15.745   2.325   5.108  0.0692 -0.1863 -0.1099
11970W        W28444   2.928   5.105   4.093 -0.1735  0.1959 -0.1466
11971W        W28445  16.586  16.217  15.501 -0.0608 -0.4529 -0.3287
11972W        W28446   1.991   8.935   1.650  0.0584 -0.0807 -0.0536
11973W        W28447   3.101  13.078  11.893  0.3561 -0.2047  0.0140
11974W        W28448  11.700  10.785   4.801  0.0464  0.0327 -0.0451
11975W        W28449  12.542  10.317   3.997  0.2766 -0.1683  0.0805
11976W        W28450   6.257  11.885  13.123 -0.4301 -0.1538  0.1245
11977W        W28451   9.751   5.461  13.683 -0.0370 -0.0168 -0.0005
11978W        W28452   3.090  13.166   0.044  0.1657 -0.0833 -0.0577
11979W        W28453  16.758   9.126   4.783  0.0810  0.3316 -0.0003
11980W        W28454   5.559  14.677  14.415 -0.0182  0.0082  0.1722
11981W        W28455   0.758   1.685  13.791 -0.2515  0.1597  0.1678
11982W        W28456  13.985  10.854   0.383  0.1011  0.0158 -0.2382
11983W        W28457  17.131   1.058   0.749 -0.1919  0.1086  0.1719
11984W        W28458  12.277  12.456   2.890 -0.2542 -0.2295  0.0604
11985W        W28459   8.910   1.368   2.619 -0.2141  0.0318  0.1714
11986W        W28460   2.181  10.988  16.148  0.1323 -0.4355  0.2382
11987W        W28461   9.840  16.523   6.169 -0.0798 -0.1045 -0.0170
11988W        W28462  15.238   4.278   5.187  0.3739 -0.2460  0.1753
11989W        W28463   2.214   2.506   0.959 -0.1033  0.1970  0.0024
11990W        W28464   5.009   1.636  11.435 -0.1002  0.1093  0.4312
11991W        W28465  14.419  14.916  15.362  0.1194  0.3078  0.3776
11992W        W28466  11.532  14.672  11.600 -0.0594 -0.0200 -0.1505
11993W        W28467  12.285   5.078   2.575  0.1327  0.1336 -0.1883
11994W        W28468  13.135   5.231   2.380 -0.0608  0.0887 -0.0642
11995W        W28469  15.042  12.117  13.249  0.2845  0.0784  0.0922
11996W        W28470  10.074   4.645  15.549 -0.0882  0.1308 -0.3729
11997W        W28471   8.860   4.569  11.437  0.2771  0.1419  0.0324
11998W        W28472   1.657   6.683   5.304 -0.0430 -0.2226  0.1223
11999W        W28473   8.151  11.412   5.736 -0.2215 -0.1850 -0.1638
12000W        W28474  13.850  17.166   0.168  0.2671 -0.3419  0.2853
12001W        W28475   7.708  15.996  14.059  0.5189  0.1127  0.0678
12002W        W28476   8.658  11.587   4.845 -0.0275  0.2811  0.0802
12003W        W28477   9.815   2.995  14.010  0.0535 -0.1541  0.0941
12004W        W28478  12.953   6.819   0.886  0.0328 -0.0115 -0.0297
12005W        W28479  13.272  15.622   2.188  0.1496  0.1077  0.1219
12006W        W28480  11.588  14.068   0.741  0.4011 -0.0319 -0.0430
12007W        W28481  16.644  11.898   1.026  0.1899  0.2376  0.3286
12008W        W28482  17.635  14.267  14.051 -0.3641 -0.0439 -0.0068
12009W        W28483  10.303   4.998  13.069  0.3384 -0.0861  0.4125
12010W        W28484   7.609   3.433   2.237 -0.1978 -0.0189  0.0138
12011W        W28485  14.384  15.135   0.800 -0.1239  0.2548  0.0007
12012W        W28486  11.219   1.914   4.580 -0.1698 -0.3434 -0.1785
12013W        W28487   3.312   1.511   4.275  0.2280 -0.1219  0.2392
12014W        W28488  12.915   9.401   0.117  0.2344  0.0649  0.0177
12015W        W28489   1.358   7.113  15.272  0.0850 -0.0467  0.0445
12016W        W28490   2.653   8.289   1.901  0.3150  0.0752  0.2201
12017W        W28491   1.021   5.845   5.336  0.0966 -0.0052 -0.0042
12018W        W28492  11.069   8.076  12.837  0.1988  0.2770 -0.0829
12019W        W28493   1.007  10.455   3.196  0.0316 -0.1011  0.1112
12020W        W28494  14.573   9.917   1.675  0.3667 -0.0487 -0.0630
12021W        W28495  17.784  11.049  13.011  0.2261 -0.5160  0.1663
12022W        W28496   7.310   8.894   2.291 -0.2004 -0.0037 -0.0520
12023W        W28497  14.453   4.412   3.625  0.1467 -0.0279 -0.1865
12024W        W28498   8.005   6.285   1.599 -0.0775  0.1535 -0.0154
12025W        W28499  12.057  13.862   1.926  0.3067 -0.0486  0.2210
12026W        W28500   6.705   1.248  15.847  0.1059 -0.2604 -0.0697
12027W        W28501   3.233   2.710   5.237  0.1865 -0.0476 -0.0314
12028W        W28502   0.080   7.255   2.167 -0.0363 -0.4079 -0.0662
12029W        W28503   4.914   2.827  13.798 -0.2714  0.2125 -0.2068
12030W        W28504   0.124   1.131  15.693 -0.0061  0.1400  0.0298
12031W        W28505   1.338   6.819   2.941  0.3886 -0.0311 -0.3118
12032W        W28506   2.651   6.181  11.993  0.0739 -0.0879  0.2632
12033W        W28507   2.085  10.049  12.284 -0.2719 -0.4542 -0.4122
12034W        W28508  13.347  17.431   2.985 -0.0190  0.2915 -0.4453
12035W        W28509   6.475   1.326   5.435  0.2203 -0.2524  0.3614
12036W        W28510  11.077  11.439   1.842 -0.0269 -0.2298 -0.0052
12037W        W28511  12.929   2.249  12.349  0.3833  0.0656 -0.1167
12038W        W28512  17.680   4.994  11.932 -0.2448  0.1787 -0.1778
12039W        W28513   1.666  18.040  13.925  0.1097  0.0443  0.0534
12040W        W28514   4.765  17.079   2.850 -0.0418 -0.1999  0.0712
12041W        W28515  13.947  17.179  15.763 -0.1692  0.0000 -0.1019
12042W        W28516  15.204   5.437   0.488  0.0427 -0.0583 -0.3908
12043W        W28517   3.614  12.521   5.885  0.1900 -0.1923  0.0091
12044W        W28518   1.920   9.464  12.104 -0.0314 -0.1151 -0.4375
12045W        W28519   7.817  10.547  12.640  0.0283  0.2068 -0.0434
12046W        W28520  16.884  16.681  13.189  0.0534  0.0146 -0.0296
12047W        W28521   6.005   8.859   1.580  0.2549 -0.4724 -0.0368
12048W        W28522   1.973   3.494   2.191 -0.3600  0.0237  0.0178
12049W        W28523  17.788   8.619   4.586  0.1440  0.1114  0.0564
12050W        W28524   7.875   9.923  15.097  0.1283  0.0300 -0.1046
12051W        W28525  15.718   0.288  13.089  0.0576  0.1502 -0.2144
12052W        W28526   6.213   2.283  11.738 -0.1373  0.3009  0.1908
12053W        W28527   2.805  12.642   0.940 -0.0599 -0.3070 -0.2919
12054W        W28528   1.622   1.847  14.590 -0.2187  0.0499  0.1937
12055W        W28529  18.121   4.257   1.414 -0.1437  0.0206 -0.0980
12056W        W28530   6.178   9.109   3.013 -0.1644 -0.0179  0.0358
12057W        W28531   1.953  16.389   0.480  0.1171  0.0602  0.1108
12058W        W28532   3.510   6.424   4.228 -0.2279  0.1257  0.0983
12059W        W28533   1.704  10.908   1.995  0.0004  0.2027 -0.4286
12060W        W28534  11.937  12.336  13.501  0.0541  0.0882 -0.3002
12061W        W28535  16.853  13.727   4.695 -0.0507  0.2743  0.0689
12062W        W28536  11.656   9.984  12.059  0.1108 -0.0461  0.0066
12063W        W28537   3.973   3.720  11.594 -0.0485  0.3029  0.0190
12064W        W28538   1.834  13.991  12.603 -0.3737 -0.0861  0.1013
12065W        W28539   4.450  17.712  11.976  0.1297 -0.0868 -0.0634
12066W        W28540  10.272  14.644  14.609  0.2687 -0.1028  0.1072
12067W        W28541  16.775   4.433   2.300 -0.3570  0.2692  0.0147
12068W        W28542   3.857  16.368  14.410  0.0896 -0.0570  0.3178
12069W        W28543   2.571  14.221   0.128  0.2413  0.0619 -0.0646
12070W        W28544  12.249  17.356  12.667  0.0408  0.1268  0.1414
12071W        W28545  11.659   9.908   4.823 -0.2047 -0.1684 -0.0007
12072W        W28546  11.172   5.337   0.765 -0.4590 -0.1860 -0.0431
12073W        W28547  14.842  15.644  12.297  0.2449  0.1594  0.0394
12074W        W28548   9.039  14.786   2.234  0.2042 -0.3653 -0.1030
12075W        W28549   5.340  17.100  11.499  0.1571 -0.0208 -0.0083
12076W        W28550   2.903   7.397  13.421  0.0707  0.3025  0.0607
12077W        W28551   3.374   3.712  14.799  0.0089  0.1934  0.1418
12078W        W28552   8.277   3.321  13.382 -0.1308  0.0305 -0.2480
12079W        W28553   0.650   5.632   0.861  0.0219 -0.1058 -0.0846
12080W        W28554   5.976  17.289   1.500  0.1708 -0.1464 -0.1926
12081W        W28555   5.206   4.061   0.279 -0.0080 -0.2069 -0.2396
12082W        W28556   6.151   5.727   1.969  0.0187 -0.0717 -0.3001
12083W        W28557  15.407   3.149  11.545  0.1924  0.3862 -0.4807
12084W        W28558  16.690   7.456  14.270 -0.0507 -0.1146  0.2692
12085W        W28559   5.199  16.489   5.149 -0.1161  0.0189  0.4004
12086W        W28560  11.404   2.349  16.169  0.0258  0.3402 -0.1878
12087W        W28561  14.680   5.754  11.176  0.1752  0.0790  0.0129
12088W        W28562   6.754   8.384  12.410  0.0862 -0.1202 -0.2937
12089W        W28563   6.525   3.017   4.964 -0.6056 -0.1901 -0.1237
12090W        W28564  10.570   6.083  15.657  0.0571  0.3002  0.0981
12091W        W28565   9.451  14.495   5.478  0.1025 -0.1816 -0.2451
12092W        W28566  17.327   2.227  14.518  0.0108 -0.0448 -0.1861
12093W        W28567  13.740  15.944  15.813  0.2029 -0.1203 -0.0532
12094W        W28568  11.992  11.859  12.386 -0.1321 -0.3709 -0.0011
12095W        W28569   7.161   0.948   1.854  0.0575  0.2259  0.2745
12096W        W28570   6.653   7.536  14.919  0.1110 -0.3914 -0.4312
12097W        W28571  16.934   3.358   1.618 -0.0210 -0.0001 -0.0689
12098W        W28572   3.465  12.012   0.291  0.1082  0.1302 -0.3037
12099W        W28573   8.806  11.776   1.568 -0.2828 -0.2258  0.0101
12100W        W28574  10.757  12.295  15.742  0.1610  0.0992  0.0224
12101W        W28575   2.057  15.442  15.087 -0.1046  0.0481  0.2549
12102W        W28576  12.183   8.137  14.326 -0.3095  0.1715 -0.0949
12103W        W28577  12.339   3.525  13.247  0.0596 -0.0677  0.3346
12104W        W28578   3.106  17.202  12.180 -0.2030  0.0867 -0.2909
12105W        W28579  15.736  14.402  13.733 -0.1092 -0.1022 -0.0394
12106W        W28580   3.330  14.319   0.885  0.2493 -0.3084  0.0276
12107W        W28581   2.853  16.761   0.888  0.0627  0.1993  0.0055
12108W        W28582   3.185  17.577  15.522  0.1689  0.0740  0.2082
12109W        W28583  13.843  17.008  15.109 -0.1854  0.1253 -0.0371
12110W        W28584   2.795   1.553  12.549  0.1308 -0.0673 -0.2430
12111W        W28585  13.964   1.390   5.528 -0.1816 -0.1215  0.1992
12112W        W28586   2.129   3.625   2.634 -0.3159  0.4430 -0.0905
12113W        W28587  12.092  14.240   2.205 -0.3231 -0.3547 -0.0980
12114W        W28588  11.873   5.434   1.412  0.1236  0.0059  0.1321
12115W        W28589  11.380   6.806  15.578 -0.0018 -0.0467  0.5192
12116W        W28590   5.512   2.145  14.692 -0.0719 -0.1276  0.1599
12117W        W28591   7.182   5.902   1.637 -0.0568  0.0028 -0.0076
12118W        W28592  10.541  17.250   1.397 -0.0562 -0.1767 -0.0934
12119W        W28593   8.369  18.006   2.932  0.0486  0.0842 -0.2629
12120W        W28594  10.874  16.395   5.149 -0.0594 -0.0221 -0.0895
12121W        W28595  15.534  18.292   0.799  0.0374  0.2167  0.0144
12122W        W28596  16.135  11.972  14.935  0.1524 -0.2247  0.1052
12123W        W28597  12.629   0.268  13.552  0.2108  0.2472  0.0514
12124W        W28598  12.049  14.506  15.641  0.1661  0.0077 -0.0568
12125W        W28599  10.533  14.622   4.081  0.0131 -0.1967 -0.0666
12126W        W28600   4.347  13.149  15.294 -0.0679  0.2017  0.3380
12127W        W28601  12.361   1.013   4.354 -0.2521 -0.0255 -0.0124
12128W        W28602   0.916  17.324   0.487  0.0120  0.0320 -0.0765
12129W        W28603  17.753   9.058   4.835  0.2658  0.2492  0.0128
12130W        W28604   5.720   7.595   5.029 -0.0846  0.1180 -0.0282
12131W        W28605   2.119  14.400  15.738  0.1103 -0.2088  0.1344
12132W        W28606  16.056   8.899   2.000  0.1052 -0.1442  0.0840
12133W        W28607   7.886   2.256   1.803  0.0537  0.1793 -0.3409
12134W        W28608  17.420  18.074   2.693  0.0395  0.1433  0.2677
12135W        W28609  15.281  12.988   2.871  0.2593  0.0799  0.0631
12136W        W28610  15.347  17.369  11.933  0.0725 -0.1026 -0.0000
12137W        W28611   9.364   4.737  12.185 -0.1001  0.0454  0.1312
12138W        W28612   1.188   9.457  15.070 -0.2098 -0.1275 -0.2861
12139W        W28613   4.863  16.961   0.806  0.0816 -0.0291 -0.2043
12140W        W28614   8.430   3.678   2.491 -0.1054 -0.4189  0.1107
12141W        W28615  12.815   1.772  15.225 -0.0902  0.0008  0.1423
12142W        W28616  16.880  14.859  16.198 -0.1186 -0.0573  0.0697
12143W        W28617  17.044  11.807  11.661  0.3252  0.0707  0.0242
12144W        W28618  14.181  12.694  12.476 -0.4243 -0.2143 -0.2518
12145W        W28619  14.745   1.900   0.522  0.2391  0.1070 -0.0403
12146W        W28620  15.162   1.562   5.066 -0.0708  0.1481 -0.2795
12147W        W28621   9.252  13.135  14.066 -0.1980 -0.2654 -0.1749
12148W        W28622  18.086   9.819   1.510  0.0813  0.0170  0.1226
12149W        W28623   3.624  17.470   5.289  0.0992  0.0645 -0.2742
12150W        W28624   9.124  16.650   0.188  0.0392 -0.1386 -0.0617
12151W        W28625  11.539   9.527   0.669  0.0384  0.3303  0.1952
12152W        W28626   1.735   0.539  15.854  0.1661 -0.0203  0.3106
12153W        W28627   3.157   6.948  12.375 -0.1943  0.0329  0.0485
12154W        W28628   5.321  17.411  13.804 -0.1040 -0.1020 -0.0200
12155W        W28629  18.298   9.373   3.204  0.0575 -0.3956  0.1391
12156W        W28630  18.088   8.677  14.602  0.1386 -0.1701 -0.0326
12157W        W28631  17.613  16.724   3.679 -0.3364  0.3268 -0.1222
12158W        W28632  13.695   5.161   1.545  0.2471  0.0582 -0.2645
12159W        W28633  14.875  12.753   3.609  0.1146 -0.1546  0.1931
12160W        W28634   9.021  10.680  13.867  0.0037 -0.0491  0.4396
12161W        W28635  12.490  10.803  11.470  0.0310 -0.0197  0.0914
12162W        W28636  16.587   6.136   4.054  0.0036  0.0753 -0.1386
12163W        W28637  11.100   3.079   5.832  0.2786 -0.0401  0.0350
12164W        W28638  13.330  12.607   0.304  0.2497  0.1006  0.3239
12165W        W28639  15.781  17.379  11.383 -0.0700  0.2917  0.0640
12166W        W28640  15.034   9.826   1.880 -0.2150  0.0033  0.2250
12167W        W28641  11.129   5.014   3.799  0.3577  0.1701  0.1942
12168W        W28642  16.305  10.759  12.318  0.0204 -0.0305  0.2253
12169W        W28643  14.321  12.598   1.180  0.1387  0.3361 -0.0337
12170W        W28644   8.109   4.460  11.273  0.0553  0.0178  0.0152
12171W        W28645  14.285   6.933  11.840  0.1962  0.0856 -0.2236
12172W        W28646   1.726  17.492   2.260 -0.2238  0.2211  0.0025
12173W        W28647   9.224   2.921  14.148  0.0825  0.0028 -0.1388
12174W        W28648   1.548  13.447  13.064  0.2203 -0.0028  0.0225
12175W        W28649  18.098   8.673   0.301  0.2468 -0.3663  0.1973
12176W        W28650   8.109  14.364  12.536 -0.0496 -0.1724  0.0000
12177W        W28651  12.061  18.001   4.888  0.0268  0.0352  0.1025
12178W        W28652   8.856   9.880  12.236  0.2906 -0.4178  0.0538
12179W        W28653   0.429   1.691  15.380  0.1057  0.0971 -0.0460
12180W        W28654  15.506   7.110  16.113  0.0078 -0.0820  0.1074
12181W        W28655  12.465   3.285   4.177  0.3397  0.0742  0.0319
12182W        W28656   3.086   5.352   5.048 -0.0158 -0.0125 -0.3651
12183W        W28657   7.281   5.189   3.774 -0.1428 -0.3652 -0.1220
12184W        W28658  18.003  12.674   5.884 -0.0334  0.1144 -0.2761
12185W        W28659  13.634  12.582   1.166  0.2428 -0.2109 -0.2587
12186W        W28660  13.698   8.291  14.596  0.3590  0.0547  0.1693
12187W        W28661  12.309   0.625   3.859  0.0732  0.2636  0.1534
12188W        W28662   8.576   3.848   5.313  0.0597  0.1650 -0.0936
12189W        W28663   2.144  13.652   3.894  0.1823 -0.0774 -0.1349
12190W        W28664  11.612   0.406  14.476 -0.0512  0.0115  0.2218
12191W        W28665   4.717   3.912   4.148  0.1072 -0.3002 -0.3737
12192W        W28666   6.248  13.315   3.328 -0.0031 -0.0647 -0.0215
12193W        W28667  17.351  12.822   2.975  0.0830 -0.3638  0.2325
12194W        W28668  13.269   4.921   4.980 -0.0067 -0.3683 -0.2352
12195W        W28669  10.073   7.465   0.084 -0.0022 -0.3323 -0.2114
12196W        W28670   6.219   2.377   1.932  0.0308  0.3436  0.0085
12197W        W28671   8.074   0.322   1.626 -0.1086 -0.0023  0.5746
12198W        W28672  15.171   4.096  11.093 -0.0203  0.0776 -0.2891
12199W        W28673  16.022   1.871  14.753  0.0804  0.1858 -0.4206
12200W        W28674   5.245  10.962  15.542 -0.0828 -0.0041 -0.0716
12201W        W28675   7.594  14.456  11.892  0.0803 -0.1132 -0.3224
12202W        W28676  11.676  11.624   4.126  0.1431 -0.0044  0.1859
12203W        W28677  17.362  10.827   4.779 -0.1875  0.2295  0.1929
12204W        W28678   2.827  13.276   3.626  0.0599  0.2902  0.0172
12205W        W28679   1.543   6.671  11.555 -0.0943 -0.2550 -0.4321
12206W        W28680   6.315   3.386  13.023  0.0328 -0.1328  0.0647
12207W        W28681   0.149  12.419   4.103 -0.2231 -0.2177 -0.0142
12208W        W28682  11.525   5.575  14.383  0.0350  0.1979  0.0258
12209W        W28683   0.604  14.259   5.408  0.2394 -0.4208 -0.0166
12210W        W28684   6.720  15.137   2.212 -0.1738  0.0879  0.3057
12211W        W28685  11.077  12.163   3.675 -0.3869  0.0132  0.0992
12212W        W28686   0.175  10.714   2.355  0.0410  0.2390 -0.1457
12213W        W28687   9.568  12.717   0.332 -0.1957 -0.2048 -0.0708
12214W        W28688   7.660  11.492   2.278  0.1019 -0.0331  0.2281
12215W        W28689   3.879   2.028   3.967 -0.0456  0.4123  0.2959
12216W        W28690   8.352   8.518   2.038 -0.0924  0.1678  0.1524
12217W        W28691   9.094   8.953  15.456  0.0089  0.3575  0.1506
12218W        W28692  16.105   9.248   3.403 -0.0968 -0.0097 -0.0797
12219W        W28693   7.973  17.208   4.186  0.1349  0.1247 -0.0168
12220W        W28694   9.206  18.179  11.355 -0.1056  0.2629  0.0572
12221W        W28695   9.027  13.280  14.518  0.0934  0.1922 -0.0906
12222W        W28696   2.080   7.702  15.287  0.0215  0.0091 -0.0671
12223W        W28697  12.418  17.942   2.302  0.0969 -0.0310  0.2373
12224W        W28698  14.963  15.765   4.425 -0.0484 -0.2291  0.0343
12225W        W28699   5.150  18.327   1.319 -0.0225  0.1262 -0.0290
12226W        W28700   3.985  17.715   4.991  0.3776 -0.3842  0.0766
12227W        W28701  13.187   0.467   1.948 -0.0482  0.0355  0.1983
12228W        W28702  15.993   7.938   3.481 -0.2948  0.1875 -0.2430
12229W        W28703  15.629  12.188  12.140  0.0706 -0.0700 -0.0263
12230W        W28704   0.566  17.137  12.986 -0.1904 -0.0235 -0.2081
12231W        W28705   4.223   7.943  11.606  0.1093 -0.1029 -0.0436
12232W        W28706   5.727  17.774  15.526 -0.0274  0.0627 -0.0346
12233W        W28707  12.612  10.715   4.462  0.1568  0.0048  0.2316
12234W        W28708  10.841   4.449  11.491 -0.1496 -0.0827 -0.4104
12235W        W28709   9.808  10.336   4.258 -0.1068  0.0444 -0.0193
12236W        W28710  18.186  15.976   1.036 -0.0264 -0.3636  0.0826
12237W        W28711  12.007  13.243   5.514  0.0396  0.1690  0.0005
12238W        W28712  11.632  14.403   1.143 -0.1170  0.1626 -0.0484
12239W        W28713  13.521   2.053   0.868 -0.0280 -0.2729  0.3738
12240W        W28714   5.875   4.332   0.980  0.0676  0.0583  0.2248
12241W        W28715  11.410   9.167  12.067 -0.0195  0.0601  0.1026
12242W        W28716   8.436   2.086   4.859 -0.0235  0.0071  0.3021
12243W        W28717  13.875   0.961   1.771 -0.2426 -0.1304 -0.2390
12244W        W28718   0.351  11.779   0.234 -0.2057  0.2492 -0.1254
12245W        W28719   5.878  10.889   4.370  0.1346 -0.0478 -0.0035
12246W        W28720   9.505  16.997  15.084 -0.1066 -0.0012 -0.0585
12247W        W28721   2.497  11.800   0.206  0.1089 -0.2453  0.0475
12248W        W28722   0.313   3.295  15.826 -0.1329 -0.2158  0.2510
12249W        W28723   1.330   2.840  13.692  0.0076  0.0929 -0.2431
12250W        W28724  14.377  10.583  11.759  0.2373 -0.2259  0.3432
12251W        W28725   8.929   9.896  14.588  0.1438  0.0636  0.1653
12252W        W28726   4.801   8.058   3.590 -0.1915  0.0856 -0.0251
12253W        W28727   9.854  15.807  12.269  0.0974  0.1491 -0.0652
12254W        W28728   6.172   7.977   2.747 -0.2406 -0.0428 -0.1463
12255W        W28729   6.471  16.423   1.573  0.1024  0.0219 -0.0578
12256W        W28730   9.570   1.984  12.554 -0.0730  0.1896 -0.0830
12257W        W28731   2.108   3.421  15.616 -0.0088 -0.0445 -0.0324
12258W        W28732   5.384   5.590   2.549 -0.3067 -0.0088 -0.0782
12259W        W28733  18.183  14.678   1.972 -0.1111 -0.0378 -0.1012
12260W        W28734   9.916   5.708  11.929 -0.0474 -0.0308  0.3168
12261W        W28735   1.495   5.296   2.597  0.0807 -0.0069 -0.0998
12262W        W28736  15.527  12.048  16.250 -0.1018 -0.0207 -0.1881
12263W        W28737  10.136  12.647  14.906 -0.0984  0.0234 -0.0130
12264W        W28738  15.669  12.076   4.824 -0.3329  0.3179 -0.0474
12265W        W28739   8.276  14.896  12.218  0.2081  0.0927  0.0041
12266W        W28740   6.994   1.788   4.350  0.0669  0.0710 -0.2913
12267W        W28741   0.138  18.250  15.700  0.1188  0.0545  0.2025
12268W        W28742  16.666   3.533   3.437  0.0871 -0.4157 -0.0927
12269W        W28743   0.425   6.647  13.367  0.3239 -0.0739  0.3938
12270W        W28744  17.603   6.345   4.389 -0.1798 -0.1367  0.2961
12271W        W28745  18.050   7.278  12.954  0.1442  0.2821  0.1460
12272W        W28746   6.599   5.027   1.405  0.0969 -0.0341  0.0919
12273W        W28747   3.634   8.542   1.685 -0.0701  0.2836  0.1403
12274W        W28748  15.212  13.832   0.936 -0.0578 -0.1686  0.3259
12275W        W28749  11.194   7.793   0.353  0.0666 -0.0275 -0.2381
12276W        W28750  16.478  10.473  13.355 -0.0584  0.0312 -0.0748
12277W        W28751   6.272  18.023   0.536  0.1375  0.1240 -0.0305
12278W        W28752   5.142   5.614  14.153  0.0605 -0.2285 -0.0383
12279W        W28753   5.474  15.292   3.545  0.3367  0.1366  0.1268
12280W        W28754   9.452  12.945   5.128 -0.3272 -0.0706 -0.0011
12281W        W28755   6.459   5.814   5.560  0.0805 -0.0530 -0.3402
12282W        W28756   2.919   8.624  14.727 -0.0715 -0.0280 -0.1829
12283W        W28757   8.879  12.725   0.777  0.1394  0.2421  0.0133
12284W        W28758   4.597  16.586   2.546 -0.0577  0.1579  0.2334
12285W        W28759  17.091   9.931   0.039 -0.0030  0.3535 -0.0328
12286W        W28760   6.903  17.264  13.956 -0.3355  0.2451 -0.4406
12287W        W28761  17.915   6.737   0.049 -0.1892  0.0527  0.0361
12288W        W28762  15.620   1.984   3.196 -0.1449 -0.0565  0.0013
12289W        W28763   6.969   3.217  13.886 -0.3006 -0.2696  0.4154
12290W        W28764   6.497   3.968  12.412 -0.2076  0.0079  0.0744
12291W        W28765   4.246   5.032  12.582 -0.1391 -0.0868  0.2809
12292W        W28766   9.382  18.034   2.799 -0.0262  0.1183 -0.1475
12293W        W28767  11.880   6.250   1.308 -0.0226  0.3685  0.3429
12294W        W28768  13.551   9.499   5.534  0.0047 -0.0413 -0.4161
12295W        W28769   5.944  13.265   4.824  0.3676 -0.1331  0.2283
12296W        W28770   8.302   5.660   5.371 -0.0549 -0.1965  0.2999
12297W        W28771  12.532  11.062   2.630 -0.2241  0.0453 -0.2020
12298W        W28772  17.841   3.315   2.757  0.0369  0.0255  0.0051
12299W        W28773  15.387  13.985  12.190 -0.2560  0.0865 -0.0851
12300W        W28774  12.346   0.838  15.151  0.2818 -0.1294  0.2441
12301W        W28775  14.641  17.148   3.535 -0.0351  0.2196 -0.0865
12302W        W28776   6.679  14.412  12.088 -0.4354 -0.1081 -0.1366
12303W        W28777  12.494   7.517   1.379  0.1104 -0.0499  0.2269
12304W        W28778   5.587  13.569  15.522  0.1102  0.1741  0.0750
12305W        W28779   2.086   9.926   1.560  0.0149 -0.3353 -0.0293
12306W        W28780   1.225   8.478   4.686  0.3774 -0.3500 -0.1631
12307W        W28781  10.467   5.428  15.010 -0.0981  0.0506  0.0098
12308W        W28782   1.341  11.606  14.583  0.2138  0.2119 -0.4044
12309W        W28783   0.285   7.061   4.442 -0.1232  0.5644  0.3978
12310W        W28784   0.807  17.651   3.932  0.0622  0.1830  0.1378
12311W        W28785   4.750   5.624   3.421 -0.3370 -0.1413 -0.2114
12312W        W28786   3.475   9.477  13.492 -0.0861  0.0326  0.0828
12313W        W28787  16.045  14.234   2.489 -0.0807  0.2523  0.1333
12314W        W28788   0.880   3.472   2.079 -0.0962  0.0204  0.0037
12315W        W28789  11.742   6.969   1.844  0.1347  0.1128 -0.0541
12316W        W28790   1.962  16.559  11.894 -0.2168 -0.1118  0.3102
12317W        W28791  14.471  15.326   4.194 -0.1383 -0.0590 -0.0409
12318W        W28792  11.409  10.954   3.310  0.0541 -0.2758 -0.2308
12319W        W28793   2.483  17.927   2.404 -0.1455  0.0676 -0.1801
12320W        W28794  15.875   5.022   5.636  0.0191  0.4432  0.1280
12321W        W28795  11.891   3.751   0.855 -0.0242  0.1378 -0.0471
12322W        W28796  16.875   8.237   0.741 -0.0933 -0.0150 -0.3865
12323W        W28797  13.705  17.730   4.207 -0.0418 -0.3066 -0.1798
12324W        W28798   3.653   3.065   4.758 -0.4978 -0.1004  0.0006
12325W        W28799  13.663   5.575  16.240 -0.3520  0.0762 -0.1375
12326W        W28800   2.779   5.402  11.766  0.2484 -0.1571 -0.1353
12327W        W28801  16.479   1.547   3.242  0.0549  0.1602 -0.0059
12328W        W28802   6.945  17.059  15.179  0.1958  0.2864  0.0267
12329W        W28803   8.042  16.317  15.465 -0.3128 -0.1379  0.4653
12330W        W28804   7.258   6.746  13.089  0.1279 -0.1248  0.1774
12331W        W28805  16.035   5.593   0.125  0.2749 -0.2017 -0.2618
12332W        W28806   7.999   0.917  14.635 -0.3477 -0.1384  0.0018
12333W        W28807   2.651   1.835  10.197  0.1638 -0.0120 -0.3983
12334W        W28808   7.370  18.291   1.648 -0.2354 -0.0701  0.2169
12335W        W28809   6.231  17.650  15.984 -0.1282  0.2308  0.1826
12336W        W28810   3.148   1.785   4.676  0.1927  0.0094  0.1645
12337W        W28811  13.115  18.297   1.812 -0.1512 -0.0035  0.0077
12338W        W28812   8.385   8.020   2.304 -0.0486 -0.1528  0.2714
12339W        W28813   5.596   0.257   0.160  0.1002  0.2858 -0.0246
12340W        W28814  17.720  13.742  13.096  0.0230 -0.0028  0.1321
12341W        W28815  12.477   6.462  12.576  0.2347  0.0100 -0.1680
12342W        W28816  11.656   9.388   6.280 -0.0266 -0.1775  0.2725
12343W        W28817  14.402  13.016  15.385 -0.0513 -0.0802 -0.2010
12344W        W28818  11.801   0.606   4.958 -0.1819  0.2383  0.0898
12345W        W28819   5.275  12.283   1.132  0.2816 -0.0292 -0.0087
12346W        W28820  18.044  18.031  12.209  0.1398 -0.0269  0.0929
12347W        W28821  16.541   9.988   3.518  0.0384  0.1661 -0.2772
12348W        W28822   7.114  15.824  11.831 -0.0390 -0.1387 -0.0291
12349W        W28823   1.709   5.618  11.312  0.0507 -0.0215 -0.0080
12350W        W28824  10.904   1.510  11.131  0.1383  0.0901  0.0162
12351W        W28825  13.168   2.329  16.201  0.3170  0.3372  0.3893
12352W        W28826   1.117  13.031   1.796 -0.1249 -0.1224 -0.2238
12353W        W28827  15.343  11.967   0.440  0.0733 -0.0437 -0.2056
12354W        W28828  15.607  16.036  13.339  0.2492 -0.0137 -0.0172
12355W        W28829  17.269  10.541  16.325  0.0520 -0.0534 -0.1697
12356W        W28830   6.153   5.840  13.033 -0.3106 -0.0020  0.0321
12357W        W28831   3.797  14.512  11.452  0.0884  0.0277  0.1039
12358W        W28832   6.930   9.183  13.013  0.5199 -0.0461  0.0608
12359W        W28833  13.271   5.581   1.690  0.1045 -0.2420 -0.0964
12360W        W28834  14.652  15.865   1.531 -0.4097 -0.2832  0.3000
12361W        W28835  11.417  13.160   0.525  0.2354 -0.1223 -0.1590
12362W        W28836   7.567  16.286  14.914 -0.2190  0.1824 -0.0974
12363W        W28837   4.807  11.668  15.972 -0.1902  0.1554  0.4089
12364W        W28838  11.073  14.162  14.492  0.1170 -0.1263  0.0468
12365W        W28839  10.652   4.967  12.602  0.0086 -0.0792 -0.1697
12366W        W28840   7.326  17.503   5.826  0.0104 -0.0075 -0.0555
12367W        W28841   4.379  13.004  13.282  0.0363  0.1405  0.1711
12368W        W28842  13.372  13.816   0.763 -0.0833 -0.1520  0.1383
12369W        W28843  10.193   2.072  10.749  0.1379 -0.2452  0.0271
12370W        W28844   7.697   8.411   0.190 -0.3268 -0.2009 -0.0944
12371W        W28845   7.055   2.806   1.011  0.2296 -0.2723  0.2403
12372W        W28846  14.922  13.189  13.259  0.0630  0.2393 -0.2611
12373W        W28847  14.591   7.252  15.999  0.0376 -0.0998  0.1302
12374W        W28848  14.880   9.073   0.190  0.1649 -0.1458 -0.1149
12375W        W28849  14.514  17.605  15.614 -0.1932  0.3883  0.1223
12376W        W28850   3.058  11.217  12.594  0.2075  0.1245  0.0540
12377W        W28851   5.612  15.171  14.423  0.3546  0.2493  0.0910
12378W        W28852  12.994   8.808   3.148 -0.1708  0.0800 -0.0782
12379W        W28853   6.691  17.949  16.041  0.1630  0.0476 -0.1840
12380W        W28854   5.694   5.442   2.020  0.3340  0.2353 -0.1780
12381W        W28855   4.868  11.284  12.767 -0.0943  0.0277 -0.1065
12382W        W28856   9.568  15.926  14.966  0.5622 -0.0213 -0.1940
12383W        W28857   6.384  10.251   3.045  0.2866 -0.1185 -0.1306
12384W        W28858  10.398   7.295  12.413 -0.2115  0.3156 -0.1792
12385W        W28859  12.303  17.700  11.844 -0.0034 -0.0913  0.3073
12386W        W28860   4.737   5.112  11.314  0.1910  0.1796  0.0542
12387W        W28861  14.411   3.657   4.237 -0.0163  0.1226 -0.1313
12388W        W28862   8.975  17.649   5.868 -0.0103 -0.0774 -0.2870
12389W        W28863  18.322   2.564   5.718 -0.1654  0.0984 -0.0187
12390W        W28864   1.634   5.077  11.264 -0.0984  0.0621  0.1179
12391W        W28865   2.182   3.975  12.085  0.0895 -0.1459  0.0690
12392W        W28866  13.535   1.519  12.529 -0.0956  0.1619 -0.0803
12393W        W28867   3.740   8.929   2.087 -0.0104  0.3102  0.2246
12394W        W28868  18.323  15.648  11.963  0.1561  0.1314  0.2277
12395W        W28869   6.199  15.977  10.888  0.0003 -0.1151 -0.2285
12396W        W28870   4.014  12.798  12.990  0.1018  0.0237  0.2718
12397W        W28871  11.269  15.918   5.179 -0.3091 -0.0237 -0.3268
12398W        W28872   4.947  12.491   5.402  0.0332  0.1595 -0.0583
12399W        W28873   8.847  16.105   4.336 -0.0720 -0.3332  0.1525
12400W        W28874   5.150   3.168   2.292 -0.1961  0.0493  0.2613
12401W        W28875   5.737   9.454   5.360 -0.0861 -0.0491  0.0685
12402W        W28876  17.550   2.774  12.966 -0.1491 -0.1998 -0.3513
12403W        W28877   0.456   7.506   4.125  0.0252 -0.1358  0.1222
12404W        W28878   4.141  16.252  13.494 -0.0326  0.2632  0.1949
12405W        W28879   7.123  14.178   1.294 -0.0887  0.3300  0.2901
12406W        W28880  17.143  16.693   0.472 -0.3540  0.1864 -0.2031
12407W        W28881   5.662   1.258   3.164 -0.0295  0.0008  0.1821
12408W        W28882   1.978   4.148  13.501 -0.3735  0.0455  0.0426
12409W        W28883  12.628   0.745   6.082  0.1027  0.0491 -0.0962
12410W        W28884   7.278  18.182   5.248  0.1391  0.1147  0.0922
12411W        W28885   3.101   7.127  13.017  0.1582  0.1102  0.2343
12412W        W28886  17.998   5.245   0.835 -0.0933  0.0445  0.0456
12413W        W28887  15.115   7.583   3.267  0.1373 -0.0833  0.2883
12414W        W28888  13.113   2.235   2.505 -0.2484  0.0914  0.1895
12415W        W28889   9.929   8.911   1.147 -0.4814 -0.2505 -0.3649
12416W        W28890   4.454   5.164  15.219 -0.0107  0.2018 -0.0479
12417W        W28891   6.028  17.764  15.098 -0.1469  0.2547 -0.0668
12418W        W28892  16.282  15.811   3.795  0.0179 -0.1105  0.1616
12419W        W28893   6.501   7.429   5.945 -0.1352 -0.3815  0.1268
12420W        W28894  13.645  14.629  15.647 -0.0176  0.1565 -0.1138
12421W        W28895  11.669   8.059   5.568 -0.1538  0.0513  0.2235
12422W        W28896   2.678  17.125  15.279 -0.1448 -0.3187  0.1401
12423W        W28897   2.746  15.703   2.186 -0.0810  0.3009 -0.1228
12424W        W28898  14.579  11.758   5.585 -0.0187  0.3380  0.2000
12425W        W28899  14.406   4.896  16.193 -0.0004 -0.1059 -0.0519
12426W        W28900  12.993   2.356   1.021  0.2898  0.1685 -0.0612
12427W        W28901  14.290  14.430  11.506  0.2179  0.0655 -0.0536
12428W        W28902  11.818  12.807   3.600 -0.0763  0.0823  0.4060
12429W        W28903   4.917  17.711  13.654  0.1642 -0.2306 -0.3727
12430W        W28904  11.816   0.618   1.892 -0.2836 -0.2093 -0.1665
12431W        W28905   8.626   0.187  14.205 -0.2046  0.2054  0.2853
12432W        W28906  14.535  10.820   4.618  0.1201  0.0761 -0.0171
12433W        W28907  15.392  17.077   3.419  0.1116 -0.0957 -0.1911
12434W        W28908  11.023  15.531   5.048  0.0476 -0.1290 -0.1911
12435W        W28909   5.270   0.426  15.614 -0.0292 -0.3881 -0.3192
12436W        W28910  13.852   4.344   1.913  0.0593 -0.0501 -0.0033
12437W        W28911   6.996  12.804  15.566 -0.2013 -0.3093  0.0876
12438W        W28912  12.901  10.113   0.194  0.1337 -0.0582  0.1463
12439W        W28913  17.729  16.147   1.070 -0.0778  0.2108 -0.0921
12440W        W28914   4.386   7.688   1.132 -0.0356  0.0394  0.0332
12441W        W28915   5.368   4.288  14.159  0.2440  0.2072 -0.3451
12442W        W28916  12.418   9.553  11.674 -0.1704 -0.1859  0.0264
12443W        W28917   8.090  17.673   2.643  0.0662 -0.0538 -0.3506
12444W        W28918  10.440   2.367   4.453 -0.0660 -0.3101 -0.2525
12445W        W28919   3.561   4.344   0.630 -0.3405 -0.3717 -0.1381
12446W        W28920  11.678  17.478  12.680  0.2859  0.3726  0.1081
12447W        W28921   9.641   0.268  11.429 -0.2920  0.0430  0.3511
12448W        W28922   2.998   2.876   1.618 -0.0506  0.1075  0.0427
12449W        W28923  11.417   3.799  12.815  0.1244 -0.1052  0.0874
12450W        W28924   4.840   7.796  15.266  0.0922  0.0929 -0.0814
12451W        W28925  17.547  18.131   3.325  0.0748  0.0282  0.0988
12452W        W28926  12.830   1.351  12.808 -0.0031  0.4073  0.5644
12453W        W28927  15.626  16.273   4.022 -0.3257  0.0656  0.0505
12454W        W28928  18.226  16.201   2.347  0.4917  0.4045  0.0474
12455W        W28929  15.751  10.899  13.601 -0.2882 -0.3050  0.1158
12456W        W28930   1.160  14.490  11.408  0.4537 -0.3363  0.1649
12457W        W28931  15.546  17.193  15.998 -0.1891  0.1228  0.0795
12458W        W28932  13.054  10.795   4.661 -0.1415  0.1412  0.1753
12459W        W28933  18.154   9.625   2.043  0.1818  0.1044 -0.1573
12460W        W28934  15.913   3.754   0.169 -0.2380  0.2978  0.1566
12461W        W28935  16.438   6.197   1.486  0.3276  0.1329  0.2112
12462W        W28936  16.032   5.247  13.377  0.0471 -0.1946  0.0932
12463W        W28937   0.369  18.002   0.374 -0.2917  0.0946  0.1698
12464W        W28938  14.923  16.243   5.301 -0.1821 -0.0001  0.2956
12465W        W28939   1.593  13.142  11.603 -0.1113  0.1923  0.0703
12466W        W28940   7.808  10.666  13.098 -0.2653  0.0133 -0.0354
12467W        W28941   9.942   0.739  15.670 -0.1277  0.0781  0.0452
12468W        W28942  15.582  12.977   3.564 -0.0165  0.0505  0.1412
12469W        W28943   3.275   1.555  14.280  0.0451 -0.3363 -0.0767
12470W        W28944   7.808  12.237  14.971  0.1239  0.1618  0.1264
12471W        W28945   2.882   0.863  13.725  0.5085  0.2785 -0.0942
12472W        W28946  17.200   3.084  13.310 -0.0249 -0.1885 -0.1879
12473W        W28947  11.777  12.090  11.248  0.1498  0.0854  0.3987
12474W        W28948  17.609  16.889  13.518 -0.0341  0.2007 -0.0681
12475W        W28949  16.956   6.845   4.127 -0.2283  0.0331 -0.0458
12476W        W28950   6.786   5.918   2.930 -0.0513 -0.2713  0.1773
12477W        W28951  11.414  12.045   2.573 -0.1131 -0.1750  0.1275
12478W        W28952  11.498   4.480  16.039  0.1409 -0.0687  0.0641
12479W        W28953  10.836  18.239  11.751 -0.0048 -0.3570 -0.5748
12480W        W28954  15.392  15.219  15.562  0.0038 -0.0414 -0.2269
12481W        W28955   6.015   7.183  15.222  0.2792  0.0652 -0.0689
12482W        W28956   2.487  15.055  15.196 -0.0171 -0.1522  0.2021
12483W        W28957  16.659  15.702   3.433 -0.2511  0.1539 -0.0368
12484W        W28958   8.042   6.987  13.442  0.0504  0.2115 -0.1004
12485W        W28959  12.410  13.797   0.947 -0.4554  0.0663  0.0957
12486W        W28960  13.597  11.907   4.036 -0.2435  0.3274  0.1180
12487W        W28961  17.476  10.530   5.431 -0.2291  0.1022 -0.0747
12488W        W28962  10.971   3.928  12.937 -0.0355  0.3280  0.0568
12489W        W28963  10.258  13.653  13.078  0.2214  0.1644 -0.0582
12490W        W28964  12.563  15.968  13.622  0.0233  0.1836 -0.0123
12491W        W28965  16.303  13.411  14.498 -0.1941 -0.1916 -0.3953
12492W        W28966  13.799  12.201  15.492 -0.2062  0.0160 -0.1591
12493W        W28967  10.248   9.870  13.323 -0.2115  0.0618 -0.1365
12494W        W28968   6.482   8.725  16.190  0.1766 -0.4117  0.0742
12495W        W28969  12.955  14.932  11.902  0.0139 -0.2834  0.2063
12496W        W28970  13.730   0.330   2.100  0.2607 -0.1472 -0.0604
12497W        W28971   4.484  14.751  14.122  0.2898 -0.1467 -0.6633
12498W        W28972  14.382   2.466  11.039  0.2652  0.2336  0.2862
12499W        W28973  13.115   5.945   0.999 -0.0140 -0.0320  0.0378
12500W        W28974   7.153   1.569   4.811  0.0033  0.1248 -0.0300
12501W        W28975   9.242  14.574   0.350  0.1390 -0.1701  0.1876
12502W        W28976  14.764  10.064   3.869  0.0390 -0.2401 -0.1690
12503W        W28977  15.840   3.055   0.798 -0.0985 -0.0897  0.2141
12504W        W28978   7.784   7.091  10.821  0.0052  0.1010 -0.0936
12505W        W28979  10.796   0.375   0.397 -0.1694  0.0589  0.1670
12506W        W28980   2.055   8.812   4.132 -0.1926 -0.2907  0.1692
12507W        W28981  12.847   3.780  13.123 -0.1395  0.0061 -0.2159
12508W        W28982   7.828  10.953   3.675 -0.0643  0.1527 -0.2033
12509W        W28983  12.481  10.458   2.649  0.1318  0.3235 -0.2851
12510W        W28984  16.941   7.231   4.564 -0.0406  0.1783  0.1432
12511W        W28985   0.138  13.114  12.729 -0.0383  0.1886  0.1706
12512W        W28986   5.923   7.724  12.302 -0.0500  0.0588 -0.0057
12513W        W28987   7.977  12.068   0.284 -0.0074 -0.2195 -0.0281
12514W        W28988  16.637   3.794   4.079 -0.2527 -0.2652  0.0223
12515W        W28989  17.024   1.337  14.250  0.2021 -0.1924 -0.3433
12516W        W28990  15.472   7.549  15.439 -0.4459  0.3032  0.2957
12517W        W28991  15.238   1.339  13.935  0.2227  0.3167  0.0626
12518W        W28992  17.389   6.573   5.322 -0.0822 -0.0784 -0.0794
12519W        W28993   9.194   7.250   1.632 -0.0965 -0.0226  0.1824
12520W        W28994  18.261  12.338   1.507  0.2012  0.2195 -0.1463
12521W        W28995  14.468  16.449   2.160 -0.1687  0.0720  0.0760
12522W        W28996  17.635   4.929   2.915  0.1454  0.0378  0.2666
12523W        W28997   3.949  12.209  13.163 -0.0484 -0.0347  0.2688
12524W        W28998   9.248  17.824  12.462 -0.0243  0.0859  0.2299
12525W        W28999  12.389  14.747  13.829 -0.0502  0.0537  0.1343
12526W        W29000  17.740  16.545   0.727  0.2307  0.3743  0.0212
12527W        W29001   9.760  17.115   0.586 -0.0155  0.0602 -0.0929
12528W        W29002   9.321   7.372  12.429  0.0441  0.0251 -0.0986
12529W        W29003   9.642  11.768   4.840  0.1530 -0.2498  0.0991
12530W        W29004   1.473  11.075   2.985 -0.0266 -0.3179 -0.0223
12531W        W29005  17.756   6.480   0.660  0.2170  0.1283 -0.0030
12532W        W29006  12.028  11.964   4.368  0.0221 -0.0482 -0.1777
12533W        W29007  12.809   4.079  11.757  0.0742 -0.1324 -0.0576
12534W        W29008  10.243  13.816  11.878 -0.2735 -0.0930 -0.4214
12535W        W29009   1.299   3.409  15.051 -0.2525 -0.0710  0.1973
12536W        W29010   9.126   8.600   1.598 -0.1574 -0.1001 -0.2560
12537W        W29011  10.016  17.535   0.715  0.4329 -0.0687  0.1444
12538W        W29012   0.244  16.597  15.773 -0.1657 -0.0866 -0.0160
12539W        W29013   0.116   1.506  10.880  0.0875  0.0686 -0.0727
12540W        W29014  15.035   6.443   4.664  0.3367  0.0589  0.1444
12541W        W29015  10.414   1.890  11.833 -0.1383 -0.0540  0.1028
12542W        W29016   3.421   9.502   4.892 -0.0580  0.1849  0.1425
12543W        W29017   1.525   4.331   1.800  0.1912 -0.1042 -0.0949
12544W        W29018   3.009  12.995  15.508  0.2297  0.1016 -0.1913
12545W        W29019  15.084  17.684   0.001  0.2330 -0.2580  0.1484
12546W        W29020  12.403   7.635   1.890  0.1416 -0.0524 -0.2276
12547W        W29021  14.112  11.585   5.431 -0.1670  0.1642 -0.0159
12548W        W29022   0.849  17.390  14.404 -0.1553  0.1238  0.1798
12549W        W29023  15.601  10.282   3.905  0.1206  0.0038  0.1608
12550W        W29024   4.428   8.439   3.365 -0.0411 -0.0729 -0.2345
12551W        W29025   7.625   6.806   5.617  0.0963  0.0715 -0.0224
12552W        W29026  14.090  12.952  13.223  0.0102  0.1719  0.0428
12553W        W29027   8.917  14.799  13.428 -0.0967 -0.2561 -0.0653
12554W        W29028  16.135   7.470  13.390  0.1220  0.2211 -0.4796
12555W        W29029  17.546   9.062  12.531  0.2039 -0.1556 -0.2699
12556W        W29030  14.165   9.948   2.047  0.1615  0.0999  0.0481
12557W        W29031   9.727  12.342   2.840 -0.2380  0.0658 -0.0800
12558W        W29032   1.562   5.260  12.640  0.0448 -0.0714  0.2483
12559W        W29033  17.352  11.648   0.564 -0.0743  0.0296  0.5054
12560W        W29034   3.224   6.971  11.248  0.1819 -0.0790  0.0790
12561W        W29035  11.053  15.433   0.388 -0.0981  0.3017 -0.3302
12562W        W29036  18.202   2.671  13.821 -0.3750 -0.0560 -0.0151
12563W        W29037   4.110  11.288  11.297  0.3848  0.0167 -0.1038
12564W        W29038  16.218   5.928  12.040 -0.0811  0.0708  0.0553
12565W        W29039  10.532  16.657  12.329 -0.0025 -0.4823  0.0843
12566W        W29040   0.975   5.945  14.703  0.2437  0.4252  0.0108
12567W        W29041   4.080   9.000  13.952 -0.0553 -0.0297 -0.0845
12568W        W29042   9.655   1.831   0.669 -0.0248 -0.1531  0.1282
12569W        W29043  10.662   2.817   5.164  0.0663  0.0915  0.2485
12570W        W29044   0.133  15.634   5.627  0.1784  0.0168 -0.1773
12571W        W29045   7.815   7.722   0.504 -0.1719 -0.3198 -0.1680
12572W        W29046   0.149  10.071   2.867  0.2482 -0.3111 -0.2501
12573W        W29047   3.924   3.123   1.252 -0.0882 -0.3078 -0.0837
12574W        W29048   7.959   4.944  14.079 -0.1660 -0.2406  0.1235
12575W        W29049  13.299   8.016   3.566  0.2764  0.1056  0.3326
12576W        W29050   7.575  17.159  15.106  0.0948 -0.2439  0.0468
12577W        W29051   5.805  14.187  15.588 -0.2279  0.0696 -0.0596
12578W        W29052   2.017  10.394   5.177  0.0950 -0.1108  0.2130
12579W        W29053   3.455  11.394  15.969 -0.2006 -0.1523  0.1334
12580W        W29054   5.071  10.856   3.898 -0.0564 -0.3336 -0.1218
12581W        W29055   7.321   5.728   2.933 -0.1803 -0.0447 -0.0057
12582W        W29056  17.945  17.599  13.117  0.1618  0.5007 -0.0359
12583W        W29057  16.809   5.436   0.652 -0.0475  0.0976 -0.1700
12584W        W29058   2.407  13.089  15.450 -0.3239  0.0963  0.0230
12585W        W29059   6.224   3.001   1.927 -0.1038 -0.0361  0.3577
12586W        W29060  13.154  17.337  11.952 -0.3049 -0.3210  0.2154
12587W        W29061   3.273   0.289  13.088  0.1371  0.1340  0.2120
12588W        W29062   7.218  17.804   4.264  0.0266  0.2617 -0.2497
12589W        W29063   5.897  11.114  15.061 -0.0579  0.2756  0.4875
12590W        W29064  16.213  13.406   4.239 -0.2358 -0.4815  0.1093
12591W        W29065  11.387   3.587   4.525  0.0396 -0.0222 -0.0984
12592W        W29066  11.391   4.277  12.906  0.2498  0.1664 -0.2412
12593W        W29067  11.754  10.223   1.498 -0.0715  0.1070  0.0782
12594W        W29068   6.962  11.987  12.440  0.0097 -0.4001 -0.0267
12595W        W29069   1.896   6.355   1.129 -0.3908 -0.1617  0.0856
12596W        W29070   5.145   9.672  16.070 -0.2267 -0.2473  0.2304
12597W        W29071  10.335   0.484   3.364  0.0038  0.0814 -0.1545
12598W        W29072   0.240  14.589   2.214 -0.0337  0.0847  0.3630
12599W        W29073   0.993   0.662   4.009  0.1692 -0.3643 -0.1710
12600W        W29074  13.180   7.290   3.051 -0.1032 -0.0133  0.3961
12601W        W29075   3.005  12.385   4.852  0.0948  0.3669 -0.2258
12602W        W29076  17.026  16.977  11.067  0.0518 -0.0629 -0.4708
12603W        W29077   3.888   7.247  12.708  0.0512  0.0756 -0.1955
12604W        W29078   6.622   1.806  14.082  0.0317 -0.0167  0.1245
12605W        W29079   6.766   4.573   5.304  0.0301 -0.0370  0.0392
12606W        W29080   1.670   5.231  13.269 -0.0402  0.2403 -0.1037
12607W        W29081   2.755   6.770  13.102  0.1088  0.1380 -0.0749
12608W        W29082  10.539  15.553  14.636  0.1117 -0.3913  0.1213
12609W        W29083   1.063  14.010   2.282  0.0994 -0.2572 -0.0235
12610W        W29084  16.020   0.102   3.787  0.1427  0.0360 -0.3449
12611W        W29085   5.549  15.048   3.941  0.0348  0.0717 -0.0113
12612W        W29086   2.710  12.553   2.674  0.2175  0.1421 -0.2080
12613W        W29087   3.762   0.006  11.478 -0.0570  0.0661 -0.1076
12614W        W29088   6.855   6.305  13.519  0.0023  0.3171 -0.3065
12615W        W29089  18.164  12.376  12.663 -0.0876 -0.0342  0.2188
12616W        W29090   9.072  15.260   5.216  0.0491  0.0561  0.1341
12617W        W29091  12.861  16.313   5.583  0.0368 -0.0483  0.0415
12618W        W29092   7.215   0.413  16.152 -0.0896 -0.0643  0.1339
12619W        W29093  15.336   5.370  11.864 -0.0029 -0.1847  0.4167
12620W        W29094  16.161  16.084  12.670  0.0306 -0.1024  0.0853
12621W        W29095   8.180   5.471   3.102  0.0831  0.1522 -0.1209
12622W        W29096   4.218   2.172   0.999 -0.2404  0.3114  0.1413
12623W        W29097   3.630  10.653  15.449 -0.1049 -0.0337 -0.1830
12624W        W29098  12.424  17.576   3.556 -0.4080 -0.1129 -0.0420
12625W        W29099   6.930   7.490   4.660 -0.1425  0.1838  0.1544
12626W        W29100  15.855   4.929  14.245 -0.0332  0.1428  0.4080
12627W        W29101   1.256  12.815  15.773 -0.0214 -0.0853  0.2041
12628W        W29102  12.045  18.203   2.028  0.4624 -0.0171 -0.0615
12629W        W29103   9.190   6.973   0.676 -0.0551  0.2941 -0.2186
12630W        W29104   9.035  11.342   0.721 -0.1795 -0.4027 -0.0102
12631W        W29105   1.371  18.224  12.836  0.3339  0.1949 -0.0637
12632W        W29106  18.241  13.271   2.043  0.1065  0.0294  0.0988
12633W        W29107  11.380  10.849  11.645 -0.0739  0.1729 -0.1554
12634W        W29108   2.418   5.507   1.646  0.1365 -0.1705  0.0791
12635W        W29109  18.183   2.044  14.364 -0.0550 -0.1168 -0.3148
12636W        W29110  13.156   8.923   0.212  0.1836 -0.1331  0.0737
12637W        W29111  16.549   6.594  16.048  0.1255 -0.1348 -0.0926
12638W        W29112  10.329   2.981  11.019 -0.0476  0.1335 -0.0896
12639W        W29113  17.735  16.910   1.849 -0.1604 -0.1803 -0.0966
12640W        W29114   4.173  11.754   2.868  0.0599 -0.1495 -0.1884
12641W        W29115   4.680   9.181  11.889 -0.1670  0.1497  0.0810
12642W        W29116  16.931   4.515  10.939  0.0370  0.1808  0.0162
12643W        W29117  11.970  16.307   1.029 -0.1153  0.1110  0.0276
12644W        W29118   0.921   2.638  13.375  0.1564  0.3178  0.2669
12645W        W29119   5.922   2.084   0.430 -0.1802  0.0395 -0.2305
12646W        W29120   8.537  17.680   1.462  0.1647 -0.2457  0.4224
12647W        W29121  10.985  16.135  15.230  0.1650  0.2673 -0.3089
12648W        W29122   8.910  13.882  12.245  0.0605 -0.0895 -0.1493
12649W        W29123   3.880   6.149   1.910 -0.0172 -0.0950  0.1407
12650W        W29124   5.825  17.888   2.731  0.4355 -0.0772  0.3105
12651W        W29125   9.450  16.418   1.909 -0.0172  0.1168  0.0795
12652W        W29126   1.144   2.632   1.788 -0.0231  0.1120 -0.0913
12653W        W29127   8.398   9.738  12.882 -0.0275  0.1041  0.1438
12654W        W29128   9.645   4.791   4.985 -0.0094 -0.1316 -0.0371
12655W        W29129   4.835   6.327  11.855 -0.2341 -0.1162 -0.1826
12656W        W29130   1.707  11.688   2.720  0.2440  0.0244 -0.2674
12657W        W29131   2.099   1.502  11.499  0.0233  0.1139  0.0467
12658W        W29132   7.320   7.528  13.951  0.1662 -0.0262 -0.0404
12659W        W29133   4.764   8.337   2.139 -0.0323  0.0594  0.1654
12660W        W29134  13.801   3.368  13.775  0.2241  0.1969 -0.4093
12661W        W29135   3.419   0.936  11.516  0.1319 -0.4122  0.1663
12662W        W29136   6.660   0.150  10.843  0.2237  0.1997  0.1997
12663W        W29137   7.823  10.093   2.951  0.1103 -0.0883 -0.1681
12664W        W29138   5.937   0.872   3.220  0.0041  0.0223 -0.0721
12665W        W29139   2.325   4.243  13.026  0.1822 -0.5952  0.2265
12666W        W29140   7.467  12.985   4.253  0.1259  0.1026  0.0111
12667W        W29141  11.620  12.220   2.995  0.2389 -0.1837  0.2381
12668W        W29142   8.146   7.424   3.945 -0.1586  0.0144  0.1426
12669W        W29143   7.120   5.268  16.086  0.2639 -0.2243 -0.0171
12670W        W29144  10.038  13.230  15.428 -0.0993 -0.2993  0.1268
12671W        W29145   4.044   9.275   0.142 -0.0219 -0.0906 -0.4152
12672W        W29146   7.670   6.540  14.808 -0.2213  0.1041 -0.0357
12673W        W29147   3.049   9.905  15.147  0.2498  0.1675  0.0883
12674W        W29148  14.290   6.741   4.393  0.0540  0.1968  0.1063
12675W        W29149   5.209   6.274  13.400 -0.2794  0.1765 -0.0834
12676W        W29150  11.340   2.886  11.293  0.1160  0.0289  0.0283
12677W        W29151  11.538   5.105  14.208 -0.0588 -0.1849 -0.1875
12678W        W29152  15.822  12.454   4.507 -0.0093 -0.1854  0.3976
12679W        W29153  12.275  16.236   0.598  0.1988 -0.1640  0.1139
12680W        W29154   8.221   0.896   4.251 -0.2116  0.0827  0.2869
12681W        W29155  17.670   7.446  12.634  0.0523 -0.4580 -0.0075
12682W        W29156  11.520  11.309   1.712  0.1913 -0.0758 -0.0394
12683W        W29157   1.060  14.178   0.954 -0.0431 -0.3277  0.0087
12684W        W29158  17.445   5.011   0.432 -0.1309 -0.0528  0.1661
12685W        W29159  10.435  14.606   2.358  0.4282 -0.2126 -0.4468
12686W        W29160   6.492  17.893   1.414 -0.0017  0.1491 -0.2096
12687W        W29161  11.292   6.482  13.847 -0.1810 -0.1961  0.0669
12688W        W29162  13.101   6.359   5.618  0.0613  0.0407 -0.1754
12689W        W29163   8.204  12.291  15.255  0.0520  0.1946  0.2080
12690W        W29164   8.980   2.961  13.725  0.1166 -0.0523  0.1914
12691W        W29165  15.921  10.039   2.592 -0.2589 -0.0582 -0.0676
12692W        W29166  15.286   7.128  13.509 -0.6002  0.0848 -0.4085
12693W        W29167  12.608  14.203   2.217 -0.0328  0.1325  0.0122
12694W        W29168   9.988  12.127   4.384 -0.0537  0.0356 -0.0551
12695W        W29169  14.308   1.836   3.482 -0.1689  0.2560 -0.0736
12696W        W29170  12.239   3.997  14.543  0.2373  0.0627 -0.0155
12697W        W29171  11.272   0.062  12.506 -0.2082  0.2037 -0.0348
12698W        W29172   4.473  11.100  15.584 -0.1080  0.2970  0.0932
12699W        W29173   4.076  12.513   0.596 -0.2946  0.0240  0.0630
12700W        W29174   5.392   3.476  13.942  0.0841  0.0102  0.0718
12701W        W29175   3.205  10.003   0.352 -0.1222 -0.0072 -0.1561
12702W        W29176  12.687  11.106   3.479 -0.1912 -0.1167  0.1823
12703W        W29177   9.478   5.358   4.009  0.3995 -0.4539  0.1914
12704W        W29178   8.142  14.025  14.265  0.0861  0.1640 -0.0283
12705W        W29179   9.059   6.218  12.694 -0.1224 -0.2038 -0.0514
12706W        W29180   5.710  12.721  12.106 -0.0496  0.0274 -0.0247
12707W        W29181   6.586  11.613  13.806 -0.1039  0.2448  0.1276
12708W        W29182   8.765   0.186  15.270 -0.1183 -0.1371 -0.2067
12709W        W29183  15.027   4.456   5.833 -0.1009 -0.1002  0.2007
12710W        W29184   2.167   3.146  14.099 -0.0190 -0.0701 -0.1680
12711W        W29185   2.556  11.097  15.757  0.2010  0.3145  0.0055
12712W        W29186  12.142   9.819   4.603  0.1304  0.1993 -0.1030
12713W        W29187   9.641   9.927   3.469 -0.0450  0.0060  0.0114
12714W        W29188  16.499  14.465   4.490 -0.0043 -0.2901  0.0214
12715W        W29189  11.836  11.745  13.601 -0.1121  0.1634  0.1654
12716W        W29190   4.483   2.771  11.150 -0.0556 -0.2594 -0.3699
12717W        W29191  18.221   0.394  15.860 -0.2381 -0.0547 -0.4416
12718W        W29192   6.683  16.672   0.198  0.0900 -0.0131  0.0647
12719W        W29193   1.706  11.446   3.816  0.0878 -0.2219 -0.2185
12720W        W29194   0.371   1.292   5.479 -0.0581  0.1235 -0.0432
12721W        W29195   3.337   8.550   2.452  0.2392 -0.0769 -0.3109
12722W        W29196  13.014   7.892  15.277 -0.1605  0.2662  0.1542
12723W        W29197  11.039   6.164  12.552 -0.3329 -0.0156  0.0472
12724W        W29198   1.777  16.778   4.760 -0.0114  0.1004  0.1028
12725W        W29199  15.888   4.782  14.882 -0.0151 -0.1542 -0.0156
12726W        W29200  13.492   0.321   3.937 -0.1955  0.0788  0.0438
12727W        W29201  16.978   6.167  14.134 -0.0284  0.0599  0.0468
12728W        W29202  13.518  10.152  12.811  0.1054  0.0597  0.5124
12729W        W29203   6.178   5.002  14.959  0.3432 -0.0422  0.1065
12730W        W29204   8.084  11.130  13.034  0.4609 -0.0799 -0.3172
12731W        W29205   5.477   7.337   0.140 -0.4360  0.3599  0.2432
12732W        W29206  11.445  11.276   0.049  0.5093  0.0569 -0.0470
12733W        W29207   7.422   3.897  13.457  0.0552 -0.3886 -0.0734
12734W        W29208   6.352   9.156   1.733 -0.0355 -0.0606  0.1139
12735W        W29209   0.037   6.658  13.643  0.1916  0.1225 -0.1895
12736W        W29210   8.071  17.154  15.963  0.1437 -0.0892  0.1878
12737W        W29211  13.936   1.220  14.224 -0.0877  0.2401 -0.0940
12738W        W29212  15.770  12.438  12.576  0.3448  0.1899  0.1438
12739W        W29213  17.487   9.269  13.311 -0.1630 -0.1850 -0.1366
12740W        W29214  10.737   8.739   0.864 -0.0245 -0.0242 -0.0359
12741W        W29215  15.007  17.894   2.195 -0.0177  0.1169  0.3818
12742W        W29216   9.645   9.539   0.688  0.0629  0.0503  0.1956
12743W        W29217   0.262   9.384   0.508 -0.0485 -0.0814 -0.1117
12744W        W29218   2.527  10.788   2.150 -0.2395 -0.0327  0.0195
12745W        W29219   7.004  13.163   3.950  0.0230  0.1976 -0.1166
12746W        W29220   9.466  13.660   1.320  0.1071 -0.2927  0.2140
12747W        W29221   3.289   6.269   3.291 -0.0513  0.2637 -0.0721
12748W        W29222   5.362  15.323  12.712 -0.2119 -0.0586  0.0461
12749W        W29223   0.475  15.057   4.767  0.3407  0.0906  0.2280
12750W        W29224  15.168   7.683  14.268 -0.2070  0.1904  0.0813
12751W        W29225   9.305   5.627  13.988  0.1373  0.1420  0.2092
12752W        W29226   6.753   9.481   2.327 -0.0103  0.0454  0.2404
12753W        W29227   9.841   3.877  14.162  0.1047  0.2274 -0.1443
12754W        W29228   0.951   2.835   4.615 -0.0945 -0.2143 -0.1038
12755W        W29229  17.037   9.532  10.256  0.0095 -0.1025 -0.1273
12756W        W29230  13.954   7.924  16.223 -0.2505  0.0751  0.0953
12757W        W29231   6.393   2.610  14.152 -0.0358 -0.0762 -0.0281
12758W        W29232   4.644   7.262   5.479  0.0552  0.3177 -0.1203
12759W        W29233  14.114   4.186  13.247  0.1101  0.1298 -0.2413
12760W        W29234   1.800   5.030   0.349  0.1261  0.1340 -0.2176
12761W        W29235   0.300   3.388   5.554  0.1129  0.1154  0.1901
12762W        W29236   7.901  12.303   3.201  0.2695 -0.1091 -0.1622
12763W        W29237   1.482   3.430  16.296 -0.0034  0.0252 -0.0561
12764W        W29238  11.932  13.615  16.297  0.0663 -0.0679 -0.0536
12765W        W29239  11.031   2.428  15.824  0.2297  0.1406  0.0821
12766W        W29240  11.690   9.571  12.299 -0.0589  0.0981 -0.2335
12767W        W29241  14.446  15.769   6.063 -0.1515  0.0254  0.2285
12768W        W29242  10.558  17.189   5.348  0.1082  0.3125 -0.2497
12769W        W29243  13.165   9.241   3.569 -0.3223 -0.1793 -0.1118
12770W        W29244  15.410  16.991  13.770  0.1075 -0.3104 -0.0545
12771W        W29245  12.053  10.527  11.518  0.4489  0.1780 -0.1695
12772W        W29246  16.096   2.960   3.882 -0.3746 -0.1353 -0.1880
12773W        W29247   7.741   9.293  11.664  0.2272 -0.0701 -0.1552
12774W        W29248  10.152  10.552   3.964  0.0213 -0.1164  0.5684
12775W        W29249   6.918   7.002   3.108  0.1154  0.0660  0.2854
12776W        W29250   6.029   5.449   2.458 -0.1115 -0.0406 -0.1670
12777W        W29251  17.518   3.461  13.447 -0.1009 -0.0780 -0.0431
12778W        W29252  16.715   3.770  13.842  0.3033 -0.1321 -0.2575
12779W        W29253   1.011   3.991   0.002  0.0534  0.1407 -0.3334
12780W        W29254   8.307  13.497  15.330 -0.1305 -0.4015  0.2044
12781W        W29255   9.956   0.946   0.507  0.1572 -0.0445 -0.0676
12782W        W29256   5.297   6.554  12.135  0.4514 -0.1507 -0.0977
12783W        W29257   5.506  17.225  11.057  0.0397 -0.2648 -0.0422
12784W        W29258  16.742  16.945   0.653  0.0495 -0.1059  0.3501
12785W        W29259   1.363  14.267   0.125 -0.1488 -0.0473 -0.1017
12786W        W29260   1.483   9.612   3.701 -0.0946 -0.1439 -0.3867
12787W        W29261  16.772   4.055  12.956  0.0633 -0.1673 -0.0099
12788W        W29262   2.623   5.637  11.297  0.1560 -0.1040 -0.0351
12789W        W29263   2.987   2.867   4.354 -0.0631  0.4871 -0.3358
12790W        W29264   7.531   1.211  14.882  0.1169 -0.0458 -0.0952
12791W        W29265  13.264  11.483  13.650 -0.2880 -0.3119  0.1608
12792W        W29266   9.129  15.896   5.931 -0.1926 -0.0590 -0.0816
12793W        W29267  15.021   5.629   2.146 -0.0786 -0.2319  0.3294
12794W        W29268   7.287  12.665   1.307 -0.0386 -0.2634  0.3383
12795W        W29269  13.986  13.415  13.216  0.3494 -0.0724 -0.0056
12796W        W29270  10.281   7.531   5.532  0.0399  0.0358  0.0764
12797W        W29271  11.300  13.001  13.466  0.1738 -0.0892 -0.0447
12798W        W29272   5.562  16.876  15.011 -0.0815  0.3750  0.2838
12799W        W29273  11.582   6.237  11.662  0.1694  0.0035 -0.1567
12800W        W29274   6.225   5.299   1.138 -0.1542  0.2323  0.0598
12801W        W29275   0.366   8.991   4.936  0.1158  0.3419 -0.4391
12802W        W29276   3.794   1.659   4.315  0.0537 -0.0724  0.0432
12803W        W29277  14.202  15.007   3.839  0.0412 -0.0195  0.1461
12804W        W29278   8.168  10.844   1.865 -0.0182 -0.2697 -0.0050
12805W        W29279  16.340   6.661  15.544  0.1398  0.2958 -0.0883
12806W        W29280   4.633   6.274   2.618  0.1026 -0.1571 -0.3002
12807W        W29281   4.833   1.100   0.701  0.1109 -0.0351  0.0248
12808W        W29282  10.522   8.379  13.808  0.0008 -0.1885 -0.4004
12809W        W29283   9.553  10.204   5.699  0.0512  0.1981 -0.1355
12810W        W29284   7.832   8.193  11.628 -0.2506  0.0551 -0.1735
12811W        W29285   5.514   4.590  11.096  0.2619 -0.1754 -0.0480
12812W        W29286   0.097  17.080   0.240 -0.0400 -0.0060  0.1049
12813W        W29287  14.871   8.624  11.972 -0.3415  0.0816 -0.0729
12814W        W29288  12.969   4.083  15.443 -0.1532 -0.0525  0.0671
12815W        W29289  10.967   5.767   2.642  0.0879 -0.0298 -0.2313
12816W        W29290  16.435  11.905   1.616  0.1575 -0.2502  0.3363
12817W        W29291   9.837  17.355  11.214 -0.1809  0.1318 -0.1770
12818W        W29292   6.374  14.086  14.332  0.2760 -0.0440  0.2662
12819W        W29293   0.243   9.571   5.766 -0.2458  0.0809  0.1053
12820W        W29294   9.822  14.422   5.122  0.0151  0.2004 -0.2072
12821W        W29295   1.992   2.892  15.544 -0.1232 -0.4003  0.1000
12822W        W29296  16.254  16.478  15.829 -0.1378  0.2093  0.2978
12823W        W29297  15.962  18.190   4.293  0.1422 -0.0009 -0.0415
12824W        W29298  10.081   3.201   0.302  0.2936 -0.1035 -0.0786
12825W        W29299   7.589  15.100  13.978 -0.0368  0.1443 -0.1051
12826W        W29300   7.313  16.578   1.300 -0.0903  0.3519  0.1959
12827W        W29301  11.941   2.601   4.502  0.3028 -0.5303  0.1817
12828W        W29302   5.043   4.891   2.390  0.0835 -0.3156  0.1435
12829W        W29303   3.438   9.072  16.248 -0.0832 -0.2019 -0.0188
12830W        W29304   8.006  15.790  15.457  0.1665 -0.0133  0.4478
12831W        W29305  10.789   0.951   0.832 -0.0868 -0.1502  0.1721
12832W        W29306   8.019   2.771   3.233  0.0319 -0.1462  0.1983
12833W        W29307   8.833   5.633  16.074  0.0946 -0.0715  0.1021
12834W        W29308   0.769  16.332   1.995  0.3912 -0.2481  0.0996
12835W        W29309   0.857   2.167   4.315 -0.4311  0.2639 -0.1329
12836W        W29310  15.747   2.297   2.278 -0.0006 -0.1135  0.1855
12837W        W29311  16.976  18.207   3.924 -0.1756  0.1295 -0.1650
12838W        W29312   6.904   8.327   4.884 -0.1248 -0.0071 -0.2169
12839W        W29313   7.823   7.505  15.046  0.3281 -0.1502 -0.0775
12840W        W29314  12.539   1.366  13.858 -0.0507  0.0601  0.0824
12841W        W29315   5.860   5.055  15.443  0.3338 -0.0341 -0.1504
12842W        W29316   3.155   7.328   0.912 -0.2301  0.3893  0.0407
12843W        W29317  16.892   0.179  11.060  0.2002 -0.1284  0.2421
12844W        W29318   0.674  11.807  13.017 -0.0290 -0.2205  0.0738
12845W        W29319   1.840   3.080   3.577  0.1926 -0.1871  0.0191
12846W        W29320  17.947   6.771  10.378  0.0689 -0.1368 -0.0167
12847W        W29321  14.634  12.628  14.362  0.1243 -0.0772 -0.0753
12848W        W29322   9.717  12.396  14.631  0.0195 -0.1013  0.1318
12849W        W29323   4.798   7.311   5.971  0.2340 -0.0680 -0.3835
12850W        W29324  13.801   8.705   1.663 -0.0511 -0.0639 -0.3677
12851W        W29325   5.344   4.033   3.565 -0.0832  0.2580  0.2179
12852W        W29326   6.977   7.719  12.249  0.2184 -0.1682  0.1232
12853W        W29327  17.024   3.033   5.290 -0.5890  0.2443 -0.0815
12854W        W29328  17.322   4.040  11.523  0.0178 -0.3362  0.0385
12855W        W29329   8.089  16.240   1.603 -0.0317 -0.1380  0.2491
12856W        W29330   9.876   7.195  15.556  0.0465  0.0837 -0.1328
12857W        W29331   5.551   5.089  11.886 -0.1073  0.1639 -0.2104
12858W        W29332  11.962  13.765  14.028 -0.1186 -0.0789  0.0284
12859W        W29333   2.436   0.818  12.920 -0.3808  0.2271 -0.0628
12860W        W29334  14.682   5.921  14.135 -0.1057 -0.1984  0.1996
12861W        W29335  18.307   8.819  11.688 -0.1462  0.3808 -0.0820
12862W        W29336  11.528  16.527  13.640 -0.0915 -0.1804  0.0598
12863W        W29337   4.033   1.200   4.631 -0.0728  0.2814 -0.2573
12864W        W29338  15.064   5.859  15.676  0.1334  0.0117 -0.0378
12865W        W29339   7.169   8.189   0.241  0.4098  0.0798 -0.1420
12866W        W29340   7.231   2.925  12.668 -0.0599 -0.2808  0.4077
12867W        W29341   0.643   4.990   2.591  0.0560  0.1075 -0.1289
12868W        W29342  14.183  16.890   2.031  0.3268  0.2351  0.0292
12869W        W29343  15.374  13.181   5.201 -0.0149  0.0333 -0.3741
12870W        W29344   8.997   0.713   3.989  0.0223 -0.2035 -0.1947
12871W        W29345  12.618  16.497  11.568  0.1341  0.0034  0.0966
12872W        W29346  11.945   9.240   0.541  0.1771  0.1436  0.1954
12873W        W29347  17.620  16.574  15.503  0.0282 -0.5131  0.0111
12874W        W29348   3.600  15.661   1.833  0.0076 -0.0613  0.1473
12875W        W29349   1.762   6.028  15.356 -0.0115  0.1045 -0.2173
12876W        W29350   9.028   4.657   4.074 -0.0409  0.1521  0.2607
12877W        W29351  17.018  13.866  16.049 -0.0443 -0.0971 -0.1530
12878W        W29352  13.172   8.695   0.680  0.0649 -0.1926  0.0840
12879W        W29353   6.191  12.334   5.354  0.0392 -0.0377 -0.0149
12880W        W29354   2.681   1.930   5.403 -0.2163 -0.1758 -0.2893
12881W        W29355  18.211  10.388  16.080  0.2649  0.1315 -0.1593
12882W        W29356   8.408   9.050   0.297 -0.1146  0.0887  0.1213
12883W        W29357  10.706   8.180   4.583  0.1415  0.0804  0.1179
12884W        W29358  11.774  17.631   3.233 -0.0601  0.1667  0.2211
12885W        W29359  13.276   5.714  14.052  0.0394 -0.0799  0.1073
12886W        W29360  17.513   2.398   2.230  0.3413 -0.0149 -0.0514
12887W        W29361   6.902   2.693   2.653 -0.3959 -0.0220 -0.1294
12888W        W29362  16.228   0.278   4.359  0.3522 -0.0415 -0.2628
12889W        W29363  13.963  10.729   5.271  0.2167 -0.0569  0.2372
12890W        W29364  11.234  12.695   0.500 -0.0009  0.0510  0.0002
12891W        W29365  12.318  12.963   3.384 -0.0283 -0.2526  0.2961
12892W        W29366  15.989   0.841   4.230 -0.0003 -0.0157 -0.1769
12893W        W29367   1.296  12.645  12.343 -0.2876  0.0153  0.0730
12894W        W29368   8.602  11.004   2.144  0.0969 -0.1543 -0.1369
12895W        W29369  15.440  13.697   4.616 -0.0032 -0.0192 -0.4472
12896W        W29370  10.052  17.848  12.115 -0.0009 -0.0924  0.0865
12897W        W29371   3.746  13.470   1.016 -0.1102  0.3004 -0.2779
12898W        W29372  12.363   9.584   5.010 -0.0614 -0.0720 -0.4332
12899W        W29373   1.596  11.596   4.741  0.1337  0.2730  0.1747
12900W        W29374  12.048  11.230   0.937 -0.1647  0.2035 -0.0710
12901W        W29375   8.624   5.897  12.576 -0.0201 -0.0425 -0.2667
12902W        W29376  11.035  10.168  13.631  0.2145 -0.0256 -0.2455
12903W        W29377  15.544   5.715   0.263  0.1032 -0.1312 -0.0753
12904W        W29378  16.370  15.610  12.767  0.3871 -0.0614  0.0968
12905W        W29379  10.321   2.535  12.232  0.2526 -0.1520  0.1901
12906W        W29380   5.577  12.533   2.264  0.0786 -0.2105  0.1160
12907W        W29381   8.431  10.353   4.357  0.0679 -0.1400 -0.0531
12908W        W29382   5.497  16.165  11.612  0.1561  0.2285  0.1472
12909W        W29383  16.189  10.173  12.313 -0.1370  0.0728 -0.0124
12910W        W29384  12.155  14.938  12.140  0.3795 -0.1115  0.0773
12911W        W29385  13.385  10.713  14.380  0.0177  0.2032  0.1166
12912W        W29386   7.264   1.180  15.584  0.1572  0.1849  0.2451
12913W        W29387   1.227  17.202   1.979  0.2728  0.0716  0.1064
12914W        W29388  11.492   9.152  13.122 -0.2979 -0.0947 -0.0034
12915W        W29389   1.369  15.919   3.887  0.2126 -0.0004 -0.0036
12916W        W29390  11.287   2.967  13.053 -0.1686 -0.2374 -0.0040
12917W        W29391   9.958  14.526  15.512  0.1880 -0.1427 -0.0851
12918W        W29392  17.570  13.746  14.053 -0.1870  0.2778  0.2724
12919W        W29393   3.058  10.481   0.071 -0.2965 -0.0221 -0.1913
12920W        W29394   4.826   0.506  13.404 -0.0803 -0.0309  0.0699
12921W        W29395   7.245   5.595   2.038 -0.2087  0.4937  0.0080
12922W        W29396  16.092   4.418  14.409 -0.0903 -0.0991 -0.0752
12923W        W29397   5.121  18.182   0.772  0.0224 -0.1170 -0.1063
12924W        W29398   7.692  17.054  12.424  0.2642 -0.2449 -0.0915
12925W        W29399   6.966   2.067  13.194  0.0063 -0.0075  0.7635
12926W        W29400   4.711  11.674   4.022  0.1556  0.0869  0.4289
12927W        W29401   2.197   8.196  12.675  0.0149 -0.0788  0.3515
12928W        W29402  16.414  12.058  15.837  0.1033  0.3485  0.2286
12929W        W29403   0.384   2.493  14.191  0.1208  0.1197  0.0866
12930W        W29404   3.442   1.151   1.780  0.0145 -0.0361  0.0908
12931W        W29405  14.795  16.277   3.582 -0.0513 -0.1036 -0.0087
12932W        W29406   2.641   3.090  14.714  0.0198 -0.2023  0.3006
12933W        W29407  16.609   0.830  15.593 -0.0047  0.0458 -0.2324
12934W        W29408   1.601   2.202  11.163  0.0297 -0.0726 -0.0716
12935W        W29409   2.756   3.678  14.780  0.0259 -0.0187 -0.2597
12936W        W29410  12.294  10.290   3.061  0.2028 -0.2991 -0.1538
12937W        W29411   5.527  16.527  15.927 -0.0155  0.2265  0.1210
12938W        W29412  14.980  12.493   2.744 -0.0617  0.0492 -0.0192
12939W        W29413   0.869  14.190  12.824 -0.1633  0.1762 -0.2039
12940W        W29414   7.916   1.816  12.377  0.1388 -0.3481  0.1903
12941W        W29415   1.459  18.231  11.974 -0.1401  0.1301  0.2369
12942W        W29416   6.535  10.792   3.249 -0.0088 -0.1362  0.0546
12943W        W29417   2.230  12.308  15.229  0.0260 -0.1921 -0.3688
12944W        W29418   4.134  13.060  13.682 -0.3713  0.1278 -0.1007
12945W        W29419   0.144   2.985  14.282 -0.0379 -0.0753  0.1907
12946W        W29420   6.704   3.655   0.798 -0.3500  0.1282 -0.2285
12947W        W29421  13.091   2.208   0.555 -0.0869 -0.2317 -0.0125
12948W        W29422  17.453  13.601   0.848  0.1101 -0.0583  0.0492
12949W        W29423  12.519  15.696  11.434 -0.2309 -0.1467  0.0648
12950W        W29424   0.826   9.531   0.256 -0.0339 -0.2404  0.3198
12951W        W29425   4.524   8.457  15.980  0.0149  0.0489  0.3963
12952W        W29426  16.676  16.848   1.149  0.2455 -0.1031 -0.0966
12953W        W29427  17.081   2.073   5.220 -0.1752  0.0597 -0.0237
12954W        W29428  15.958  15.768  14.983  0.1554 -0.2255  0.2135
12955W        W29429  12.775  16.206  12.268  0.3572  0.3323  0.2505
12956W        W29430   2.978   0.643   1.615 -0.1127 -0.1315 -0.1032
12957W        W29431  11.834   1.150  13.457 -0.1427  0.0346  0.1706
12958W        W29432  14.993  11.815  12.823  0.0336  0.1741 -0.0421
12959W        W29433  12.876   3.955   4.661 -0.1426 -0.2752  0.5928
12960W        W29434  16.555  10.653   1.707 -0.1455 -0.0434 -0.2014
12961W        W29435  11.463   8.307   0.778 -0.3091  0.0659 -0.2546
12962W        W29436   7.032  11.914   1.391 -0.2176  0.1208  0.2836
12963W        W29437  12.034   7.652   5.940 -0.1056 -0.3858  0.0261
12964W        W29438  10.181   5.028   3.979  0.0194  0.0448 -0.1128
12965W        W29439   8.791   4.139   2.797  0.2765  0.1446 -0.1094
12966W        W29440  14.408   8.019  15.886 -0.0165 -0.0764 -0.1139
12967W        W29441   3.925  17.821  11.226 -0.2684 -0.0593  0.0184
12968W        W29442   6.299   5.434  13.321 -0.0763  0.1601 -0.1795
12969W        W29443   5.528  15.282   1.209  0.1017 -0.2185 -0.1716
12970W        W29444   1.062  13.440  13.293 -0.4940 -0.2147 -0.1664
12971W        W29445   6.485  12.600  12.847  0.4194 -0.0922  0.0340
12972W        W29446   3.151  16.750   2.060  0.2771 -0.0905  0.2374
12973W        W29447  10.369   8.229   2.707  0.0506 -0.1708 -0.0028
12974W        W29448   0.779   2.478   2.119  0.0587 -0.0611 -0.1127
12975W        W29449   7.632   9.173   4.149  0.0116 -0.0689  0.0202
12976W        W29450  12.474   7.316  12.808  0.2376 -0.0253 -0.0703
12977W        W29451   6.235   6.057   3.420 -0.0260  0.1734  0.0482
12978W        W29452   9.939  18.110   1.287  0.1571  0.0778  0.2534
12979W        W29453   8.777  12.263   5.438  0.1536  0.1024  0.1512
12980W        W29454   2.212  10.394  14.712 -0.0290 -0.2345  0.0540
12981W        W29455   1.879   1.563   3.561  0.3204 -0.1394 -0.5097
12982W        W29456   7.991   1.387  11.963  0.1722  0.3318 -0.0177
12983W        W29457   9.046  18.109  15.477  0.0353 -0.2293  0.2695
12984W        W29458  15.700   9.537   1.307  0.0214  0.3848 -0.1702
12985W        W29459  16.950   3.408   3.838 -0.0102 -0.1869 -0.0370
12986W        W29460   1.930  12.408   4.400 -0.1483  0.0443  0.1738
12987W        W29461   9.579   2.652  13.757 -0.2851 -0.2581 -0.0239
12988W        W29462  15.793   0.534   4.561  0.1028 -0.2042 -0.2001
12989W        W29463   7.929  14.075  14.714  0.3286 -0.0129 -0.4823
12990W        W29464  12.297  16.621  14.299 -0.0950 -0.2205  0.1367
12991W        W29465  17.116   8.663   1.013 -0.1480  0.1915  0.1485
12992W        W29466   2.999   6.994   5.668 -0.0811 -0.1834  0.0507
12993W        W29467  12.199   5.669  16.043 -0.0361 -0.6734  0.2291
12994W        W29468  17.518  15.674   1.481 -0.0059 -0.0290 -0.0353
12995W        W29469  12.221  10.091   5.096  0.0942 -0.2839 -0.0991
12996W        W29470   6.844  15.030  15.037 -0.0691  0.1024 -0.1819
12997W        W29471   7.263   3.255  13.208  0.0954  0.3584 -0.2324
12998W        W29472   7.713   7.648   4.076  0.1428 -0.0154 -0.0124
12999W        W29473   9.093  16.566   4.476 -0.2602  0.1803  0.1759
13000W        W29474   3.146  13.672   4.169  0.0407 -0.2658 -0.2427
13001W        W29475   3.885  12.754   2.079  0.0129  0.1288 -0.0023
13002W        W29476   6.339   7.184  12.461 -0.1511 -0.0544 -0.1337
13003W        W29477   6.093   7.468   5.490 -0.1779  0.2427  0.1658
13004W        W29478   9.209   5.934  15.273 -0.0205 -0.0280  0.0588
13005W        W29479   9.204  10.820   3.686 -0.1631  0.0098  0.0820
13006W        W29480   0.512   7.683   1.526 -0.0182 -0.0961 -0.2443
13007W        W29481  11.907   4.118  12.896 -0.0141  0.2248 -0.2918
13008W        W29482   1.349   2.396  13.395  0.0313 -0.2467  0.1793
13009W        W29483   1.531   3.908  13.590 -0.0755 -0.1668 -0.0707
13010W        W29484  13.545  16.284   3.821 -0.1171  0.0201  0.1324
13011W        W29485  10.088  16.816  13.636  0.0526  0.1778 -0.1870
13012W        W29486   1.446  16.319  13.493 -0.0105 -0.4041  0.1249
13013W        W29487   6.330  16.833   1.262 -0.1706 -0.0462 -0.2074
13014W        W29488   6.852  16.834  12.070 -0.1336 -0.1077 -0.1314
13015W        W29489   5.266   0.836   1.733 -0.2607 -0.0024  0.1887
13016W        W29490  15.570   6.527  15.321  0.3327 -0.0623  0.0882
13017W        W29491   3.860   9.136  10.283 -0.1640 -0.2800 -0.0191
13018W        W29492   5.100  16.303  11.942 -0.3168 -0.0907 -0.1417
13019W        W29493   9.936   0.522   2.711 -0.2277  0.1089  0.0704
13020W        W29494  15.295  17.818   2.993 -0.0242 -0.1037  0.2432
13021W        W29495   0.494  17.375  12.522  0.1815  0.0695 -0.0056
13022W        W29496   8.228  15.060   4.425  0.1820 -0.2326  0.0404
13023W        W29497   0.220   2.307   1.128  0.1049  0.1656 -0.1981
13024W        W29498  15.512   2.628   1.976  0.0851  0.1291  0.1991
13025W        W29499  11.106   5.854   1.710  0.1062  0.1759 -0.0501
13026W        W29500  18.305   8.816  13.491  0.1444 -0.1416 -0.0190
13027W        W29501  15.170  12.234  15.557 -0.0588 -0.1525  0.1461
13028W        W29502  15.499   6.798   4.772 -0.0812  0.0055 -0.0438
13029W        W29503   3.373   2.774  12.678 -0.1141  0.3011 -0.0337
13030W        W29504   6.291  11.658  12.572  0.0242 -0.2367  0.1046
13031W        W29505  12.629   8.852   0.094  0.1429  0.1494 -0.0615
13032W        W29506  14.621   2.383   2.978 -0.0371  0.0715  0.0354
13033W        W29507   0.334   3.292  15.198  0.1584  0.0006 -0.3870
13034W        W29508  16.509   3.816  15.263 -0.0337  0.1333 -0.0481
13035W        W29509   8.979   1.996  11.583 -0.0190 -0.3922 -0.0626
13036W        W29510   9.307  15.280   2.779  0.2957  0.0745  0.1649
13037W        W29511  11.890   4.116  15.288  0.1477  0.2475  0.0331
13038W        W29512  17.256  12.399   3.309  0.1736 -0.2943  0.0562
13039W        W29513   2.184  11.193   3.932 -0.0129 -0.3080  0.0700
13040W        W29514  13.861   8.399  15.279  0.1516  0.2462 -0.0093
13041W        W29515  16.386   2.325  11.762  0.0431  0.3548  0.0075
13042W        W29516  17.386   9.673   3.830 -0.1001  0.0478  0.0726
13043W        W29517   3.896  16.712  11.743 -0.3897  0.2117 -0.0552
13044W        W29518   0.031  17.843  15.916  0.2073 -0.0660 -0.0987
13045W        W29519   7.846   7.777   3.143  0.2148 -0.1078  0.2013
13046W        W29520  10.226  13.907   1.166  0.1593 -0.0218  0.2609
13047W        W29521   1.029  15.846   0.262  0.1215 -0.0757 -0.3040
13048W        W29522   5.770   1.027  16.018 -0.1344 -0.0759  0.3271
13049W        W29523   0.421  16.779  16.223  0.1449  0.3413 -0.2412
13050W        W29524   2.772   3.605  13.949  0.1397  0.0840  0.0183
13051W        W29525   4.142   8.142   2.019 -0.2440 -0.1954  0.1690
13052W        W29526  11.851  11.457   2.020 -0.2556 -0.1785 -0.2640
13053W        W29527  11.781   4.760   4.432  0.1824  0.0242  0.0733
13054W        W29528  18.046  18.020  15.488  0.0869 -0.2325 -0.3476
13055W        W29529   6.912   0.006  15.299 -0.1322 -0.1929  0.0791
13056W        W29530  17.688  13.649   5.062  0.0247  0.0129  0.0939
13057W        W29531  10.931  12.789  15.770 -0.2017 -0.2754  0.1841
13058W        W29532  11.663  18.313  11.535 -0.4503  0.2890 -0.0433
13059W        W29533  15.940   9.909  15.885  0.0393 -0.0639 -0.1149
13060W        W29534  12.955   7.424  11.876  0.0672 -0.2781  0.3069
13061W        W29535  16.532   3.795  12.523  0.3822  0.1427 -0.2142
13062W        W29536   4.773   9.888   4.306 -0.2419 -0.1782 -0.1833
13063W        W29537   2.290   9.501   2.662  0.1451  0.0766 -0.4008
13064W        W29538   4.048  13.580  16.308  0.0457 -0.0759  0.0527
13065W        W29539  13.593   7.868   2.300  0.2543 -0.1602 -0.0693
13066W        W29540   1.012  14.283  12.357 -0.2006 -0.1223  0.1131
13067W        W29541  11.030  16.532   4.678 -0.1466  0.2012 -0.0599
13068W        W29542   7.699  16.652   0.456  0.0209 -0.0504 -0.1612
13069W        W29543  11.333   6.482   1.527 -0.0978 -0.1678  0.0088
13070W        W29544  14.421  10.688   0.382  0.0287  0.3600  0.1055
13071W        W29545  17.784   9.115   5.842  0.3511  0.2031 -0.1370
13072W        W29546   1.578  12.994   1.198 -0.0012  0.0829  0.4335
13073W        W29547   8.401   3.166   1.024 -0.0096  0.1362 -0.0154
13074W        W29548  10.384   3.740   4.503  0.3333 -0.0646  0.0720
13075W        W29549   7.852  16.330  14.371  0.2315 -0.5680  0.0525
13076W        W29550  15.294   6.671  15.800 -0.0919  0.3570  0.1737
13077W        W29551  12.153  13.107  13.140 -0.5575 -0.0504 -0.1157
13078W        W29552  10.121   7.771  14.990 -0.1539 -0.1853  0.0888
13079W        W29553   5.229   4.599  15.906  0.1652  0.0816  0.2825
13080W        W29554   2.635   9.805   0.439 -0.2548  0.0221  0.2441
13081W        W29555  10.542   2.045  10.414 -0.2630 -0.1067  0.1021
13082W        W29556  16.996  14.614   3.810  0.2210 -0.0875 -0.1104
13083W        W29557   0.573  13.439  15.568  0.0068  0.0061  0.1429
13084W        W29558   3.880   4.313  10.780  0.0805  0.0581  0.1280
13085W        W29559   4.404  11.867  15.136 -0.0008 -0.3054 -0.1034
13086W        W29560   2.392   0.516  14.239 -0.0354 -0.3022  0.0585
13087W        W29561   0.831   4.730  12.865 -0.0709  0.2222 -0.0295
13088W        W29562   1.049  10.180   3.794  0.0538 -0.1908  0.1306
13089W        W29563   3.038   7.288  16.066  0.2104 -0.0255  0.2014
13090W        W29564   6.109   8.574   4.819 -0.1382  0.3300 -0.0293
13091W        W29565   4.102  18.121  12.135  0.0067 -0.1380 -0.3236
13092W        W29566  14.038   9.998  11.809 -0.0696  0.0197 -0.4015
13093W        W29567   2.488   8.790   3.935 -0.0091  0.0056 -0.2337
13094W        W29568  12.795   6.577   5.291  0.2778  0.1936 -0.1804
13095W        W29569  10.880   5.914   5.596 -0.0197 -0.1518 -0.1293
13096W        W29570  15.046  14.436  12.532  0.0978 -0.1909 -0.0183
13097W        W29571   3.367   5.869   4.158 -0.5375  0.1565 -0.3273
13098W        W29572   6.054   9.699   1.719 -0.1681 -0.1005  0.2277
13099W        W29573  18.096  12.788   1.286 -0.0500 -0.2180  0.2912
13100W        W29574  17.747  14.380   3.369  0.2480 -0.0093 -0.2013
13101W        W29575   8.949   6.108  12.194  0.0221  0.4022 -0.1418
13102W        W29576  15.730  12.711  11.997  0.1382  0.0729 -0.0164
13103W        W29577   8.652  12.563  10.409  0.1972 -0.2081 -0.2224
13104W        W29578   0.957   5.335   3.725 -0.2288  0.0282  0.3793
13105W        W29579  18.063  17.683   4.645 -0.2440 -0.1942  0.0703
13106W        W29580  14.232  14.780   1.944 -0.0059 -0.4323  0.0497
13107W        W29581  12.141   2.425  11.187  0.2689 -0.0557  0.0540
13108W        W29582  10.082  17.147   5.344  0.0421 -0.1200  0.0551
13109W        W29583   9.014   7.941   4.454 -0.3925 -0.1972  0.1731
13110W        W29584   6.910   0.814   3.156 -0.1402  0.0158 -0.1678
13111W        W29585   6.460   5.188  12.168 -0.0885 -0.0477 -0.0047
13112W        W29586   1.978  14.942  15.264 -0.1708  0.0240 -0.0772
13113W        W29587   5.242   7.973   3.123  0.0728  0.2031  0.0921
13114W        W29588   5.071  16.542   1.103  0.0062  0.1350 -0.0666
13115W        W29589   4.711   8.812  12.720  0.0749 -0.0959  0.1928
13116W        W29590   0.077   0.306   5.234 -0.0349  0.1058  0.1498
13117W        W29591  14.334   9.488   1.480 -0.0069 -0.3431 -0.0972
13118W        W29592  16.943   2.214  12.630 -0.0392  0.1313 -0.0655
13119W        W29593   7.463  10.486   5.457  0.2927  0.1206  0.0511
13120W        W29594  10.649   0.135   3.055  0.2533 -0.0615  0.2302
13121W        W29595   1.539   6.398   0.800 -0.1555 -0.0914 -0.0866
13122W        W29596  18.174   5.639   2.686 -0.2021  0.2613 -0.1851
13123W        W29597   3.659  12.662   4.025  0.0908 -0.0002  0.2499
13124W        W29598   2.001  18.049  12.991  0.0303  0.1267  0.1374
13125W        W29599   9.972  15.977   4.916  0.1308 -0.1675  0.1878
13126W        W29600   1.989   2.485  12.772  0.0689 -0.0851 -0.1503
13127W        W29601   3.189   7.152   2.355  0.3658  0.1440 -0.0226
13128W        W29602   6.132   9.854  15.909  0.1993 -0.0360  0.1741
13129W        W29603  12.048  18.201   3.093 -0.0353  0.1328  0.0207
13130W        W29604   9.139  16.885   3.898  0.3584  0.0211 -0.0845
13131W        W29605  10.450   8.021   1.782  0.1837 -0.0289 -0.0229
13132W        W29606   9.301   8.631   0.177  0.2615 -0.1430 -0.0800
13133W        W29607  14.063  16.550   1.275  0.0031  0.3576 -0.0531
13134W        W29608  12.314   9.305   0.113  0.2014  0.1566 -0.3931
13135W        W29609  10.959   1.128   2.815  0.1209 -0.0052 -0.1306
13136W        W29610   6.518   2.763  13.075 -0.1304 -0.3117 -0.1064
13137W        W29611  11.263  17.612   3.313 -0.0901 -0.0729  0.0943
13138W        W29612  16.293   7.521  15.475  0.1669  0.1183 -0.2096
13139W        W29613   0.748  11.349   3.188 -0.3046 -0.0200  0.0860
13140W        W29614   3.725  14.230   3.760 -0.3968  0.0447 -0.0125
13141W        W29615   2.290   7.254   5.284  0.0048 -0.0367 -0.1730
13142W        W29616  13.804  16.677   0.224  0.1311 -0.2522  0.1429
13143W        W29617  17.866  15.119  15.736  0.0837 -0.1060 -0.0039
13144W        W29618   1.605   3.883   1.658 -0.0791  0.0608  0.1145
13145W        W29619   5.405   6.560  13.967  0.3616  0.3470  0.0632
13146W        W29620   3.208   2.006   1.811 -0.0975  0.0591 -0.3755
13147W        W29621  11.098   4.417   4.553 -0.0258  0.0557 -0.0879
13148W        W29622   0.272   7.750   2.069 -0.0252  0.1870 -0.2982
13149W        W29623  16.508   4.773  15.461 -0.1958  0.0240 -0.0902
13150W        W29624  11.908  11.379  12.051  0.0136 -0.1175 -0.0612
13151W        W29625   3.671   1.402  15.341  0.3277 -0.1104  0.1359
13152W        W29626   2.969  14.031  15.629 -0.2319 -0.2102  0.1763
13153W        W29627  15.711  16.202  12.859 -0.0805 -0.1894 -0.3464
13154W        W29628  18.194  16.649  15.415 -0.1644 -0.1604  0.0287
13155W        W29629  15.884   8.103  14.996 -0.0440 -0.0230  0.2833
13156W        W29630  10.596  12.048   3.746 -0.2315  0.2126 -0.0534
13157W        W29631  17.818  17.577   0.774 -0.2610  0.1044 -0.1332
13158W        W29632  12.617  13.570  12.282  0.1019 -0.0374  0.3014
13159W        W29633   3.575  11.384  12.691 -0.0534 -0.0348 -0.1994
13160W        W29634   9.513   9.431  14.187 -0.2077  0.0022  0.1011
13161W        W29635   7.984   3.001   5.594  0.0818  0.1876  0.1076
13162W        W29636  17.433   3.449  15.798  0.0811  0.3754  0.3870
13163W        W29637   5.485   1.141   0.120 -0.0649  0.0326  0.1697
13164W        W29638  10.600  18.264   4.558  0.1758  0.0817  0.4936
13165W        W29639  14.525   9.258   4.198 -0.1082 -0.1476  0.0883
13166W        W29640   5.552   3.621   1.204 -0.4852  0.2308  0.2263
13167W        W29641   2.033   6.648   4.515  0.0604  0.3220  0.1949
13168W        W29642  17.804   5.721  16.027 -0.0893 -0.2604  0.1288
13169W        W29643   9.691   6.030  15.412  0.1698 -0.0116 -0.2242
13170W        W29644  11.750  10.505   5.974 -0.0147 -0.1613  0.1231
13171W        W29645  17.680  16.890  11.627 -0.0529 -0.0237 -0.1329
13172W        W29646   1.393  16.104  12.007  0.2583  0.3187  0.1957
13173W        W29647   2.697   7.920   2.202 -0.0517 -0.1631  0.3482
13174W        W29648  15.065  17.372   1.632  0.2654  0.1611 -0.1290
13175W        W29649   2.136   5.989   0.785 -0.2564 -0.3179 -0.1629
13176W        W29650   1.458   5.784  11.734 -0.0694  0.2446 -0.1276
13177W        W29651  13.711   6.872   0.115  0.1190 -0.2283  0.2168
13178W        W29652  11.186   2.481   0.850 -0.1805 -0.0415 -0.0914
13179W        W29653  15.278  16.539   1.822 -0.2372  0.0287 -0.1159
13180W        W29654  11.469   7.567  11.463  0.0376 -0.1059 -0.4792
13181W        W29655  16.291   7.932  13.646 -0.3576  0.4509  0.0296
13182W        W29656  18.078  17.097  15.227 -0.1817 -0.0830 -0.1003
13183W        W29657   7.734  14.035   4.485 -0.3246  0.0870  0.0784
13184W        W29658  12.054  15.908   1.399  0.0246 -0.0050 -0.1138
13185W        W29659   4.784   3.742   0.468  0.1359 -0.2161 -0.2662
13186W        W29660  16.109  16.100  14.578 -0.0665 -0.4414  0.0525
13187W        W29661   4.075   6.758   5.063  0.1510  0.2680  0.1260
13188W        W29662  11.538   6.629   5.309  0.2237 -0.1089 -0.2878
13189W        W29663   2.993   7.767   4.675  0.0697 -0.0132  0.2379
13190W        W29664  13.293  15.209   5.317 -0.3847 -0.4273  0.0048
13191W        W29665   3.441  16.930   3.285 -0.0083 -0.2654 -0.1564
13192W        W29666  12.091  11.202  15.345  0.5627 -0.1640  0.3047
13193W        W29667  17.751   6.410   5.727  0.0284 -0.0845 -0.0551
13194W        W29668   7.589   1.072  12.906  0.0664 -0.1471 -0.0710
13195W        W29669   0.404   0.734  14.760  0.0238 -0.1000 -0.0137
13196W        W29670   5.239   1.546  10.972  0.0183 -0.0231 -0.0232
13197W        W29671   1.402   0.166   2.317  0.0758  0.1564  0.0974
13198W        W29672   9.941   4.013   2.169  0.0841 -0.0788  0.0054
13199W        W29673   4.118   7.527   2.373  0.0799  0.2282 -0.5130
13200W        W29674  14.280  15.537  13.847  0.1621 -0.1412  0.1555
13201W        W29675   3.869  14.374  12.076 -0.0838 -0.1955 -0.1360
13202W        W29676   7.474   8.211   0.662  0.0337 -0.1709  0.0545
13203W        W29677  10.587  13.741  12.269  0.1942 -0.2491  0.0071
13204W        W29678   1.694   1.673  11.106  0.0261 -0.4531 -0.2302
13205W        W29679   4.144  11.086   3.192 -0.1816 -0.4520  0.0359
13206W        W29680  17.118  18.012  12.256 -0.0700 -0.0692 -0.2279
13207W        W29681  17.498   8.475  12.194  0.2038 -0.2438 -0.0000
13208W        W29682  11.272  11.996   5.446 -0.3056 -0.1719  0.0448
13209W        W29683   7.645  17.687   3.283  0.2810 -0.0050 -0.1028
13210W        W29684  15.355   7.675  11.373  0.3567  0.0508 -0.2217
13211W        W29685  14.908  14.375   5.648 -0.3230  0.0670 -0.1146
13212W        W29686   4.240   5.873  14.926  0.0467  0.2068 -0.2714
13213W        W29687   9.039   7.609  13.273  0.0486 -0.0299 -0.0115
13214W        W29688   6.314   3.954   1.104 -0.1098  0.2614  0.2157
13215W        W29689   5.348   5.881  12.379  0.1310 -0.1283  0.0741
13216W        W29690   0.332  12.512   4.963 -0.2316 -0.5157  0.4325
13217W        W29691  17.451   4.502  13.516 -0.1874  0.2253  0.2637
13218W        W29692   3.944  16.133  15.941 -0.2730 -0.0058  0.1489
13219W        W29693  14.715   2.053   2.479 -0.0917 -0.0739 -0.1831
13220W        W29694   5.755  17.894  12.088  0.1384 -0.0945 -0.0253
13221W        W29695  18.090   8.674   0.995  0.1921  0.1894  0.0165
13222W        W29696  12.501  15.975   2.720 -0.2981  0.3186 -0.0859
13223W        W29697   8.786   0.643   1.042  0.1799 -0.2288 -0.2244
13224W        W29698   4.534  10.090  11.797 -0.2170 -0.0687  0.2906
13225W        W29699   3.310   7.045   0.503  0.1267 -0.3122 -0.1127
13226W        W29700   5.344   2.933   0.361  0.2386  0.3299  0.1846
13227W        W29701  12.195  16.182  11.343 -0.0945  0.3044  0.2204
13228W        W29702   2.983  11.429  16.231 -0.0285 -0.2017 -0.0279
13229W        W29703   4.920  13.860   0.292  0.1097  0.1358 -0.2304
13230W        W29704   8.913   0.538  15.566 -0.0653  0.2852  0.0446
13231W        W29705  11.793   9.749   3.431 -0.1896 -0.1175 -0.1170
13232W        W29706  10.438   3.192  16.191 -0.0453  0.0747 -0.1829
13233W        W29707  12.921  15.956  11.730  0.1174 -0.1123 -0.1544
13234W        W29708  15.162  16.160   2.204  0.5345 -0.1731 -0.0304
13235W        W29709   5.573   6.902   5.911  0.2718 -0.0836 -0.1865
13236W        W29710   4.713   2.973  11.564  0.0686  0.0194  0.1342
13237W        W29711   9.886   6.157   4.141  0.1844 -0.1664  0.1943
13238W        W29712   7.256   4.492   3.263 -0.2800  0.2453 -0.1011
13239W        W29713   7.827  10.989  15.013 -0.2632  0.0196 -0.1106
13240W        W29714   8.932  10.147  14.162  0.0077 -0.0351  0.0151
13241W        W29715   7.947  16.483   0.830  0.0553  0.0622 -0.1990
13242W        W29716  13.810  16.390  13.296  0.1741 -0.1934  0.1753
13243W        W29717   3.181   7.591   2.102 -0.3291 -0.2835 -0.3598
13244W        W29718  18.225  14.198  13.491  0.2654  0.0020 -0.2482
13245W        W29719   3.883   1.901  14.486  0.0552  0.0512  0.1720
13246W        W29720  18.206   3.240   1.548  0.3344 -0.0723  0.1118
13247W        W29721  16.297  13.754  11.107  0.1087 -0.0201  0.0372
13248W        W29722  14.952   6.703   5.157  0.2666  0.0119  0.0494
13249W        W29723  11.257   8.859   4.245  0.2257 -0.0590 -0.4712
13250W        W29724  15.559  17.134  12.390  0.1448  0.0693 -0.0121
13251W        W29725   5.498  11.521  11.797 -0.0318 -0.2219 -0.0885
13252W        W29726  11.948   4.551   3.954 -0.0016 -0.1036 -0.0770
13253W        W29727  10.861   7.722   3.890  0.0733  0.1474  0.0634
13254W        W29728   7.855  17.084   2.018  0.0769 -0.0809 -0.2156
13255W        W29729   4.028  15.814  14.491 -0.0003 -0.3905  0.0806
13256W        W29730   8.463   3.434  11.247  0.0437  0.0956 -0.1835
13257W        W29731  18.288   8.049   2.855  0.0889 -0.0676  0.0809
13258W        W29732   3.128   3.398   0.554  0.0753 -0.1381  0.0393
13259W        W29733  15.014   9.251   4.510  0.3116  0.1805  0.5317
13260W        W29734  17.601   3.532   1.006  0.1136  0.1540 -0.0891
13261W        W29735   5.985   2.914  15.231  0.0448  0.1027  0.1963
13262W        W29736  13.886   4.643  13.355  0.2570 -0.2380  0.2398
13263W        W29737   8.254   3.817  15.801 -0.4400  0.1981 -0.0564
13264W        W29738   6.639   5.105  13.176  0.1927 -0.4035 -0.3083
13265W        W29739   1.975  14.350  13.157  0.0987 -0.2186 -0.1385
13266W        W29740  17.591   0.062  14.625 -0.3075 -0.3951  0.1617
13267W        W29741   4.868   5.056   0.867 -0.2808  0.0551  0.0326
13268W        W29742   8.776   2.884   4.328  0.1243  0.2328 -0.0569
13269W        W29743   9.778   5.774   0.468 -0.1934  0.0992  0.0500
13270W        W29744  17.093  16.621  16.138  0.2870 -0.0900  0.4215
13271W        W29745   0.233   4.688   3.851 -0.0408  0.3037  0.2281
13272W        W29746   3.264  17.758   2.181  0.0433  0.1576  0.4009
13273W        W29747   1.541  18.026   2.475 -0.3052 -0.2272 -0.0396
13274W        W29748  10.258  11.220  15.214 -0.3864 -0.1928  0.2228
13275W        W29749  10.518  12.702  15.273  0.2068 -0.3394  0.0908
13276W        W29750  14.650   2.640  11.459  0.3235 -0.0706  0.2070
13277W        W29751  16.186   7.077   1.788  0.2194  0.0306 -0.0421
13278W        W29752   1.722   7.025   2.485 -0.2628 -0.1201 -0.1290
13279W        W29753   2.927   6.337   4.874  0.2259 -0.1334  0.0980
13280W        W29754   5.270   7.475   4.196 -0.1125 -0.0509 -0.0693
13281W        W29755   6.870   9.078   1.504  0.1267  0.0290 -0.1186
13282W        W29756  11.478   0.460  12.287  0.2460  0.4922  0.0738
13283W        W29757  14.827   0.368  15.484 -0.0351  0.0603 -0.1566
13284W        W29758  11.882   1.722  14.053  0.0547 -0.1825  0.1354
13285W        W29759   0.128   6.300  14.442 -0.1410 -0.0285  0.0795
13286W        W29760  17.297   3.067   2.664  0.2430  0.2633 -0.0733
13287W        W29761   9.746   2.711  14.415  0.2260  0.2130  0.1570
13288W        W29762  17.250   5.649  12.554 -0.0014  0.1123 -0.1980
13289W        W29763  11.717  10.911  12.207  0.1800  0.2688 -0.3849
13290W        W29764  14.736   8.593  16.202 -0.0741  0.4116 -0.0522
13291W        W29765   8.666   4.475   2.361 -0.0593  0.1974 -0.0939
13292W        W29766   6.393  12.492   2.377 -0.0253  0.0208  0.1443
13293W        W29767  10.870   3.833   0.093  0.1257  0.0452 -0.0287
13294W        W29768  14.730   2.089  14.489  0.1626 -0.0803  0.0583
13295W        W29769   6.747   6.189   3.384 -0.4012  0.0042 -0.0196
13296W        W29770   6.741   7.533   2.307 -0.1190 -0.2331 -0.0862
13297W        W29771  10.738   0.846  13.607  0.2397  0.1673 -0.2637
13298W        W29772   5.003  18.283   1.951 -0.0390  0.3164 -0.1370
13299W        W29773   9.497  10.695   0.797  0.1110  0.1756 -0.0496
13300W        W29774   8.272  11.158   4.122 -0.3341 -0.0761 -0.0639
13301W        W29775  11.162  18.297   4.341  0.0812 -0.0292  0.0181
13302W        W29776   1.425  12.192  11.700  0.1606 -0.0066  0.2410
13303W        W29777  12.585  13.935  11.403  0.2232 -0.1881 -0.0056
13304W        W29778   5.816   0.298  13.428  0.2449 -0.0395  0.2107
13305W        W29779   6.882   2.696  14.357 -0.0800  0.0959  0.1024
13306W        W29780   2.905   5.143  15.863  0.0774  0.3425  0.2086
13307W        W29781   1.584   9.791   4.828 -0.0053 -0.0193 -0.0979
13308W        W29782  12.501  13.122   5.650 -0.2576  0.0972  0.0378
13309W        W29783  14.991  12.121  12.459 -0.3646  0.0757 -0.3015
13310W        W29784   8.711   6.623  12.906  0.6519  0.0479  0.3802
13311W        W29785  18.095   8.647   5.011 -0.2727  0.0610 -0.0585
13312W        W29786   1.856   5.701  14.959  0.1568 -0.1154  0.1642
13313W        W29787   9.101  12.308   0.571  0.1733 -0.1126  0.0842
13314W        W29788   2.026  14.440   1.351  0.1127  0.0369  0.1189
13315W        W29789   5.828   4.117  13.351 -0.0985  0.2360  0.0520
13316W        W29790  14.836  13.821  15.594 -0.0371  0.1638 -0.2168
13317W        W29791   0.521   3.239  11.390  0.1000  0.1732 -0.0852
13318W        W29792  16.154   5.188  12.386  0.0935 -0.0921  0.0212
13319W        W29793   3.659   6.581   3.629  0.0313 -0.2005  0.2557
13320W        W29794  13.532   4.229  15.208  0.2800  0.1109 -0.0572
13321W        W29795  14.491  11.933   3.937 -0.2418 -0.0537 -0.2025
13322W        W29796  11.329   0.605  15.773  0.1466  0.0392 -0.0080
13323W        W29797   6.589  16.296  12.840 -0.2202  0.1459 -0.1971
13324W        W29798   6.309   3.375   3.851  0.0748 -0.3286  0.0775
13325W        W29799   6.152   2.627  15.654 -0.3970 -0.1778 -0.0232
13326W        W29800  17.781  12.746   0.771  0.0941  0.1661 -0.0202
13327W        W29801  11.843  15.667  14.148 -0.0522 -0.2084 -0.1395
13328W        W29802   0.880   9.893   2.194  0.0195  0.4260  0.1031
13329W        W29803   3.495  10.378   3.334 -0.4235  0.2743 -0.2011
13330W        W29804   8.707   4.299   1.795  0.1327 -0.2387  0.1261
13331W        W29805   4.394  11.135  14.114 -0.0546 -0.0886 -0.1467
13332W        W29806  18.137  11.935  14.150 -0.0595  0.1731  0.2024
13333W        W29807  17.303   6.794   0.437  0.3866 -0.5175 -0.1948
13334W        W29808   0.346   8.510  11.816 -0.0946 -0.3282  0.0152
13335W        W29809  10.469   7.914   3.059 -0.1268 -0.0578  0.0590
13336W        W29810   3.605   3.790   5.392  0.0851  0.1320  0.0377
13337W        W29811  11.761   5.860  12.940  0.1872 -0.0813 -0.3884
13338W        W29812  12.349   1.614  12.111 -0.2458  0.0352  0.1960
13339W        W29813  15.569   8.546  11.885  0.1331  0.1979 -0.0308
13340W        W29814  15.910   2.288  11.904 -0.2434 -0.0473  0.0588
13341W        W29815   0.768  16.880   1.813  0.1554  0.1852 -0.0724
13342W        W29816   3.397   9.503   1.752 -0.2498  0.1563  0.2000
13343W        W29817   1.162  15.377   5.398 -0.1310 -0.3293 -0.0667
13344W        W29818  16.931  15.527   2.864  0.0386  0.0963 -0.3223
13345W        W29819  17.391  15.968   5.650  0.0880 -0.1602 -0.1596
13346W        W29820   8.317  11.545  13.145  0.0642  0.0782  0.2062
13347W        W29821  15.593   9.055  13.259 -0.1268  0.1699  0.1683
13348W        W29822  14.904  16.419  14.383 -0.0204 -0.0179 -0.0645
13349W        W29823  10.189   7.150   3.618 -0.0156 -0.1625 -0.2210
13350W        W29824  10.490   9.121   0.683 -0.2768  0.0614 -0.2929
13351W        W29825   6.217   8.584  12.045 -0.0237 -0.1784 -0.1661
13352W        W29826   7.462   9.925   0.701 -0.1942 -0.0145  0.3102
13353W        W29827  11.599  10.462  11.812 -0.2002  0.0495 -0.4490
13354W        W29828  15.648   4.562  10.409  0.3094 -0.1848  0.2032
13355W        W29829  16.623   0.571  13.304  0.0368  0.0833 -0.0101
13356W        W29830  15.705   7.586   4.319  0.0095 -0.0164 -0.2091
13357W        W29831  17.355   2.863   1.214  0.2544  0.2338  0.2075
13358W        W29832  12.810  15.446  12.613  0.0971 -0.1061  0.2719
13359W        W29833   6.499  10.899   3.749 -0.2886 -0.2204  0.0426
13360W        W29834  10.810  15.912  11.748  0.0675  0.0263 -0.0671
13361W        W29835  13.708   4.024   1.537 -0.1742  0.2140  0.1597
13362W        W29836   9.563  16.017   3.216 -0.3751  0.1663 -0.0908
13363W        W29837   1.836  10.996  12.443  0.1367  0.1982 -0.0301
13364W        W29838   3.614  10.726  13.403  0.1206  0.1192  0.1126
13365W        W29839   0.512  15.095   2.269 -0.1851 -0.2535 -0.1991
13366W        W29840   3.019  11.240  13.649  0.3162  0.1789 -0.1432
13367W        W29841   9.618   9.962   0.404 -0.0356 -0.1009  0.2342
13368W        W29842  17.708  10.122  15.206 -0.2543 -0.1850  0.2586
13369W        W29843  14.404  11.078  14.491  0.3549  0.0365 -0.0857
13370W        W29844  14.821  10.543   5.035  0.0911 -0.0046  0.1189
13371W        W29845  16.526   8.585  11.390  0.3853  0.1269  0.2138
13372W        W29846   2.796  13.084  12.365  0.0168 -0.3122  0.2477
13373W        W29847   9.309  10.781  15.826  0.4554 -0.1444  0.0215
13374W        W29848   3.295   1.547   0.994  0.0884 -0.0772 -0.3188
13375W        W29849  12.230  15.706  13.358 -0.1815 -0.0647  0.1340
13376W        W29850   5.996  18.094   1.493 -0.0342  0.1613  0.1028
13377W        W29851   8.830   2.648  16.157 -0.1377  0.0407 -0.1273
13378W        W29852   5.440   7.035  13.878 -0.1347 -0.2561 -0.3603
13379W        W29853  12.396   5.556   5.799  0.0591  0.0346  0.0872
13380W        W29854   8.776  13.640  15.645  0.0274  0.3360 -0.0889
13381W        W29855   0.157   5.188   2.704 -0.1371 -0.0740  0.0095
13382W        W29856  12.510  10.432  12.823 -0.1370  0.0166 -0.1965
13383W        W29857   7.945   2.664  12.263  0.3820 -0.0083  0.2304
13384W        W29858  17.881  15.109  13.641  0.3789 -0.0313  0.3809
13385W        W29859   5.725   8.629  13.302 -0.1366  0.1932 -0.1368
13386W        W29860   2.932  13.459  14.289  0.2226 -0.2868 -0.0194
13387W        W29861  10.216  12.372   3.225  0.0005 -0.0106 -0.1326
13388W        W29862   9.782   1.605   4.942 -0.2296  0.0049 -0.1271
13389W        W29863  10.260   4.230   0.639 -0.2952 -0.3065  0.0318
13390W        W29864  13.276  15.920   4.704 -0.3088  0.0560 -0.0691
13391W        W29865   4.311  14.128   5.700  0.3369  0.0730  0.2508
13392W        W29866   3.115  15.304   3.261 -0.1618 -0.0741  0.2046
13393W        W29867  17.197  17.294   0.680  0.1073  0.1193 -0.0649
13394W        W29868   7.761   9.724   4.982  0.2543  0.0828  0.2019
13395W        W29869   5.446  11.900  14.607  0.0133 -0.2019 -0.2059
13396W        W29870   1.292   0.101  14.600 -0.2109  0.0691 -0.1759
13397W        W29871  11.047  16.680   2.169 -0.2654 -0.0057 -0.0669
13398W        W29872   3.744  11.865  12.767 -0.1210 -0.0034  0.2033
13399W        W29873  17.596  16.264   3.387 -0.0599 -0.1326 -0.2264
13400W        W29874   0.080   7.854   1.382  0.2703  0.2807  0.0350
13401W        W29875   6.009   0.862  14.778 -0.0392 -0.1539  0.1420
13402W        W29876  11.810  10.013   5.464  0.0132  0.0500 -0.2699
13403W        W29877  12.871   9.265  12.407 -0.2502  0.2041  0.0547
13404W        W29878   2.188   7.981   4.592 -0.0148  0.0808 -0.1244
13405W        W29879  10.823  11.865  15.503  0.2300 -0.2461 -0.0758
13406W        W29880  13.125   4.914  13.480 -0.2910 -0.0792  0.3565
13407W        W29881  17.437   0.375  12.940 -0.1939 -0.3849 -0.1896
13408W        W29882  13.592  15.971  13.477  0.0903  0.0052  0.0369
13409W        W29883   1.725  12.312  15.254  0.1174  0.0670 -0.1878
13410W        W29884   8.643   5.182  11.818  0.2829 -0.0290 -0.1838
13411W        W29885   3.712   2.009   2.319 -0.0152 -0.0330 -0.1575
13412W        W29886  17.407  11.163  14.304 -0.3288  0.0983  0.2304
13413W        W29887  13.034  17.650   4.559 -0.0070  0.1096 -0.0437
13414W        W29888   4.545   1.543  11.517 -0.0333 -0.0576 -0.1285
13415W        W29889   6.395  12.830  15.499 -0.0649 -0.1370  0.1899
13416W        W29890   8.629   4.548  13.959  0.1788  0.2460  0.1234
13417W        W29891   2.075   1.997  11.397  0.1981  0.5042 -0.2325
13418W        W29892  15.988   4.171   4.731  0.0049  0.0089  0.0645
13419W        W29893   9.661  11.999  16.208 -0.0127  0.0409  0.3212
13420W        W29894  16.559  14.562   6.097  0.1635 -0.0024  0.1418
13421W        W29895  14.333   6.004   2.637  0.2133 -0.1262  0.2238
13422W        W29896  10.628  16.288   4.225  0.1790  0.0985 -0.1340
13423W        W29897  14.255   4.753  12.190  0.2249  0.2950 -0.1285
13424W        W29898  16.920   6.687  15.513 -0.4437 -0.0620  0.1099
13425W        W29899   1.950  17.010  13.406 -0.3690 -0.0609  0.0116
13426W        W29900   2.076  11.002  11.994  0.0800  0.0311  0.0389
13427W        W29901  13.276  14.696  13.462 -0.1047  0.1708 -0.1795
13428W        W29902  15.179  17.430  14.532 -0.3826 -0.2176 -0.2584
13429W        W29903  14.027   5.503   2.243  0.1407  0.0300 -0.0476
13430W        W29904   4.763   5.244  13.685 -0.0270 -0.3570 -0.0239
13431W        W29905   7.941   0.592  14.219 -0.0763 -0.0138 -0.1450
13432W        W29906  15.513   0.388  12.384  0.1310  0.1788  0.1640
13433W        W29907  10.765   0.641   3.141 -0.0456  0.3312 -0.4332
13434W        W29908  12.831  15.600   5.519  0.1501 -0.1484 -0.2723
13435W        W29909  14.518   3.183   4.666  0.2397  0.0456 -0.0037
13436W        W29910   5.307   3.279   0.918 -0.1359  0.4120  0.1541
13437W        W29911  17.111  17.659  13.634 -0.0901  0.1617  0.1849
13438W        W29912  11.568  14.827   1.421 -0.1489 -0.2003  0.0462
13439W        W29913  14.695   9.594  13.629 -0.2269  0.0646 -0.2376
13440W        W29914  17.237   6.012   4.253  0.2594 -0.2484  0.0149
13441W        W29915   1.083  12.884   5.405  0.0770 -0.1291 -0.1669
13442W        W29916   5.046  12.045  13.884  0.2308 -0.2724 -0.5985
13443W        W29917   8.172  18.189  13.038 -0.1554 -0.2167 -0.1191
13444W        W29918  11.022   2.575  13.807  0.0728 -0.1832  0.1289
13445W        W29919   1.309   5.850   4.888  0.1816 -0.1359 -0.1711
13446W        W29920  13.228   8.857  14.878  0.2395  0.1243  0.3819
13447W        W29921   2.110   6.518  15.767  0.0104  0.0801 -0.4283
13448W        W29922   2.093   3.360   3.894  0.0999 -0.1160 -0.2634
13449W        W29923   2.982   0.443   2.392  0.1249  0.1636 -0.1149
13450W        W29924   4.016   2.572  13.383  0.0108  0.5015  0.2243
13451W        W29925  13.918   3.183   2.187 -0.2722 -0.0989 -0.1238
13452W        W29926  11.573  17.672  15.120 -0.0634  0.0135  0.1629
13453W        W29927  12.521   8.172  13.960 -0.0608 -0.1537 -0.1627
13454W        W29928   1.230   1.823  10.833  0.2504  0.0346 -0.1834
13455W        W29929   3.809   7.314   3.813  0.1692 -0.1537  0.1841
13456W        W29930   1.606  16.846  14.424 -0.1240  0.0567  0.2923
13457W        W29931  13.623   1.501  15.750  0.2220 -0.1215  0.2064
13458W        W29932  13.350   2.769   3.735 -0.1443 -0.1484  0.0773
13459W        W29933   1.512  14.902  12.184 -0.1275 -0.1600 -0.2115
13460W        W29934  15.466  15.632  11.689 -0.2038 -0.0874  0.1574
13461W        W29935  14.129  14.838  12.261  0.1281  0.0842 -0.0874
13462W        W29936  14.183  17.382  15.275 -0.2378 -0.0362 -0.1203
13463W        W29937   7.230  18.185   3.777  0.1019  0.1245  0.0003
13464W        W29938  15.224   9.486   5.787 -0.1160  0.0659 -0.0656
13465W        W29939  10.484  12.259  13.490  0.0479 -0.4865 -0.1640
13466W        W29940  17.165   8.739  13.429  0.0456 -0.0332 -0.1357
13467W        W29941   8.416  17.462   4.022 -0.1986 -0.2715  0.3040
13468W        W29942   4.090   2.725  15.474  0.2357  0.0780  0.1291
13469W        W29943   7.915  16.498   5.196 -0.0606 -0.1456  0.0180
13470W        W29944   8.070   9.460   1.232 -0.0286 -0.1463  0.1374
13471W        W29945  11.782   2.761   3.545 -0.0177 -0.3136  0.1219
13472W        W29946  12.029   3.585  14.222 -0.3115 -0.0351  0.3979
13473W        W29947   9.916   2.132   1.801 -0.2241 -0.2762 -0.1372
13474W        W29948  14.955  15.163   1.983  0.2537 -0.0605 -0.0805
13475W        W29949  18.079  13.940  13.957  0.2698 -0.0118 -0.2113
13476W        W29950  13.876   1.489   0.444 -0.0765  0.0141  0.3771
13477W        W29951   0.305   9.474   1.057  0.1216 -0.3817  0.0277
13478W        W29952   7.549  11.609   0.400 -0.1925  0.0828  0.1786
13479W        W29953   2.470  16.634   5.003 -0.1253 -0.1959  0.0830
13480W        W29954  15.195   3.238   2.574 -0.1308  0.0997 -0.1724
13481W        W29955   8.915   7.301   2.050 -0.0033  0.1893 -0.0859
13482W        W29956   3.236   9.246   3.819  0.1015 -0.1577 -0.0588
13483W        W29957  18.126  10.974  13.603 -0.2325 -0.2969  0.1412
13484W        W29958   2.211  15.986  15.139  0.4086  0.1734  0.0450
13485W        W29959  15.623  10.845   5.129  0.2200  0.1043 -0.0717
13486W        W29960   2.307   1.271   3.303  0.1319  0.1017 -0.4280
13487W        W29961   9.746   7.050  13.074  0.0896 -0.0912  0.3020
13488W        W29962   6.891   7.193   5.080  0.1137  0.0323  0.0146
13489W        W29963   0.289   9.252  13.380  0.0575  0.3387  0.3386
13490W        W29964   6.768  11.231   1.078  0.1050  0.1529  0.3386
13491W        W29965   8.011   0.687   2.023 -0.0389  0.0158 -0.0237
13492W        W29966   2.029  14.565  13.575 -0.2328  0.0204 -0.1299
13493W        W29967  15.065   0.035   4.083 -0.0697 -0.1207 -0.0953
13494W        W29968   9.751   0.301  10.956 -0.1737  0.0007  0.0047
13495W        W29969   2.213  16.561   3.962  0.4808  0.1734  0.2080
13496W        W29970   8.148   1.464  10.948 -0.1298 -0.0331  0.2812
13497W        W29971  15.246  12.252   3.506 -0.0848  0.0779 -0.1250
13498W        W29972   2.607   3.335   3.580  0.1227  0.0890 -0.0027
13499W        W29973   1.572   2.593   2.078 -0.3436  0.0522 -0.0069
13500W        W29974   6.019  11.819  11.778  0.4880  0.1074 -0.0726
13501W        W29975   0.514   2.562   5.355  0.0093 -0.0392  0.0995
13502W        W29976  15.290  12.987  15.478 -0.1632  0.1271 -0.2486
13503W        W29977   8.279   4.182   2.583 -0.0160 -0.1138 -0.1257
13504W        W29978  15.470   0.289   4.980  0.2297 -0.0638 -0.0190
13505W        W29979   4.512   4.996   3.273 -0.0280  0.0995  0.0174
13506W        W29980   8.674  15.080   4.616  0.0260  0.0601 -0.0852
13507W        W29981   1.001   6.394  15.047 -0.3175 -0.2255  0.0159
13508W        W29982  13.466  16.511   1.828 -0.0321 -0.0559 -0.1846
13509W        W29983  14.893  13.962   3.029  0.0853  0.1250  0.0250
13510W        W29984   8.108   5.031   2.806 -0.0128 -0.2829 -0.3724
13511W        W29985   6.063  13.024   2.953  0.1506  0.0343 -0.0603
13512W        W29986  11.656  11.846  15.431  0.1804  0.3055 -0.2893
13513W        W29987  17.695   8.861  13.499  0.1258 -0.3720 -0.0885
13514W        W29988  14.935  17.406  15.945 -0.0544 -0.1941  0.3091
13515W        W29989   8.144  10.005   5.834  0.3268 -0.2783  0.6195
13516W        W29990  12.178  11.208   4.986  0.0157 -0.2205 -0.1575
13517W        W29991  10.601   6.137   3.174 -0.2094  0.0368  0.3459
13518W        W29992   4.583   2.573   1.033  0.1044  0.1457  0.0723
13519W        W29993  16.999   3.977   0.555  0.1156 -0.3694 -0.0740
13520W        W29994  15.598   5.375  15.087  0.1074 -0.3289  0.1017
13521W        W29995   7.076   0.821   2.319 -0.1220 -0.1356  0.2441
13522W        W29996   2.219   1.365  15.321 -0.0539  0.2502 -0.3796
13523W        W29997  13.669   6.955  11.268  0.2124  0.0491 -0.0235
13524W        W29998   2.581  14.536  15.974 -0.2080  0.4593  0.0229
13525W        W29999   4.977  10.796  13.680 -0.1032  0.0589 -0.1603
13526W        W30000  18.167   3.990   3.253 -0.1399 -0.0509 -0.0196
13527W        W30001   6.409   6.955   3.111  0.0213 -0.2333  0.2873
13528W        W30002  17.030  17.765   5.090  0.1012 -0.1349 -0.0382
13529W        W30003   4.153  14.642   2.279  0.0780 -0.0178  0.0424
13530W        W30004  18.258   0.014  11.903 -0.1422  0.3217  0.0052
13531W        W30005  12.845  11.545  11.678  0.3586  0.0722  0.0060
13532W        W30006   4.231   9.188   4.816  0.0240 -0.0116  0.2154
13533W        W30007   7.198  14.863   4.302  0.0205 -0.0014 -0.0174
13534W        W30008   6.232   9.330  14.512 -0.1708  0.1430 -0.1347
13535W        W30009   2.259   0.871   2.942  0.1142 -0.1166 -0.2466
13536W        W30010  18.010  12.405  14.474 -0.1435  0.2010  0.1981
13537W        W30011  16.361  17.480  12.360  0.1733 -0.0421 -0.1807
13538W        W30012   8.104  12.585  14.776  0.0578  0.0290 -0.0884
13539W        W30013  11.916   4.302  14.759 -0.0264 -0.0638 -0.0047
13540W        W30014  11.286  15.418   2.387  0.0478  0.1706 -0.3012
13541W        W30015  13.478  15.723   3.818  0.0844  0.2226  0.1087
13542W        W30016  17.575  13.174   4.229 -0.3259  0.2073 -0.2120
13543W        W30017   1.938   8.838  12.929  0.3041  0.0471  0.0112
13544W        W30018   2.920  14.199  15.113 -0.0957  0.1505 -0.0637
13545W        W30019   4.510  15.136   3.081 -0.0047  0.0662 -0.1129
13546W        W30020  15.705  17.658   3.266  0.1830 -0.2087 -0.1322
13547W        W30021   6.771  12.120   2.970  0.1274 -0.3662  0.0983
13548W        W30022   9.855   8.932   2.975  0.2966 -0.1416  0.0771
13549W        W30023  13.714  12.548   1.892  0.2977  0.2627 -0.2341
13550W        W30024  17.672   8.948   1.512  0.0153  0.0862 -0.3752
13551W        W30025   7.009   6.052  12.314  0.1037  0.0559 -0.0310
13552W        W30026   4.393   4.528   1.494 -0.2352 -0.0456  0.1493
13553W        W30027   4.786   6.316   6.025  0.3242 -0.2103  0.1838
13554W        W30028   6.793  17.531   1.172  0.0097 -0.0331 -0.0115
13555W        W30029   5.357   2.651  11.924  0.0048 -0.1187 -0.2861
13556W        W30030  13.594   5.922  12.725  0.1664 -0.1697 -0.1413
13557W        W30031  14.942   1.203   2.041 -0.0317 -0.0276 -0.1559
13558W        W30032  16.738  15.534   0.514  0.1241  0.2115  0.1776
13559W        W30033   5.100  10.076   2.697 -0.0171  0.1149  0.0646
13560W        W30034  11.969   6.394   3.779  0.0498 -0.0802 -0.2443
13561W        W30035   5.961  16.493   1.519  0.0857  0.0832 -0.3969
13562W        W30036  10.925  11.255   0.976  0.1511 -0.0195  0.2047
13563W        W30037   0.962   5.112   0.155 -0.1334 -0.0438  0.1472
13564W        W30038   7.077  16.490  10.835 -0.1466  0.1527 -0.1646
13565W        W30039  16.088  13.873   1.071  0.2233  0.3079  0.1045
13566W        W30040   7.637  12.477   2.616  0.2344  0.2002  0.0926
13567W        W30041   2.390  12.628  14.811 -0.1818  0.1456  0.2042
13568W        W30042   5.007   0.357  14.938  0.0990  0.1330 -0.1380
13569W        W30043  13.948  10.785   5.867 -0.0036  0.2329 -0.1952
13570W        W30044   0.665   6.513   2.128  0.2392  0.3175  0.0297
13571W        W30045  15.190   4.805  14.661 -0.0541  0.0591  0.0560
13572W        W30046   2.214   4.692   0.358  0.2050 -0.2366 -0.1997
13573W        W30047  10.451  17.108   2.806  0.1683  0.2393  0.2006
13574W        W30048  11.499   5.944   2.622 -0.1084 -0.0287 -0.1396
13575W        W30049   4.761  12.827   4.750 -0.1109 -0.0097  0.0756
13576W        W30050   0.483   8.216   3.770 -0.0070  0.1736  0.1301
13577W        W30051   4.930   0.072  11.757 -0.0005 -0.1028 -0.2865
13578W        W30052   0.470  15.100   4.211 -0.0242 -0.1197 -0.2008
13579W        W30053   8.090   6.793  15.598 -0.0457  0.0118 -0.0034
13580W        W30054   6.940   7.627   5.825 -0.2344  0.1571 -0.1451
13581W        W30055   3.045  10.168   3.335  0.0212  0.1501 -0.0445
13582W        W30056  13.902   6.051   5.076 -0.1230  0.0894 -0.0173
13583W        W30057  12.374   9.953   2.660 -0.0156 -0.0008  0.1473
13584W        W30058  16.571   3.958   3.217 -0.1848 -0.0723  0.1996
13585W        W30059   4.267   3.579   4.176 -0.0560 -0.1071  0.0193
13586W        W30060  10.987  13.919   3.775  0.0604 -0.2768  0.0580
13587W        W30061   3.350   6.527   0.487 -0.1165 -0.0597  0.2580
13588W        W30062   6.535   5.726  15.282 -0.2610 -0.4290  0.0651
13589W        W30063   8.373   2.073   1.961  0.0557  0.2286  0.1057
13590W        W30064   5.496   7.130   5.125  0.0976 -0.0877 -0.1366
13591W        W30065   8.091   1.735   4.982 -0.2022  0.0299  0.2304
13592W        W30066  14.907  14.417  13.811 -0.1392 -0.1112 -0.3243
13593W        W30067  11.119  14.998  12.148 -0.0786 -0.0496 -0.2769
13594W        W30068  16.591  11.949  12.794 -0.0786  0.0368 -0.4636
13595W        W30069   2.190  14.625   0.475 -0.0862  0.1921  0.2376
13596W        W30070  13.275  14.471  15.139  0.0224  0.2232  0.0250
13597W        W30071   8.824   2.723  12.764  0.2752  0.2588 -0.0498
13598W        W30072   6.910   1.087  12.233  0.0039 -0.1886  0.3142
13599W        W30073  13.074   2.885  14.859  0.2101  0.0008 -0.2473
13600W        W30074   8.645  12.540   5.045 -0.0562 -0.2165  0.1170
13601W        W30075   1.192   1.711  12.054  0.1768 -0.2507 -0.3094
13602W        W30076   9.195  11.822   0.575 -0.0368  0.0592  0.0388
13603W        W30077  14.496   8.388  14.406 -0.3946 -0.1716 -0.0351
13604W        W30078   5.333  13.927  13.356  0.0992 -0.0351  0.0445
13605W        W30079  14.568  13.997  11.844 -0.0252 -0.1452  0.0084
13606W        W30080  13.590  17.666   3.367 -0.3108  0.1085  0.0317
13607W        W30081  16.586  13.167   1.159  0.1073 -0.2443  0.1038
13608W        W30082  18.141  17.329   1.111  0.4014 -0.0397 -0.1443
13609W        W30083  15.602  12.929   0.108 -0.0553 -0.1204  0.3975
13610W        W30084   8.740  16.710  15.027  0.1001 -0.0794  0.0066
13611W        W30085   8.013   5.422  14.218  0.1920  0.4020  0.2408
13612W        W30086  13.521   6.237  14.046  0.1867  0.1420  0.1958
13613W        W30087   9.335  18.075   0.501  0.3262  0.2483 -0.0042
13614W        W30088   4.217  18.012   2.485 -0.3959  0.1110 -0.0001
13615W        W30089  17.210  14.442   5.376  0.1663 -0.0621 -0.0253
13616W        W30090  14.584   4.256   1.945 -0.3148  0.1135 -0.0832
13617W        W30091  11.633  14.977  14.279 -0.0258  0.3880  0.0304
13618W        W30092   3.522  17.238   4.129 -0.0917 -0.1176  0.0173
13619W        W30093   4.808  12.839   4.045 -0.0592  0.0725 -0.1563
13620W        W30094  15.278   6.540   3.690 -0.1659 -0.2850  0.2083
13621W        W30095   1.723   8.366   4.529 -0.1678 -0.2598  0.0373
13622W        W30096   0.994  17.746  11.375 -0.2042 -0.0160  0.1667
13623W        W30097   7.229   5.006   5.225  0.1459 -0.1628 -0.0680
13624W        W30098   6.090   3.884  12.920  0.2160 -0.1019  0.4707
13625W        W30099   4.585  13.525   0.248  0.2695 -0.0858  0.0149
13626W        W30100  14.721   8.795   4.122 -0.0582 -0.0578  0.0967
13627W        W30101   9.552   4.425   1.276 -0.0232  0.0398  0.1751
13628W        W30102   8.398  16.635   5.202 -0.3032 -0.0197 -0.0073
13629W        W30103   1.994   4.772   2.719 -0.1788  0.2465  0.1163
13630W        W30104   4.391   2.085   1.847  0.0394  0.4156 -0.0117
13631W        W30105  17.775  16.035  13.777  0.0132  0.0353 -0.2985
13632W        W30106  14.440   1.473   1.223 -0.0770 -0.1542 -0.3987
13633W        W30107  12.816  11.665  13.403 -0.0061 -0.2855  0.1751
13634W        W30108  12.543  12.178   5.793 -0.0165  0.0537  0.2231
13635W        W30109  16.159   7.864   1.206  0.0208  0.3006 -0.0424
13636W        W30110   5.194   6.098  12.936  0.4390  0.2724  0.0879
13637W        W30111   7.762  15.962   2.339 -0.1358  0.3132 -0.0646
13638W        W30112   0.975  15.386   2.971 -0.1055 -0.0797 -0.3302
13639W        W30113   6.333   4.540   1.340 -0.0537  0.3296  0.1490
13640W        W30114  11.227   6.791  14.222  0.2511 -0.0698 -0.0999
13641W        W30115   7.100   8.933   3.426  0.0201 -0.1257 -0.0709
13642W        W30116   2.246   3.585   5.182 -0.1865  0.2771 -0.2122
13643W        W30117  10.551  16.626   0.226 -0.2167  0.1700  0.0537
13644W        W30118  11.238  13.491  13.402  0.2458 -0.0192  0.3854
13645W        W30119   0.275   4.712  14.267 -0.1582  0.0342 -0.1339
13646W        W30120  16.643   6.284   0.174 -0.0173  0.0262 -0.1252
13647W        W30121   8.845   8.571  13.275  0.1434 -0.0292  0.3791
13648W        W30122  16.640  13.491   5.152  0.1919  0.0296  0.0734
13649W        W30123   7.958   4.041   4.401 -0.1278  0.1357  0.0437
13650W        W30124  14.274   8.542  13.303  0.0242 -0.1499 -0.3550
13651W        W30125   4.059   1.774   3.514 -0.1998 -0.2277 -0.0501
13652W        W30126   1.367  16.698  14.004 -0.3645  0.0101 -0.2910
13653W        W30127  17.829   4.639  14.271 -0.0165 -0.3211 -0.1587
13654W        W30128   6.205   6.812  11.666  0.1132 -0.1375 -0.0131
13655W        W30129   4.437  10.963   3.568 -0.0163  0.0646  0.0292
13656W        W30130  16.632   1.359  15.723  0.2877  0.0347 -0.2425
13657W        W30131   5.650   0.302   5.492 -0.0116  0.1332  0.3628
13658W        W30132   4.273   9.993  10.876  0.1927  0.0886  0.1240
13659W        W30133   9.208   1.535  14.747 -0.2664  0.0991 -0.1643
13660W        W30134  10.782  11.808   1.977 -0.2174 -0.0672  0.2994
13661W        W30135   3.231   8.760  15.126 -0.2185  0.2352 -0.1243
13662W        W30136   1.124   3.831  15.833 -0.1364  0.0795 -0.0504
13663W        W30137   2.106   2.214  10.942 -0.1062 -0.3097 -0.0849
13664W        W30138   6.793  14.040   4.711  0.1111 -0.0836  0.2435
13665W        W30139  11.579   3.009  12.226 -0.0075 -0.0806  0.3788
13666W        W30140  17.569   8.486   0.358  0.0586 -0.1961 -0.0122
13667W        W30141  13.121   6.883   3.540  0.3223  0.1988 -0.0471
13668W        W30142   2.615   7.363  13.018 -0.2331 -0.3374  0.0710
13669W        W30143   0.978   7.183   0.989 -0.0351  0.1813 -0.1767
13670W        W30144   7.599  12.731   3.327 -0.0206 -0.0870  0.0605
13671W        W30145  11.404  15.338   4.360  0.1104  0.2708 -0.0263
13672W        W30146  14.467  14.313   5.389 -0.3374 -0.0409  0.1617
13673W        W30147  11.324   5.165   1.221  0.1147  0.0938  0.2158
13674W        W30148   4.695  12.361  11.148 -0.2167  0.3696 -0.0876
13675W        W30149   1.039   8.586  13.411  0.3045  0.4395  0.0698
13676W        W30150  15.285   7.243   2.780  0.0720 -0.1910  0.1610
13677W        W30151  16.359  14.206  13.573 -0.4927  0.0696 -0.1853
13678W        W30152   0.204   7.565   3.705  0.5159 -0.1029 -0.1778
13679W        W30153   9.773  16.960  14.692  0.2323  0.2377 -0.0455
13680W        W30154   6.612   4.074  12.966  0.4281 -0.0205 -0.1319
13681W        W30155   8.552   1.343  15.091  0.0579  0.1952 -0.3486
13682W        W30156   9.839  17.219   2.738  0.2327  0.1488 -0.1233
13683W        W30157  12.938  17.034   5.221  0.0901  0.2398  0.0174
13684W        W30158  10.326   2.389   4.949  0.1431  0.0134  0.1737
13685W        W30159  12.026  13.018   2.937 -0.0819  0.3072 -0.1969
13686W        W30160  12.498   7.306  15.810 -0.1018 -0.1787  0.2278
13687W        W30161   4.543   4.706   0.530 -0.1180 -0.1847  0.0642
13688W        W30162   1.352  15.356   2.543 -0.0584  0.4032 -0.1762
13689W        W30163  17.099   4.045   4.197 -0.1650 -0.0736  0.0919
13690W        W30164  18.187   5.257  11.801  0.0818 -0.1366 -0.0827
13691W        W30165  14.563   0.911  13.461  0.0625  0.1368  0.0310
13692W        W30166  15.812   7.224   4.795 -0.1086  0.0088 -0.0544
13693W        W30167  16.601   1.451  13.915  0.0574  0.0011 -0.0217
13694W        W30168  13.423   7.472   4.936 -0.2629 -0.0250 -0.0088
13695W        W30169  10.955  17.737  11.960 -0.0407 -0.3600 -0.0437
13696W        W30170   0.351   0.256  11.684  0.0684 -0.0194  0.0027
13697W        W30171   0.124   0.775  11.207 -0.1468 -0.1165  0.0259
13698W        W30172  12.924  15.838   0.006 -0.1488  0.2581  0.4631
13699W        W30173  17.118  17.778   4.139 -0.0712  0.2116  0.0929
13700W        W30174   9.194  16.640   5.448 -0.2199  0.2149  0.2535
13701W        W30175  16.247   0.636   4.669 -0.1520 -0.0824  0.1274
13702W        W30176   3.272  13.318  15.189  0.6229 -0.2692 -0.1181
13703W        W30177  12.319   0.586   4.840 -0.0490  0.0421 -0.0172
13704W        W30178  15.332  13.179  14.435  0.0713  0.3182  0.0058
13705W        W30179   0.352  14.422  13.578  0.1086 -0.0611  0.0003
13706W        W30180  16.962  12.048   1.485 -0.1672 -0.0251  0.0343
13707W        W30181  17.520   6.963   4.677  0.1141 -0.2210  0.1195
13708W        W30182   0.782   2.648   4.182 -0.0308  0.0975  0.0263
13709W        W30183  15.520  17.590   1.298  0.0497 -0.0872  0.0884
13710W        W30184   4.563   6.949  15.361 -0.3290 -0.0322 -0.1858
13711W        W30185  16.295   0.154  13.486 -0.4399 -0.3842 -0.0156
13712W        W30186  13.625   1.109   0.551  0.0340  0.1035 -0.1051
13713W        W30187  14.023  13.095  11.608 -0.1828 -0.2729 -0.1860
13714W        W30188  17.719   4.960  11.355 -0.1235 -0.2546  0.2743
13715W        W30189   9.589   9.443   2.722  0.0850  0.1108 -0.2545
13716W        W30190  16.411   2.695  15.910  0.0082  0.0043  0.0524
13717W        W30191  13.207  13.181   3.757  0.0471  0.2385 -0.1581
13718W        W30192  15.489   0.677   1.776 -0.2524  0.0643  0.2979
13719W        W30193  17.721  12.261  13.088  0.5799 -0.2640  0.2160
13720W        W30194   5.024  11.896   0.661 -0.4541 -0.3190 -0.1477
13721W        W30195  12.357   8.488   1.424  0.1003 -0.1008 -0.0537
13722W        W30196  12.811   5.725  13.936  0.3957 -0.2174  0.1724
13723W        W30197  13.946   9.007   2.919  0.0792 -0.1021  0.1022
13724W        W30198   5.537   8.702  16.175  0.1964 -0.1608  0.2805
13725W        W30199  15.883   4.135  11.810  0.0685 -0.1136 -0.1508
13726W        W30200  16.464   1.571  14.795 -0.2130  0.0058  0.1506
13727W        W30201  16.947  15.888  11.220 -0.1295 -0.0322 -0.1434
13728W        W30202   9.830  15.319  15.865  0.0005 -0.0563 -0.0479
13729W        W30203   9.313  13.469   4.229  0.1238 -0.1106  0.1374
13730W        W30204  15.596   1.969  15.815  0.0829 -0.1312 -0.0349
13731W        W30205   3.404  16.824  13.431 -0.3122  0.5545 -0.0712
13732W        W30206  11.063   3.157   4.738 -0.0139 -0.3958  0.2434
13733W        W30207  10.019  14.624   6.564 -0.0896 -0.1865  0.0199
13734W        W30208   1.334  12.468  13.894  0.3251  0.1929 -0.2327
13735W        W30209   2.457   5.417  15.862 -0.3101 -0.0611 -0.1130
13736W        W30210   9.485   4.665  13.144 -0.1119  0.1075  0.2343
13737W        W30211  14.387   9.265   0.425 -0.2803 -0.0787 -0.0448
13738W        W30212  12.438  10.026  11.478 -0.1080 -0.1046 -0.1025
13739W        W30213  15.914   0.649  12.717  0.2359  0.0858 -0.0974
13740W        W30214   6.951  11.288   5.702  0.0667  0.0165 -0.0796
13741W        W30215  14.635   3.100  16.065  0.0917  0.1859 -0.2065
13742W        W30216  13.426  17.416  13.450  0.2984 -0.1278  0.0570
13743W        W30217  11.995  12.330   3.321 -0.1368  0.0074 -0.0735
13744W        W30218  11.876   3.593   4.259  0.0410 -0.0784 -0.3038
13745W        W30219  11.907   5.768  11.676 -0.0374  0.0524  0.2151
13746W        W30220   6.049  17.496   3.112  0.0829  0.1864 -0.0375
13747W        W30221  12.579   3.273  12.122  0.1772  0.2886 -0.0539
13748W        W30222   0.274   3.644   0.476  0.3930 -0.2741 -0.2306
13749W        W30223  17.325   8.255   3.797  0.1645  0.0680 -0.0510
13750W        W30224   7.489   7.858   2.823 -0.2488 -0.3514 -0.0852
13751W        W30225   8.150   3.162  10.822  0.2104  0.2123 -0.2608
13752W        W30226   9.796   7.514  12.813 -0.0467  0.1365  0.2434
13753W        W30227   3.545  12.472   1.253 -0.2310  0.3221  0.0846
13754W        W30228   2.231   3.427   0.443 -0.1777 -0.1004 -0.3466
13755W        W30229  17.875  10.761   0.551  0.3560  0.0723  0.0182
13756W        W30230  16.807   0.625  12.105 -0.1988  0.2112  0.1483
13757W        W30231  13.417   8.026   4.147 -0.3424  0.0409  0.0008
13758W        W30232  11.876   7.478   0.540  0.1113 -0.0814 -0.0796
13759W        W30233   0.368  10.464  12.244  0.1056  0.0229 -0.0376
13760W        W30234   7.435   3.169  13.687  0.0400  0.1142 -0.1313
13761W        W30235   6.387   6.652  14.333 -0.1653  0.1760 -0.2929
13762W        W30236   8.195  10.247  13.983 -0.0388 -0.2217 -0.0845
13763W        W30237   3.786  12.315  15.614 -0.2122 -0.2632 -0.0930
13764W        W30238  11.303   2.216  10.710  0.1935  0.0810  0.0937
13765W        W30239   2.544  11.629  15.690 -0.1037 -0.0126 -0.2334
13766W        W30240  15.240   8.345   4.428 -0.1133 -0.0204  0.1796
13767W        W30241   1.116  14.715   3.243  0.1092  0.2313 -0.0395
13768W        W30242   0.282   8.265   5.601  0.0685  0.0733  0.1308
13769W        W30243   3.756  11.664  11.670  0.2981 -0.1091  0.0065
13770W        W30244   7.353  11.082   3.787 -0.2979 -0.2729  0.1639
13771W        W30245  14.164   2.640   0.443  0.0720  0.0565  0.2381
13772W        W30246  17.650  16.571  14.473  0.0552  0.0513  0.1733
13773W        W30247   1.806   7.968   5.682 -0.4835  0.0881 -0.1886
13774W        W30248  13.379   9.007  15.643 -0.0735 -0.2594 -0.2624
13775W        W30249  17.545  17.860  13.254 -0.0883 -0.2075 -0.0313
13776W        W30250   0.259  16.378   1.032  0.3346 -0.0446  0.2378
13777W        W30251  16.826  14.350  15.089 -0.1222  0.0515 -0.0201
13778W        W30252   9.200   2.212  12.185  0.2008  0.1487 -0.1131
13779W        W30253  16.006  15.403   5.674  0.2952  0.2045  0.1231
13780W        W30254  15.111   3.956   4.131  0.4197 -0.2132  0.1343
13781W        W30255  13.764  10.239  13.811  0.1671 -0.2267  0.2106
13782W        W30256   9.636  10.164   2.363 -0.0277  0.1461 -0.1450
13783W        W30257  12.124   1.137   0.131  0.1266  0.0392  0.1751
13784W        W30258   3.765  14.321   5.600  0.1285  0.3690 -0.2624
13785W        W30259   5.270   0.367  12.558  0.1384  0.1873 -0.2467
13786W        W30260  14.187   3.552   5.669  0.0153 -0.3268 -0.2673
13787W        W30261   8.915  11.234  12.183 -0.0478  0.0118 -0.2866
13788W        W30262   9.266   0.547   2.343 -0.2392 -0.3345 -0.0865
13789W        W30263  11.447  14.086  15.821  0.1259  0.0924 -0.2299
13790W        W30264  13.335   6.094  12.284 -0.0415  0.0154  0.0878
13791W        W30265   8.210   0.991  11.691 -0.0477 -0.0389 -0.1362
13792W        W30266  11.966   1.412   2.267  0.1838  0.0088  0.0059
13793W        W30267  15.178   4.840   2.150 -0.0518  0.4663 -0.1149
13794W        W30268   5.171  13.206   2.257  0.1979 -0.1120 -0.0632
13795W        W30269   4.686  13.491   5.158  0.1106 -0.0830 -0.2926
13796W        W30270   7.518   3.443   0.660 -0.0049 -0.1801 -0.4648
13797W        W30271  12.678  12.319   3.821 -0.0430  0.1831 -0.1094
13798W        W30272  12.009  18.296   2.551  0.2302 -0.0894 -0.1663
13799W        W30273  14.277  17.203  16.210 -0.1202 -0.1631 -0.1208
13800W        W30274   0.304   6.469  11.648  0.1085 -0.2482  0.0536
13801W        W30275   9.749  10.417   3.708  0.4460  0.0484 -0.0408
13802W        W30276  14.486  16.366   4.867 -0.1231  0.2999 -0.1587
13803W        W30277   2.853   6.043   5.584 -0.3767 -0.0600  0.3565
13804W        W30278  12.844   1.670  11.821 -0.2645 -0.0135  0.0105
13805W        W30279   5.759  17.443  16.048  0.2435 -0.1233  0.1096
13806W        W30280   1.858   2.433   5.070  0.1907  0.0575 -0.1140
13807W        W30281   1.432  12.918  13.295  0.0620  0.1769  0.0514
13808W        W30282  12.381  17.096   2.380 -0.0800  0.0814  0.0643
13809W        W30283  13.394   8.352   2.200  0.1180  0.0657 -0.1193
13810W        W30284  14.021   0.744   2.202  0.1182  0.0368 -0.5816
13811W        W30285  16.971  14.319  13.342  0.0213  0.1185 -0.3066
13812W        W30286   6.450   3.063  14.011  0.3035 -0.2124 -0.0738
13813W        W30287  13.705  12.718  16.248  0.0226 -0.1895  0.0718
13814W        W30288  13.867   3.979   3.945 -0.0496  0.2432  0.3805
13815W        W30289   7.793   1.153   4.195  0.0429  0.0946  0.2459
13816W        W30290   2.480  11.748  12.035 -0.0603  0.1553  0.0716
13817W        W30291   5.463  17.186  12.972  0.1128  0.1159 -0.0569
13818W        W30292   9.583   4.414  12.550 -0.1240 -0.2138 -0.1182
13819W        W30293   0.040   6.786  14.599  0.0035  0.2879  0.1824
13820W        W30294  10.057  11.607  16.077  0.3952 -0.2234  0.0113
13821W        W30295  10.538   9.945  12.892 -0.1324 -0.1581  0.0241
13822W        W30296  17.212  11.186  15.602 -0.1562  0.0340  0.0136
13823W        W30297   8.546   1.848  11.340 -0.2030  0.1356 -0.1259
13824W        W30298  14.672   5.595  14.752  0.0193  0.2022  0.1091
13825W        W30299  18.295  17.290  14.190  0.0274  0.1751 -0.1503
13826W        W30300  10.660   8.420  12.991  0.0825 -0.0766 -0.0192
13827W        W30301  14.335  11.837  14.051 -0.2118 -0.4238  0.1021
13828W        W30302  12.313   9.401  14.277 -0.1515 -0.1215  0.3347
13829W        W30303  15.955  13.845  14.453  0.0001 -0.1056  0.0122
13830W        W30304  10.524   0.557   5.155 -0.2771 -0.0339 -0.1224
13831W        W30305  16.129   7.185  14.206  0.2353 -0.0668 -0.3779
13832W        W30306   5.092  18.205  15.149 -0.1693  0.1072  0.1709
13833W        W30307   9.476   1.393  15.374  0.2307 -0.4104  0.0609
13834W        W30308   9.233   6.063   4.566 -0.2152  0.1252 -0.1243
13835W        W30309   8.193  17.053  13.819 -0.0100  0.1811 -0.1831
13836W        W30310  10.120   0.545   2.192  0.0839 -0.1385  0.0228
13837W        W30311  14.033   4.263  14.394  0.0452  0.0107 -0.3824
13838W        W30312   2.744   4.354  11.918 -0.0272  0.0579 -0.0886
13839W        W30313  11.994   9.153  15.912  0.1384  0.1228  0.1189
13840W        W30314   4.467   7.473  15.293  0.0123  0.1671 -0.0634
13841W        W30315  16.911  17.486  14.482  0.0480  0.1092 -0.2653
13842W        W30316  18.178   2.927  15.580  0.1301 -0.2111  0.1088
13843W        W30317   0.495  17.797  16.255  0.1713  0.3271 -0.2675
13844W        W30318  11.881   7.299  13.692  0.0309  0.0502  0.0559
13845W        W30319   6.404  12.029   0.289  0.0353 -0.4155 -0.0209
13846W        W30320  17.975  17.215  13.443  0.1308  0.1015 -0.0983
13847W        W30321   8.642  16.055   3.642  0.2299  0.0163  0.0579
13848W        W30322  17.450   8.278   2.819 -0.0620  0.1258 -0.0957
13849W        W30323  17.023  13.525   0.984 -0.0396 -0.3136 -0.1862
13850W        W30324   6.275   5.884   2.434 -0.0818 -0.0168  0.1938
13851W        W30325   0.452   7.067   5.021 -0.2104 -0.1542 -0.0043
13852W        W30326  10.779  17.289  11.650 -0.1717 -0.0526 -0.0210
13853W        W30327   0.712  10.488   3.565  0.0280 -0.0148 -0.4068
13854W        W30328   7.993  13.706  16.206  0.1283 -0.0481 -0.1320
13855W        W30329   9.496   7.751  12.027 -0.0706 -0.1435  0.0252
13856W        W30330  15.944   7.525   1.501  0.1378 -0.1466  0.1774
13857W        W30331  16.368   0.212   5.380 -0.1006 -0.0376  0.1504
13858W        W30332  17.950  12.903   4.679  0.2967 -0.0216  0.3123
13859W        W30333  14.962  14.560   0.459  0.0706 -0.1092 -0.0086
13860W        W30334  11.020  14.199   1.207  0.2522  0.0974 -0.0703
13861W        W30335  10.215   3.762   2.511  0.0094 -0.2470 -0.1494
13862W        W30336  17.446   9.028   1.995 -0.3119  0.3051  0.2428
13863W        W30337   8.284  14.467   5.795  0.0300  0.2349  0.1689
13864W        W30338  17.658  12.328   2.817  0.1563  0.4501 -0.2936
13865W        W30339   0.639   4.477  13.813  0.2505  0.0923 -0.0445
13866W        W30340   4.140   6.764  13.269  0.2236 -0.0213 -0.3105
13867W        W30341   9.948   2.421   1.322  0.1160  0.0608  0.0297
13868W        W30342  10.112  11.558   4.923 -0.0011  0.1180  0.1031
13869W        W30343  17.466   2.105   1.766 -0.0326  0.4254  0.1484
13870W        W30344   4.483  16.746   1.817 -0.1115  0.2575 -0.1869
13871W        W30345  13.993  10.194  14.256 -0.2185  0.4164  0.3826
13872W        W30346  14.062  14.467  15.380  0.1622 -0.0464  0.1292
13873W        W30347  12.457   1.153  12.455  0.2884 -0.1995  0.2622
13874W        W30348   1.747  13.719   0.179  0.1060 -0.1903  0.1169
13875W        W30349  10.135  17.904   3.257 -0.0274 -0.1960 -0.2073
13876W        W30350  15.720  10.980  12.592 -0.1338  0.0448 -0.0691
13877W        W30351  16.240   3.101   2.710  0.0063  0.3115 -0.0224
13878W        W30352   6.681  10.278  13.952  0.2852  0.0657  0.0077
13879W        W30353   7.054   7.670  13.137 -0.0537 -0.1631 -0.1999
13880W        W30354   1.487  14.300   3.298 -0.4424  0.0158  0.1716
13881W        W30355  16.459   4.418   1.382 -0.1212  0.2776 -0.0152
13882W        W30356   1.806  17.216   0.856  0.0057  0.4034  0.0323
13883W        W30357   8.343   4.032   2.051  0.1079  0.1337  0.0552
13884W        W30358   9.107  10.782  11.896  0.1023  0.1565  0.1187
13885W        W30359  12.075   4.409  14.194 -0.3909  0.0051 -0.1022
13886W        W30360  12.559   0.649  15.572 -0.1732 -0.2865  0.0326
13887W        W30361   2.939   8.484  15.626 -0.1045 -0.3496  0.3740
13888W        W30362   2.389   6.009  13.778 -0.0490  0.2291 -0.0968
13889W        W30363   2.558   4.772  15.588  0.0045 -0.1056  0.0689
13890W        W30364   0.934   1.769  15.304  0.0844  0.3107  0.0679
13891W        W30365   5.739  16.068  13.000 -0.1059  0.1477  0.0757
13892W        W30366  17.886  12.668  14.086  0.0656 -0.3616 -0.1760
13893W        W30367   9.236  13.759  15.106  0.0291  0.3420 -0.0619
13894W        W30368   5.613   2.460   1.534  0.2141  0.0197 -0.0854
13895W        W30369   1.792   2.673   4.300  0.3026  0.2150 -0.0470
13896W        W30370   3.690  16.480  16.196  0.2082 -0.4239  0.2807
13897W        W30371  16.364  10.482   1.266 -0.0898 -0.2805  0.2835
13898W        W30372   5.254   3.718   3.202 -0.1716 -0.1865 -0.0490
13899W        W30373   9.482   5.297  11.405  0.1016 -0.0799  0.0447
13900W        W30374   2.095   2.000  14.478 -0.0351  0.2254  0.0144
13901W        W30375   4.375  11.058  15.031  0.2146 -0.4091  0.0815
13902W        W30376  11.613  11.135   0.727  0.2336 -0.1639 -0.2495
13903W        W30377   3.141   4.025  11.928  0.1802 -0.2439 -0.0381
13904W        W30378   2.481   4.145   3.218 -0.0329 -0.0372 -0.0161
13905W        W30379  16.464  17.281  15.777  0.1701  0.2833  0.0880
13906W        W30380   8.049  15.178  14.128 -0.1117  0.0134 -0.1731
13907W        W30381  16.549   5.368   0.052  0.2930 -0.2712  0.1116
13908W        W30382   6.403   7.056  12.959  0.4334  0.0931  0.4705
13909W        W30383   6.473   0.128   5.141  0.1630 -0.0165 -0.2087
13910W        W30384  16.885   5.121  15.616  0.0159 -0.1876  0.3129
13911W        W30385  14.794  14.034   3.533 -0.0835  0.3815 -0.1934
13912W        W30386   8.713  12.027  13.145 -0.2084 -0.1506 -0.1515
13913W        W30387   9.344   5.167  13.883  0.2964 -0.1041  0.2685
13914W        W30388  13.500  16.908   4.584 -0.3118 -0.0355 -0.0695
13915W        W30389  16.096   4.741   3.343 -0.1516 -0.2124  0.2397
13916W        W30390   6.721  13.386  12.407 -0.2402  0.3375 -0.2635
13917W        W30391   6.051   7.572  14.286  0.0467  0.0332 -0.0556
13918W        W30392  12.138   0.550   2.736 -0.1872 -0.1122 -0.1003
13919W        W30393   4.078   7.775   4.966 -0.3249  0.1028  0.3661
13920W        W30394  10.829   1.743   1.150 -0.0139  0.1498 -0.0911
13921W        W30395   2.190  10.448  11.219  0.1289 -0.0201  0.0856
13922W        W30396   0.868  13.271  14.416  0.3146 -0.2061  0.1817
13923W        W30397   8.636  13.929  12.709 -0.1869 -0.1496  0.2509
13924W        W30398   1.276   9.436   1.121  0.0053 -0.3213 -0.0230
13925W        W30399   0.694   0.508   0.015 -0.0189  0.1781 -0.5133
13926W        W30400   0.908   9.197   2.693 -0.3064  0.2108 -0.0764
13927W        W30401  16.418  11.377   4.641 -0.3384 -0.3182 -0.0867
13928W        W30402   6.974  17.364  11.909 -0.0809  0.0640 -0.1848
13929W        W30403   2.979   1.987   0.397 -0.3614  0.0521  0.1987
13930W        W30404  13.410  12.775   5.521 -0.2915  0.2057 -0.1629
13931W        W30405   5.538  17.869  15.058  0.1193  0.0673 -0.0498
13932W        W30406  11.722   7.286   1.323 -0.0871  0.1274  0.3005
13933W        W30407  12.566   0.218  14.578 -0.2172 -0.0561 -0.1237
13934W        W30408   3.597  15.999  14.187  0.2675  0.2323  0.2338
13935W        W30409   7.737  13.298  12.801  0.0663  0.5165 -0.0534
13936W        W30410   0.550   4.580  11.051 -0.3226 -0.1163 -0.0306
13937W        W30411   5.997   2.041  14.604 -0.0314  0.0778  0.1164
13938W        W30412   0.962  12.665   0.994 -0.2770 -0.0499  0.0626
13939W        W30413   7.143   4.600   0.144 -0.3120  0.2694  0.1836
13940W        W30414   4.370  10.668  15.957 -0.0254 -0.2488 -0.0379
13941W        W30415   5.371   6.554  15.413  0.2371  0.2194  0.1149
13942W        W30416   6.131   0.584  12.683 -0.3877 -0.0010  0.0899
13943W        W30417  15.147  18.055  13.631 -0.2641  0.0807  0.2111
13944W        W30418   5.002  13.254  12.564 -0.0343 -0.0244  0.0515
13945W        W30419   6.973  17.261  13.057  0.1631 -0.0547  0.0070
13946W        W30420   1.991   9.587  13.038  0.2679 -0.0528 -0.2407
13947W        W30421  12.868  15.496   0.348  0.0650 -0.2038 -0.0381
13948W        W30422   8.941   1.265  13.163  0.3429 -0.4073  0.0858
13949W        W30423  12.443   2.214  12.897 -0.1967 -0.2833  0.0635
13950W        W30424   6.511  17.228  12.162  0.2706  0.1723  0.0472
13951W        W30425   6.612   3.074   0.955 -0.0939 -0.2008  0.0546
13952W        W30426   9.649   4.099  10.831  0.1074 -0.0289 -0.0433
13953W        W30427  17.013   5.645   5.343  0.3107 -0.0971  0.0060
13954W        W30428  14.764  11.626  14.912 -0.3694  0.2272 -0.1239
13955W        W30429  16.808   9.175  13.607  0.1233 -0.3094 -0.1894
13956W        W30430  12.890   3.328  12.576  0.1376 -0.1762  0.5188
13957W        W30431   1.602  10.205  12.508  0.0164  0.2219 -0.1117
13958W        W30432  16.965  12.448   5.206  0.1455 -0.1572 -0.2118
13959W        W30433  13.800  13.067   4.260 -0.1416  0.1252 -0.1788
13960W        W30434   9.281   3.813  13.114  0.1708  0.1816 -0.2471
13961W        W30435   2.103   2.763   3.897 -0.0202  0.3015 -0.0245
13962W        W30436  10.892  17.148  14.078  0.1229 -0.2464 -0.2097
13963W        W30437  18.241   2.145   4.180  0.1265 -0.1771 -0.1592
13964W        W30438   0.610   6.666  15.879 -0.2209  0.1979 -0.1356
13965W        W30439   2.111   5.670   4.215  0.2027  0.0499 -0.0377
13966W        W30440   7.357  11.797   3.700 -0.1067  0.3181  0.1905
13967W        W30441   7.039  12.721   4.248  0.0155  0.1824 -0.0237
13968W        W30442  13.083   3.308  12.083 -0.0348  0.1212 -0.0307
13969W        W30443   5.302  12.901   1.238 -0.0353 -0.1153 -0.0375
13970W        W30444  14.665  13.972   2.419 -0.0844 -0.0657 -0.1387
13971W        W30445   0.081   7.079  13.444  0.0815  0.1118  0.2270
13972W        W30446   7.629   5.757   4.543 -0.2695 -0.0038  0.0472
13973W        W30447   6.026   0.036  10.448  0.0010  0.3588 -0.1892
13974W        W30448   4.682  14.029  15.609  0.0467  0.1169 -0.1133
13975W        W30449   0.613   4.450  12.399 -0.1099 -0.0349  0.2920
13976W        W30450   5.943  10.195  12.186  0.1105  0.1361  0.1298
13977W        W30451   2.265   9.583   2.195  0.2204 -0.1642 -0.1479
13978W        W30452  12.339   2.729  13.142  0.0886 -0.0380  0.2672
13979W        W30453   6.598  17.132  15.603 -0.4529  0.0652 -0.1971
13980W        W30454   1.528   5.046   0.762 -0.3869 -0.4416  0.1483
13981W        W30455   9.531  16.931   0.071  0.2957  0.1903 -0.2666
13982W        W30456  11.644   2.053   1.356  0.1260  0.2275 -0.1187
13983W        W30457  14.633   7.606   1.248  0.0358 -0.0902 -0.1258
13984W        W30458   8.181   1.315  15.869 -0.0781 -0.2131 -0.1702
13985W        W30459   7.383   0.735  15.776 -0.0428  0.0499 -0.1854
13986W        W30460  11.521   6.585  12.097 -0.1275 -0.0755  0.1002
13987W        W30461   4.362  17.234  15.452  0.1263 -0.1575 -0.2984
13988W        W30462   4.533  15.844   4.697 -0.3284 -0.4512 -0.5205
13989W        W30463  10.432   3.821  15.367 -0.2765  0.0751 -0.0354
13990W        W30464   2.851   1.906  15.157 -0.1134 -0.0049  0.3060
13991W        W30465  14.794  18.119   0.909  0.0764  0.0059  0.1787
13992W        W30466  16.750   1.372   4.738  0.1639 -0.1024  0.1140
13993W        W30467  16.084   1.881   0.079  0.0046  0.0433  0.0662
13994W        W30468  11.212   0.481   3.415  0.1106  0.1107  0.1000
13995W        W30469  16.273   7.558  14.520 -0.3558 -0.0248  0.2744
13996W        W30470   2.884   3.223  11.712 -0.0075 -0.1433  0.3120
13997W        W30471  17.647  11.349  15.196 -0.2534 -0.0852 -0.1633
13998W        W30472  17.006  10.973   0.157 -0.0117 -0.1492 -0.1135
13999W        W30473  11.902   1.308  11.635  0.0028 -0.2249 -0.0216
14000W        W30474  13.577   6.730  13.243 -0.3202  0.2254  0.0510
14001W        W30475   7.646  13.758   4.909 -0.0377 -0.1550  0.0486
14002W        W30476  13.677   7.042   3.585 -0.0981  0.0695  0.2639
14003W        W30477  16.882   6.416   5.097 -0.2843 -0.2156 -0.0044
14004W        W30478   4.782   9.187   4.742  0.1272  0.0360  0.4150
14005W        W30479  13.892   7.232  10.906 -0.3420 -0.1913 -0.0129
14006W        W30480   5.833  14.914  13.512  0.0212  0.0940 -0.1647
14007W        W30481   2.355   8.321   4.967  0.0622  0.2086  0.0892
14008W        W30482   0.217  11.194   0.950 -0.0894  0.2798 -0.1287
14009W        W30483  17.976   1.777   2.781  0.3170 -0.0139  0.1210
14010W        W30484   9.962  18.121  15.239 -0.0117  0.0414  0.1396
14011W        W30485  18.184  10.371   0.859  0.0345 -0.0705  0.0774
14012W        W30486   0.929   1.111   0.465 -0.0902 -0.3595 -0.1907
14013W        W30487   5.814  15.607  15.841  0.0777  0.1800  0.1407
14014W        W30488  16.370  15.028   4.468 -0.0306 -0.0822  0.0655
14015W        W30489   4.828  15.460  12.710 -0.1368  0.4106 -0.1767
14016W        W30490   6.088   6.147   5.709 -0.6060 -0.0262 -0.0129
14017W        W30491  10.804  10.665   0.470  0.0524  0.0800 -0.2547
14018W        W30492  15.850  16.506   3.591 -0.0822  0.0617 -0.0487
14019W        W30493  15.225  14.287   3.066  0.1384  0.2999 -0.0475
14020W        W30494  17.719   7.182   3.226  0.0424 -0.0154  0.0766
14021W        W30495  16.463  16.868  16.080 -0.0293  0.1495 -0.0289
14022W        W30496   4.521   2.616  14.060 -0.1408 -0.1251 -0.1945
14023W        W30497   2.305  10.186  13.302 -0.1727  0.0060  0.0571
14024W        W30498   0.004   5.034  13.797  0.0802 -0.2310 -0.0268
14025W        W30499  15.819   5.117   2.650 -0.1198 -0.0425  0.0468
14026W        W30500   0.799   8.768  14.323 -0.1120  0.1027 -0.2949
14027W        W30501   6.731  15.882  15.064 -0.0428  0.0467 -0.1620
14028W        W30502   5.659  10.163   2.654  0.1868  0.0562 -0.1083
14029W        W30503  10.649   3.703   3.703 -0.0070 -0.1299  0.1204
14030W        W30504   7.665   9.189   0.855 -0.1544 -0.0334 -0.2063
14031W        W30505  15.206   8.841  12.919  0.1463  0.0677  0.0542
14032W        W30506  13.376   6.208   4.175  0.2956  0.2340  0.1934
14033W        W30507   5.835   1.895   4.855 -0.1340 -0.0331  0.0122
14034W        W30508  16.354   5.858   4.373  0.1959  0.0981 -0.2959
14035W        W30509   2.521   3.992   0.139 -0.1511 -0.0631  0.2742
14036W        W30510   2.715  13.171   2.770  0.0857 -0.4398 -0.1146
14037W        W30511   9.448   6.816   1.625 -0.1492 -0.1096 -0.0116
14038W        W30512  17.750  17.008   1.077 -0.1147 -0.3942 -0.1539
14039W        W30513  14.853   7.785  13.703 -0.0235 -0.0280  0.1121
14040W        W30514   7.097  11.433   5.174  0.1253  0.2736 -0.1346
14041W        W30515  11.430   2.148  15.208 -0.2907  0.0711  0.1441
14042W        W30516   4.971   3.947   5.518 -0.0624 -0.1280  0.0795
14043W        W30517  11.620  12.106  12.008  0.1374 -0.0885 -0.0020
14044W        W30518  18.143  10.976   3.314  0.1404 -0.1112 -0.5123
14045W        W30519   3.083   3.402   1.519  0.2834  0.0274  0.0402
14046W        W30520   2.380   2.685  14.241 -0.1847  0.2816  0.0614
14047W        W30521   0.706   8.223   4.725  0.2602  0.1023 -0.1919
14048W        W30522  14.622   7.841  14.455 -0.3908 -0.0963 -0.0175
14049W        W30523  12.849   4.654   3.260 -0.0711 -0.2996 -0.0155
14050W        W30524   1.094  17.418  11.674 -0.1376 -0.1926  0.2120
14051W        W30525   3.344  13.434   3.420 -0.0369 -0.1990 -0.0129
14052W        W30526  13.363  17.360  15.155 -0.0045  0.3453  0.2141
14053W        W30527  12.839  14.376  15.530  0.0651 -0.1936 -0.1254
14054W        W30528  15.743  10.420   0.246  0.2766 -0.0285 -0.0862
14055W        W30529  14.224   4.473  13.696  0.0140 -0.1805  0.3313
14056W        W30530   2.967  15.932  15.843 -0.0201 -0.1863  0.1339
14057W        W30531   9.065   7.414  13.714 -0.0922  0.0943 -0.0136
14058W        W30532   5.035  18.284   2.551  0.1859 -0.3477 -0.2929
14059W        W30533  10.290   2.198  13.777  0.0244  0.1651 -0.0441
14060W        W30534   8.201   9.574   1.686  0.0892  0.0296 -0.0410
14061W        W30535  10.859  15.931   5.446  0.1646  0.0036 -0.0264
14062W        W30536  14.212   7.019   1.529 -0.1600  0.0259  0.0897
14063W        W30537   7.221  12.748   2.451  0.1915  0.0935 -0.1794
14064W        W30538   0.035   8.414   4.014 -0.0060 -0.0845  0.3391
14065W        W30539   6.093   7.143   6.007  0.3167 -0.2114 -0.1935
14066W        W30540   8.568   7.795   4.596 -0.0580  0.0233  0.0988
14067W        W30541  11.150   1.349   5.198 -0.1221 -0.1964 -0.1170
14068W        W30542  11.077  11.563  14.678 -0.1944  0.0237  0.1651
14069W        W30543   9.905   2.368  14.033  0.2669  0.3958  0.2523
14070W        W30544  18.277  15.140   2.371  0.1981  0.4038  0.1978
14071W        W30545  15.989  12.541   6.084 -0.1632 -0.1073  0.3088
14072W        W30546   1.968  18.051  14.797 -0.1373  0.1108 -0.0442
14073W        W30547   9.830   0.575   0.810 -0.0165  0.1715 -0.0458
14074W        W30548   6.418   7.444  15.349  0.0921 -0.1874 -0.1033
14075W        W30549  15.164   0.557  11.769 -0.2267  0.1179 -0.2526
14076W        W30550  15.180   9.599   4.928  0.0800 -0.2858  0.1155
14077W        W30551   2.772  12.547   2.167  0.0978 -0.2279 -0.0675
14078W        W30552   6.881  10.979  13.556  0.0975 -0.1254 -0.0035
14079W        W30553  13.096  11.342   3.301 -0.1016 -0.0505  0.1281
14080W        W30554   5.770  10.737   0.564  0.1886 -0.2546 -0.0252
14081W        W30555   8.127   9.134  16.193  0.0510  0.0051 -0.1237
14082W        W30556  15.431   4.918   3.982  0.0529  0.1274 -0.1902
14083W        W30557   7.376  14.870   4.766 -0.2083  0.2026  0.0739
14084W        W30558   9.095  18.017   0.049  0.0673 -0.1415  0.0542
14085W        W30559  15.991   7.882  14.173  0.2249  0.1720 -0.1816
14086W        W30560  11.062   8.766  12.045  0.1001 -0.0568 -0.1143
14087W        W30561   6.265  16.314  13.311 -0.0576 -0.3300  0.0510
14088W        W30562   6.186   6.161   1.693 -0.1302 -0.1002 -0.0295
14089W        W30563   0.045  11.957  12.553  0.0124  0.1021  0.0090
14090W        W30564   7.758   4.307   1.632 -0.2745 -0.1157  0.0356
14091W        W30565  10.922  15.665  12.665 -0.0926  0.0527 -0.1151
14092W        W30566  12.782   8.210  12.375  0.1595  0.3793 -0.0646
14093W        W30567   0.360  13.770   6.195  0.0017  0.0965  0.0279
14094W        W30568   8.825   1.243   1.168 -0.1883  0.2161  0.2099
14095W        W30569  11.461   2.056  13.994 -0.0338  0.1576 -0.1732
14096W        W30570   4.789  12.620  13.328 -0.0030 -0.0503 -0.1327
14097W        W30571   2.325   2.202   1.534 -0.0915  0.1010 -0.3575
14098W        W30572   3.060  16.432   4.064  0.5010 -0.2478 -0.0117
14099W        W30573   8.559   2.575   4.693 -0.1993 -0.0725 -0.0932
14100W        W30574  17.399   7.420   3.672 -0.2958 -0.3048 -0.0996
14101W        W30575  14.388   6.520   0.243 -0.0131  0.1408 -0.3088
14102W        W30576   9.397  14.445   2.313  0.0839  0.1385  0.1448
14103W        W30577   1.578   8.698   1.766  0.1976  0.2697 -0.3421
14104W        W30578   8.242  13.569  13.132  0.0199 -0.2455 -0.0805
14105W        W30579   9.145  13.375   3.151 -0.0134  0.0993 -0.1736
14106W        W30580  11.723   3.228  13.870 -0.1029  0.1303 -0.1181
14107W        W30581  13.016   0.011  13.352  0.0555  0.0305 -0.2057
14108W        W30582   0.818  15.583  16.055 -0.2168 -0.0454  0.1580
14109W        W30583   1.927   5.090  14.680  0.1959 -0.0122  0.1534
14110W        W30584   0.593   1.780  13.282  0.0816 -0.1380  0.2578
14111W        W30585   5.292   0.426  12.048 -0.0132 -0.0750  0.3590
14112W        W30586  14.791  14.933   2.833 -0.1851 -0.1344 -0.1606
14113W        W30587  14.421   2.888   2.748  0.1644  0.0537  0.1783
14114W        W30588   8.320   8.952  12.388 -0.0427 -0.2301  0.1834
14115W        W30589   3.306   5.003   3.674 -0.1166  0.3018  0.0795
14116W        W30590   6.080   2.778   1.128  0.1366  0.2203  0.1239
14117W        W30591   5.507   9.679   0.234  0.1911  0.0762  0.0827
14118W        W30592   3.262  16.340  15.948  0.1310  0.2741 -0.0173
14119W        W30593  13.123  14.042  14.664 -0.0325 -0.3371 -0.1465
14120W        W30594  18.249  18.305   2.685  0.1276 -0.0906 -0.2868
14121W        W30595   5.577   2.210   4.560  0.0217 -0.0191 -0.0689
14122W        W30596   6.848   1.172   5.019  0.1168  0.3922 -0.3322
14123W        W30597  15.956   5.485  15.399  0.0643  0.0968 -0.2061
14124W        W30598   3.521   1.405   3.093 -0.2617  0.2633 -0.0206
14125W        W30599   7.207  16.965   2.686 -0.2602 -0.0257 -0.0071
14126W        W30600   9.337   0.319   4.717  0.1064  0.1465  0.2177
14127W        W30601  16.969   6.882   5.026  0.1718 -0.3028 -0.2173
14128W        W30602   5.579   1.804  15.933  0.1489 -0.2103  0.1040
14129W        W30603   1.351   1.774  15.786 -0.1819  0.1564 -0.3556
14130W        W30604   5.501  10.606   4.022  0.2527  0.3335 -0.2707
14131W        W30605  13.953  16.760   3.408  0.1625 -0.0043 -0.2847
14132W        W30606  14.281  11.234   2.585 -0.1096 -0.1410 -0.4979
14133W        W30607   6.182  14.389   2.060  0.0529 -0.1679 -0.1438
14134W        W30608  11.832  16.485  15.569  0.0100  0.1800  0.1262
14135W        W30609   4.113  10.991   5.625 -0.1647  0.3013 -0.0513
14136W        W30610   4.050  14.064  13.813  0.2624  0.1805  0.1575
14137W        W30611  14.283   6.874   5.572 -0.1506 -0.0754 -0.2489
14138W        W30612   2.421   4.550  12.250  0.2523 -0.1569  0.1350
14139W        W30613   8.088   1.580  15.410 -0.2711  0.0973 -0.0431
14140W        W30614  10.167  18.189  15.761  0.1436 -0.0441  0.2302
14141W        W30615   7.608  15.691   5.005  0.0622  0.1831 -0.0556
14142W        W30616   2.338   1.065  14.419 -0.1105  0.3329 -0.0607
14143W        W30617   4.445  14.288   1.105  0.3255  0.0958  0.1866
14144W        W30618  12.364  11.052   3.098  0.1874 -0.0361  0.0945
14145W        W30619   2.842  10.290  13.825  0.0318 -0.1163 -0.1944
14146W        W30620   1.025   3.067  13.225 -0.0740 -0.0969 -0.1634
14147W        W30621  16.929   1.391  11.928  0.1416 -0.2668 -0.3159
14148W        W30622   1.483  12.572   0.773  0.1047  0.2859  0.0496
14149W        W30623  10.620   3.866   0.499  0.1375  0.0316 -0.3118
14150W        W30624   9.326  13.176   4.726  0.1824 -0.4531 -0.2792
14151W        W30625   4.761  15.261   0.239 -0.1095 -0.1406  0.3462
14152W        W30626  17.422  12.609  15.609  0.1513 -0.2489 -0.0299
14153W        W30627   9.411   1.164  12.172 -0.2039 -0.0220  0.1507
14154W        W30628   3.620   0.371   1.059 -0.0151  0.0095  0.1907
14155W        W30629   7.711   7.019  13.145  0.1594 -0.2101  0.0812
14156W        W30630   7.660   1.462   3.135  0.2479  0.0668 -0.4379
14157W        W30631   0.425  11.815  11.119  0.2433 -0.0622  0.1352
14158W        W30632  12.428  11.201  13.517  0.4271  0.2363 -0.1883
14159W        W30633   0.405  18.093  12.704  0.0023 -0.1075  0.2021
14160W        W30634   8.625  11.014  13.160  0.2666 -0.0403 -0.1644
14161W        W30635   8.671  15.220  13.080  0.0032  0.1329  0.3223
14162W        W30636  10.180   4.490  13.156  0.2516 -0.1069 -0.1565
14163W        W30637  15.350  14.607   5.282 -0.2770 -0.0640  0.0772
14164W        W30638  17.495   6.827  11.215 -0.3099 -0.1346 -0.0120
14165W        W30639  10.394   4.370  14.278 -0.1049 -0.1199  0.0316
14166W        W30640  11.457   5.013   2.792 -0.0579  0.2630  0.0033
14167W        W30641  12.759   0.326   4.677 -0.1073 -0.0444  0.0235
14168W        W30642   9.529  12.482  15.122  0.2265  0.0200  0.3240
14169W        W30643   1.979   9.020  13.792  0.0180 -0.1203 -0.0285
14170W        W30644   9.413   2.399  12.764  0.4032 -0.1132 -0.1597
14171W        W30645  11.710   0.886   0.539  0.0715  0.0407 -0.0668
14172W        W30646  16.419  10.476  15.056 -0.2428  0.3224  0.1107
14173W        W30647  12.160   7.954   4.447  0.3418 -0.0399 -0.0502
14174W        W30648   1.087   4.673  14.949 -0.1945  0.1015  0.1056
14175W        W30649   1.225   4.031   1.425 -0.0914  0.2133  0.1747
14176W        W30650  14.566   1.572  11.201 -0.3119  0.1971 -0.0348
14177W        W30651  11.211  17.256   2.492  0.1034  0.1996  0.1024
14178W        W30652  14.657  12.236  15.262 -0.0562  0.2270  0.0355
14179W        W30653   0.870   0.057   2.149 -0.0559 -0.0388 -0.0099
14180W        W30654   1.549  10.597   1.067  0.2852  0.1100 -0.0842
14181W        W30655   3.649   5.895  14.886 -0.1540  0.0425 -0.0688
14182W        W30656  12.257  10.537  15.861  0.2247 -0.0804 -0.1484
14183W        W30657   7.120  14.704  12.081 -0.0524 -0.0160 -0.0587
14184W        W30658  11.766  10.037   0.068  0.3891  0.1826 -0.0838
14185W        W30659   6.486  15.469   5.770  0.0957  0.0696 -0.2710
14186W        W30660  13.365  12.370   2.741  0.0015  0.0351 -0.0536
14187W        W30661   4.681   0.886  16.201 -0.2522  0.1905  0.2088
14188W        W30662   3.683   0.144  15.233 -0.1861  0.2086  0.0634
14189W        W30663   5.759  14.627  11.469 -0.2476  0.3855 -0.2428
14190W        W30664   1.206   5.101  14.546  0.1620  0.0513 -0.0614
14191W        W30665   0.070  17.547  11.556 -0.2246 -0.3275 -0.3604
14192W        W30666  18.048  15.686   0.637 -0.0617 -0.2739  0.3851
14193W        W30667  18.089  17.765  11.194 -0.0457  0.1705 -0.1750
14194W        W30668   5.382   1.386   3.636  0.3177  0.4164 -0.1662
14195W        W30669   2.211  16.243   2.902  0.3060  0.0182 -0.2210
14196W        W30670   0.365  16.847  15.361 -0.2323 -0.0704  0.1595
14197W        W30671   5.906   8.945  11.900 -0.1754 -0.0961  0.3389
14198W        W30672   3.073   0.033   3.293 -0.3047 -0.1489  0.2696
14199W        W30673   0.844   9.027  13.335 -0.1333 -0.0603  0.2039
14200W        W30674   7.995   8.703   6.171 -0.2304  0.1961  0.3310
14201W        W30675  13.640  10.853   1.123 -0.1529  0.0318 -0.0757
14202W        W30676   8.718   5.694   3.847 -0.1694 -0.0257  0.0734
14203W        W30677   8.565  12.320   1.087 -0.1716  0.1265  0.1685
14204W        W30678  16.244  13.885  15.620  0.0016  0.0816  0.1166
14205W        W30679  16.054  12.231   1.047 -0.2789  0.2272 -0.0448
14206W        W30680  14.166   4.179  12.380 -0.2306  0.1616  0.0579
14207W        W30681   5.189   1.251   0.940 -0.1621 -0.1233  0.1082
14208W        W30682   4.760   3.247  13.562 -0.1532 -0.0077 -0.2016
14209W        W30683   5.597  14.324   1.541  0.2677 -0.0462  0.3396
14210W        W30684  16.319   5.340  14.303  0.0717  0.2402  0.2376
14211W        W30685   6.290  12.027   2.941  0.1603  0.1431  0.1492
14212W        W30686  16.571   3.152  11.074 -0.1528  0.0758 -0.1371
14213W        W30687   6.980   6.764  12.231 -0.0072 -0.0618 -0.0889
14214W        W30688   5.692   8.501   0.838  0.0642 -0.1363  0.2338
14215W        W30689   2.018  17.152   3.366  0.3136  0.3762 -0.1660
14216W        W30690   2.090   8.821  15.436  0.1237  0.2607  0.1367
14217W        W30691   6.497   8.408   4.000  0.3370 -0.1614  0.5167
14218W        W30692  17.018  11.056  14.695 -0.0539  0.1837 -0.2081
14219W        W30693   4.557   4.355  13.074  0.1523 -0.0671  0.1449
14220W        W30694   0.883   6.484  14.012 -0.1225 -0.0113 -0.3073
14221W        W30695   1.757   7.614   0.688 -0.1728 -0.2187  0.1163
14222W        W30696   1.419   3.072  11.636  0.2670  0.1852 -0.0541
14223W        W30697  10.454   7.470  13.202 -0.0133  0.2253  0.1917
14224W        W30698  10.868   0.797  14.436 -0.1275  0.1342  0.1545
14225W        W30699   8.997   3.908  14.139 -0.0750  0.1445 -0.0787
14226W        W30700  13.382   1.384   3.423  0.0167 -0.3635 -0.1190
14227W        W30701  16.967   0.489  11.673  0.3243  0.0757  0.2929
14228W        W30702   3.048  18.287  14.378  0.0796  0.3322 -0.1666
14229W        W30703  15.444   6.983   2.333 -0.0925  0.1997  0.0757
14230W        W30704  13.978   2.836   2.507 -0.3723 -0.0200 -0.1480
14231W        W30705   9.729  13.618  11.983 -0.0844  0.0767 -0.3399
14232W        W30706  14.035   3.138  15.300  0.2539 -0.0544  0.1515
14233W        W30707   2.804   6.330   2.852  0.0940 -0.2422  0.1896
14234W        W30708  16.387   8.298  15.094 -0.4399 -0.0514  0.0375
14235W        W30709  13.272   6.719   5.373 -0.0652 -0.1094  0.2978
14236W        W30710  14.726  18.002   5.304  0.0472 -0.1085  0.1272
14237W        W30711   8.793   9.481  13.023 -0.2559 -0.0519  0.1468
14238W        W30712  15.335  14.066   1.341  0.1137  0.2441 -0.1103
14239W        W30713  14.499   8.140   1.416 -0.2727 -0.3563 -0.2388
14240W        W30714  16.097  13.538   5.318  0.0155 -0.1458 -0.0793
14241W        W30715  16.660  12.677  14.278  0.0431  0.2213  0.1790
14242W        W30716   1.175   5.051   4.156  0.1705  0.0226 -0.1965
14243W        W30717  12.335   8.034   1.161  0.1311 -0.0222  0.1820
14244W        W30718   2.393   8.161  11.891  0.3551 -0.1229 -0.4627
14245W        W30719   0.488  12.255   0.448 -0.2283 -0.0391  0.1233
14246W        W30720   3.426   6.961  15.803  0.0705 -0.0442  0.1079
14247W        W30721  10.921  11.791   2.879  0.0004  0.0119 -0.1039
14248W        W30722   5.350   0.368  13.438  0.2418 -0.0906 -0.2949
14249W        W30723  13.386   9.827  15.042 -0.1050 -0.1860  0.3261
14250W        W30724  13.787   7.997   3.240 -0.2232 -0.3112  0.0384
14251W        W30725  17.545   2.885   2.120  0.1155 -0.0053  0.1529
14252W        W30726  17.611   2.503  14.802  0.1921 -0.0727 -0.0114
14253W        W30727  16.364  14.895   3.139 -0.4157  0.1326 -0.0753
14254W        W30728  12.970   0.378  15.574 -0.1067  0.1155  0.2053
14255W        W30729  13.693  16.401  13.846  0.3546  0.1736  0.1229
14256W        W30730  10.874  10.397  14.672  0.1187 -0.0521  0.1252
14257W        W30731  12.881  15.012   3.702  0.3628 -0.0703 -0.1254
14258W        W30732  12.820   5.638   1.849  0.1472  0.0653  0.1089
14259W        W30733   3.509  12.879   5.375 -0.0900 -0.0953 -0.1332
14260W        W30734  17.225  11.218   1.919  0.2148  0.1644 -0.2406
14261W        W30735   0.989   1.599   1.357  0.3745  0.1962 -0.0153
14262W        W30736   2.895   4.646  13.826  0.0198  0.3516 -0.1041
14263W        W30737   3.817   7.287   2.799  0.4168  0.0251 -0.0358
14264W        W30738   9.549   3.442   4.495 -0.0498 -0.2754 -0.1902
14265W        W30739  11.487   1.022   2.801 -0.0931  0.1517 -0.2287
14266W        W30740   9.377   4.374   0.662 -0.1585 -0.1447 -0.1843
14267W        W30741   5.253  16.848  15.747  0.1561 -0.1656  0.0741
14268W        W30742   9.520  16.899   2.390  0.2382 -0.0301 -0.1628
14269W        W30743   2.585  15.071  16.117  0.2988 -0.0699  0.1311
14270W        W30744  17.721   6.004  14.662 -0.0930  0.3513  0.1707
14271W        W30745   8.619  16.162   1.583 -0.0480  0.0595  0.3182
14272W        W30746  10.588   4.287   0.269 -0.0212 -0.1101  0.3709
14273W        W30747  12.202   2.901  12.049 -0.1041 -0.1988 -0.4331
14274W        W30748  15.100   3.930   4.783 -0.0480  0.2684  0.2812
14275W        W30749  14.746   7.869  12.641  0.0762  0.2592 -0.2087
14276W        W30750  15.918  13.387   3.772 -0.2487 -0.0989  0.2479
14277W        W30751  10.965  10.568   1.757 -0.1286 -0.0227  0.2237
14278W        W30752  16.352  14.297   0.164 -0.1485  0.0166  0.3012
14279W        W30753   9.201   8.129  11.288  0.0410 -0.2036  0.1014
14280W        W30754   8.186  14.181   2.226 -0.1349 -0.1090  0.0716
14281W        W30755  10.647  15.020   3.638 -0.3081 -0.1958  0.0531
14282W        W30756   7.791  11.593  13.221  0.0055  0.1313 -0.2396
14283W        W30757   0.961   2.100  15.707  0.3213  0.0034 -0.0248
14284W        W30758   7.845   1.984  10.124  0.0526 -0.2773 -0.1772
14285W        W30759   7.165   2.347   2.995  0.0663 -0.0499  0.1630
14286W        W30760   7.605   6.209  13.762 -0.0193 -0.1396 -0.1048
14287W        W30761  18.286  16.550  11.751  0.1685 -0.0232  0.1009
14288W        W30762  12.987   8.607  16.054  0.0143 -0.2364  0.0372
14289W        W30763  13.298   7.399   3.522  0.1624  0.0037  0.0807
14290W        W30764   0.173  13.532   1.672 -0.0419 -0.2398  0.2660
14291W        W30765   8.508   7.385  15.277 -0.2989  0.0895  0.2214
14292W        W30766  10.745   1.440  14.222 -0.3919 -0.0896 -0.0684
14293W        W30767   8.606   7.380   1.119 -0.2098  0.0694  0.2763
14294W        W30768   2.181   3.535  11.197 -0.0222 -0.1356 -0.0852
14295W        W30769  15.118   1.015   3.110 -0.0395 -0.1734  0.2792
14296W        W30770   7.801  10.177   0.305  0.3723  0.0408  0.0881
14297W        W30771   3.696  15.364  15.572 -0.1545 -0.2328 -0.1516
14298W        W30772   2.660   8.122   4.596 -0.0361 -0.3102 -0.3732
14299W        W30773   6.864   7.121   4.330  0.1225  0.2774  0.0612
14300W        W30774   1.088   8.877   5.613  0.0426 -0.0585 -0.0657
14301W        W30775   8.515   8.145  15.485  0.0676  0.0257  0.1393
14302W        W30776  13.765   5.904  15.865  0.0192 -0.0977  0.0071
14303W        W30777  15.249   6.531  14.863  0.0263  0.0262  0.2873
14304W        W30778   9.594   3.159   0.091  0.2063  0.2343  0.0063
14305W        W30779  11.130  18.143   5.256 -0.2285  0.0612  0.0949
14306W        W30780   0.074   2.702   4.292 -0.0491 -0.0499 -0.0076
14307W        W30781  12.849   6.576  12.949 -0.2390 -0.1395  0.1644
14308W        W30782  11.973   6.606   0.647  0.0364 -0.2965 -0.1631
14309W        W30783   3.713   1.047  14.910 -0.3443 -0.1420  0.1882
14310W        W30784  14.908   3.416   4.893 -0.3919 -0.0088  0.1872
14311W        W30785  16.747  16.716   0.154 -0.0907  0.3676  0.3032
14312W        W30786   7.821  12.277  14.359  0.1609 -0.0792 -0.4014
14313W        W30787   7.166  15.907  13.343  0.0927  0.0367 -0.0736
14314W        W30788   0.034  15.184  13.782  0.0881 -0.2977  0.1972
14315W        W30789   5.870  18.024  15.974 -0.3237  0.2008 -0.0592
14316W        W30790   9.323  14.599  13.001  0.0254  0.0412 -0.2512
14317W        W30791  10.497   5.667  14.376  0.0783 -0.0432 -0.1069
14318W        W30792   3.481   5.223   3.260 -0.0920 -0.0308  0.2129
14319W        W30793   1.338   8.430   5.672 -0.0289  0.0994 -0.0833
14320W        W30794   9.089  17.828  11.685  0.0024  0.0179  0.0097
14321W        W30795  11.450   9.887   1.104  0.0078  0.1001  0.0350
14322W        W30796   4.610  17.524  16.193  0.0091  0.0430 -0.1442
14323W        W30797  16.155   9.381   5.786  0.0848 -0.2210 -0.0475
14324W        W30798  17.346  17.138   5.826 -0.2131 -0.1960 -0.0521
14325W        W30799   1.863  15.388  14.462  0.3625 -0.0773  0.3522
14326W        W30800   3.942   5.270  12.940 -0.2121  0.1722  0.0727
14327W        W30801   9.209   7.485   0.415  0.1985 -0.0086 -0.3175
14328W        W30802  12.940   1.759   3.988  0.0926  0.2834  0.2149
14329W        W30803   9.881   0.101   2.359 -0.4091  0.1075 -0.0494
14330W        W30804  11.730  13.098  14.022  0.0671 -0.0028 -0.0985
14331W        W30805   6.106  16.786   0.768 -0.1216  0.0440 -0.0475
14332W        W30806   8.197   9.383   3.924  0.0901 -0.1305 -0.0755
14333W        W30807   3.458   0.953   0.367  0.3896 -0.1213  0.0724
14334W        W30808   6.444  15.695  14.530  0.0802  0.1491 -0.3452
14335W        W30809  15.163   9.607  13.860  0.0834 -0.0665  0.3028
14336W        W30810  15.468  17.519  12.752 -0.1523  0.0830 -0.0948
14337W        W30811   5.383   2.450   5.074  0.1410  0.0661 -0.1425
14338W        W30812  11.894   5.200   0.450 -0.2484 -0.0409 -0.1732
14339W        W30813   2.047   7.097  14.613 -0.0488 -0.0315 -0.1569
14340W        W30814  15.482  14.340   1.792 -0.1601 -0.1385  0.1432
14341W        W30815   2.915   1.144  11.773 -0.2102  0.0526  0.1169
14342W        W30816   0.721   1.549   2.906 -0.0348 -0.2082 -0.0764
14343W        W30817  15.939   2.774   4.306 -0.0232 -0.1098 -0.3153
14344W        W30818  13.111  10.978   3.840 -0.0793 -0.0667 -0.1599
14345W        W30819   4.459   2.723   5.831  0.4290 -0.2165  0.1500
14346W        W30820  15.275  16.400  12.977 -0.0738 -0.2575  0.2454
14347W        W30821  15.825  16.863  15.130 -0.2794  0.2095  0.1999
14348W        W30822  16.545   3.855   0.770  0.1632  0.0564 -0.0328
14349W        W30823  10.547   6.605   3.000 -0.0022  0.0351  0.2788
14350W        W30824  16.511   6.370  13.365  0.1334 -0.2262  0.1378
14351W        W30825   2.891  15.132  14.937  0.2034 -0.1371 -0.1058
14352W        W30826  14.126   1.560  13.885  0.2761 -0.1060  0.0600
14353W        W30827  12.930   7.342   4.772  0.0713 -0.3479 -0.1141
14354W        W30828   9.116   2.128   3.923 -0.0966  0.0097  0.1594
14355W        W30829   3.203  12.466  14.146  0.0751 -0.4692  0.0876
14356W        W30830   8.710  13.754  16.183  0.1349  0.1010  0.2381
14357W        W30831   7.105   4.918   2.772 -0.0980 -0.0378 -0.0340
14358W        W30832  16.206   2.392   2.102  0.1094 -0.0386  0.0047
14359W        W30833   9.530  10.100   0.963 -0.0417  0.1864  0.1852
14360W        W30834   5.354  13.901   1.894 -0.2258 -0.0426 -0.0259
14361W        W30835   5.242   1.511   4.141 -0.0443  0.0385  0.1045
14362W        W30836  12.998   9.812  16.088  0.0411  0.0157  0.2128
14363W        W30837   7.953   4.891  14.608 -0.3612 -0.2213 -0.0789
14364W        W30838  13.149   4.133  12.998  0.1977  0.1537 -0.1385
14365W        W30839  11.371  11.610   0.917 -0.2318  0.1110  0.2193
14366W        W30840   5.416   3.683  15.317  0.0239  0.0897 -0.0409
14367W        W30841  18.302  13.467  11.780 -0.3399 -0.1581 -0.0351
14368W        W30842   4.127   2.734  12.846 -0.2675  0.0114 -0.1522
14369W        W30843  14.150   0.266  15.597 -0.1494 -0.3875  0.3140
14370W        W30844   0.966   4.144  14.963  0.1306 -0.2621 -0.1773
14371W        W30845   8.764  18.060  16.033  0.0555 -0.1299 -0.1234
14372W        W30846   3.671   1.373   0.021  0.1104 -0.1564 -0.2814
14373W        W30847  16.515   6.558  13.900  0.1941  0.0437  0.2269
14374W        W30848  13.122   9.338   3.068  0.2634  0.1632 -0.1167
14375W        W30849   3.301   9.631   5.350 -0.4528  0.1411 -0.2259
14376W        W30850   8.277   6.285  12.763  0.0559 -0.3581 -0.1080
14377W        W30851  11.561   4.071   5.164 -0.0583  0.1200  0.2250
14378W        W30852   8.153  16.456  10.500  0.3546  0.3940 -0.2245
14379W        W30853  12.466  12.801  13.423 -0.0461  0.0453 -0.1195
14380W        W30854  10.298  13.880   2.417  0.1566  0.2468 -0.2285
14381W        W30855  18.226   0.530   0.924  0.0513  0.0568 -0.0885
14382W        W30856   0.485   1.132  11.748  0.1430 -0.1426 -0.0300
14383W        W30857  12.024   1.190  10.867 -0.0379 -0.0692 -0.5068
14384W        W30858   7.911  15.380  11.947 -0.0921 -0.0568 -0.1671
14385W        W30859   9.570   0.185   2.799 -0.2594  0.1278 -0.0693
14386W        W30860   1.053  13.192  13.790 -0.3533 -0.2390  0.0206
14387W        W30861  17.654  10.928   0.957 -0.1335 -0.2586 -0.0222
14388W        W30862  11.785   8.434   5.130  0.1184  0.1905  0.2293
14389W        W30863  13.562  10.590  12.482 -0.0945  0.1443 -0.0049
14390W        W30864   9.698  11.749   3.458 -0.2414 -0.0776 -0.0727
14391W        W30865   8.041  11.537  12.746 -0.0893 -0.1287  0.1119
14392W        W30866   3.981  12.560  12.187  0.1260 -0.0578  0.3851
14393W        W30867   1.327   4.892   3.694 -0.0801 -0.0986  0.1498
14394W        W30868   8.843  15.834   0.044  0.1617  0.1727  0.0147
14395W        W30869  14.405  16.091   3.854 -0.2295  0.1783 -0.1246
14396W        W30870   8.922   6.011  11.648  0.1538 -0.0832 -0.0613
14397W        W30871  10.450   2.958  11.997 -0.0478 -0.3125 -0.1111
14398W        W30872   4.847  12.972   5.214 -0.0327 -0.2276 -0.0455
14399W        W30873   7.570  14.121  13.740  0.2878 -0.1136 -0.0500
14400W        W30874   9.559   4.840   1.017 -0.0415  0.0102 -0.2809
14401W        W30875  12.096  14.147   4.003 -0.1280 -0.3007 -0.0234
14402W        W30876  16.077   0.929  14.943 -0.0142 -0.1434  0.0315
14403W        W30877   9.045   8.061  12.976 -0.1842  0.0892  0.0231
14404W        W30878  17.808  10.353  11.806  0.1910  0.0864 -0.0889
14405W        W30879   5.881   9.839   5.610 -0.0943  0.0080 -0.3648
14406W        W30880  10.561  17.150   4.875  0.2736 -0.1203  0.0260
14407W        W30881   5.789   5.145   4.572  0.1891  0.0804 -0.3930
14408W        W30882  16.085  18.050  13.835  0.1366 -0.1703 -0.0008
14409W        W30883  16.860  10.170  13.583 -0.1389  0.0400  0.1891
14410W        W30884  17.173  13.037  15.579 -0.0283 -0.1451 -0.0466
14411W        W30885  17.521   0.590   2.071 -0.1281  0.1849 -0.1104
14412W        W30886   1.340  16.278  12.456  0.0988 -0.0040 -0.1701
14413W        W30887  13.700   6.214   3.155 -0.0768 -0.0099  0.1426
14414W        W30888   1.659   0.104   4.574 -0.1227  0.1728 -0.2379
14415W        W30889  17.307  10.975   3.834  0.1352 -0.0820  0.0653
14416W        W30890  15.214   9.785   3.220 -0.0727 -0.2143 -0.1687
14417W        W30891  14.230   6.402   4.861  0.2506 -0.1309 -0.0736
14418W        W30892   7.100  13.917  13.805  0.1396 -0.2212 -0.0395
14419W        W30893  15.835   8.733  14.138  0.4589 -0.2664 -0.1084
14420W        W30894  10.497   7.584   2.052  0.2093  0.1546  0.0342
14421W        W30895   3.800   9.914   5.329  0.1204  0.0165 -0.1237
14422W        W30896   6.209  12.079   4.589 -0.3844 -0.0796 -0.3116
14423W        W30897  14.272   3.131   4.139 -0.1972 -0.0081 -0.2285
14424W        W30898   0.609  13.891   1.471  0.4202 -0.1182 -0.3266
14425W        W30899  13.004  10.570  13.390  0.0494  0.1782  0.1654
14426W        W30900   1.437  11.188  13.936  0.0972 -0.0321 -0.0768
14427W        W30901  16.229   2.230   3.649 -0.2933 -0.0670  0.1035
14428W        W30902  10.148   9.195   0.074 -0.1852  0.0192  0.0493
14429W        W30903   9.520   8.995  12.783 -0.1909  0.1059 -0.1611
14430W        W30904   6.369  14.672  12.767 -0.1269 -0.1696  0.0466
14431W        W30905  16.462  16.326   4.628 -0.0782  0.0529 -0.0514
14432W        W30906  10.017   2.497  15.973 -0.0132  0.1843 -0.1530
14433W        W30907   4.085  13.408  14.460  0.0728  0.1710  0.1908
14434W        W30908   2.739  14.589  14.216 -0.0786  0.0839  0.1161
14435W        W30909   3.162   2.290  13.812  0.0459 -0.1451  0.1587
14436W        W30910  15.606  10.727   0.614 -0.0362 -0.0474  0.1137
14437W        W30911  16.500   4.723  11.227 -0.2534  0.0819  0.3072
14438W        W30912   7.883   2.396   4.187 -0.1054 -0.3872 -0.0712
14439W        W30913   9.528  16.315   2.417 -0.1103  0.0303  0.0887
14440W        W30914   1.673  16.290   4.617  0.0692 -0.4880  0.3407
14441W        W30915   3.871   3.734  13.190 -0.1204 -0.3958  0.0627
14442W        W30916  11.394  13.881  16.312  0.1599  0.3289 -0.1079
14443W        W30917   1.511  10.403   3.921  0.2058  0.0695  0.0221
14444W        W30918  15.960  12.368   2.100  0.0965 -0.3940  0.0408
14445W        W30919   7.379   9.016   5.463  0.0636  0.1880 -0.0553
14446W        W30920  11.079  10.818   5.609 -0.1088  0.1013  0.2411
14447W        W30921   0.660   1.612   9.922  0.0814 -0.4318  0.0580
14448W        W30922  16.227   0.476  13.053  0.0948 -0.1545 -0.1139
14449W        W30923  16.109   1.057   5.055  0.1864  0.0570  0.1914
14450W        W30924   1.962  17.083   2.585  0.5961  0.1775  0.0633
14451W        W30925  14.383  16.199  11.339  0.0724  0.0987 -0.0981
14452W        W30926  14.891   1.992   5.036 -0.1634  0.0358  0.1585
14453W        W30927   3.464  15.510   2.840 -0.2232  0.0021  0.0180
14454W        W30928  12.728   4.355  12.810 -0.0414 -0.2031  0.1642
14455W        W30929   3.208   8.023   3.813 -0.0088 -0.2525 -0.0253
14456W        W30930   1.745  18.010   2.959  0.4614 -0.0149  0.1772
14457W        W30931   9.266  13.520  15.521 -0.3541  0.1181  0.1628
14458W        W30932   8.586   5.216  16.213  0.1390 -0.1312 -0.4215
14459W        W30933  11.187   3.832  12.235 -0.1192 -0.0777 -0.1738
14460W        W30934   8.887  14.996   2.718 -0.0401 -0.2797 -0.1886
14461W        W30935  10.328  14.568  13.891 -0.1303 -0.0973 -0.0803
14462W        W30936   8.359   0.894   4.834 -0.1823  0.0915 -0.0724
14463W        W30937   2.620   0.547   2.826  0.0240 -0.1351  0.5788
14464W        W30938   4.638   2.033   2.842  0.2260  0.1105 -0.2492
14465W        W30939   6.106   0.969   5.522 -0.0274  0.0788 -0.1246
14466W        W30940   7.766  15.984   1.228 -0.1975 -0.0999  0.0813
14467W        W30941   2.163   3.081   2.565  0.2776 -0.0450 -0.1835
14468W        W30942  17.172   5.773   1.023 -0.0747 -0.1959 -0.0766
14469W        W30943   2.497  16.827  15.610 -0.2779  0.2722 -0.2035
14470W        W30944  16.509   4.309  11.544 -0.0628  0.3604  0.3363
14471W        W30945  15.058   2.434   2.582  0.3272  0.0386  0.2697
14472W        W30946   7.050   3.800   3.447  0.0532  0.0678 -0.2631
14473W        W30947   0.038  15.131   1.367 -0.1768  0.0954 -0.0841
14474W        W30948   2.920  16.797  12.564 -0.2091 -0.3304  0.2057
14475W        W30949   5.956   6.794  13.173  0.0308  0.3043 -0.1366
14476W        W30950  16.149  15.744   4.724  0.0266 -0.0665  0.3272
14477W        W30951  15.917  10.881   4.605  0.1192  0.1590  0.0805
14478W        W30952  10.689   7.708   4.650 -0.1080  0.2507  0.1897
14479W        W30953   6.818   0.093  12.081 -0.0389  0.1757 -0.2205
14480W        W30954  16.475  16.014   2.934 -0.0143 -0.1145 -0.0588
14481W        W30955  15.818  13.721  15.457  0.1420  0.0677  0.0487
14482W        W30956  11.232  14.536  10.678  0.0411 -0.2957 -0.1277
14483W        W30957  13.443  16.625   1.158  0.1875  0.0529  0.0775
14484W        W30958  13.210   6.608  13.951  0.1795 -0.2082  0.0723
14485W        W30959  12.059   8.132   2.459 -0.0110  0.2355  0.2526
14486W        W30960  17.631  14.273   1.394  0.2551  0.0605  0.3980
14487W        W30961   3.224  16.679  11.222 -0.2639  0.2126 -0.0638
14488W        W30962   6.629  15.680  10.783  0.0913 -0.2124 -0.0692
14489W        W30963   5.757   9.397   2.920 -0.1807  0.4023  0.0365
14490W        W30964  17.860   3.412   4.422  0.3030  0.0610  0.0867
14491W        W30965   6.008   1.273  15.135  0.1024 -0.0943  0.0126
14492W        W30966  18.040  11.979  12.191 -0.1656  0.2163  0.0855
14493W        W30967   0.511  16.065   3.061  0.1728  0.2388  0.0688
14494W        W30968   4.019  17.278  12.695  0.1424  0.0003  0.1895
14495W        W30969  16.773   5.278   2.323 -0.1571 -0.4519 -0.2425
14496W        W30970  16.217   4.627  13.948 -0.0660 -0.1081 -0.0884
14497W        W30971  16.506   8.387  13.805 -0.3093  0.0528  0.0760
14498W        W30972   2.411  15.085   3.614 -0.1120 -0.0302  0.1810
14499W        W30973  13.159  13.358  15.156 -0.1124 -0.0643 -0.2808
14500W        W30974  14.111  11.892  15.134 -0.0690  0.0723  0.4999
14501W        W30975   3.760   8.162  16.258 -0.1217 -0.2710 -0.0593
14502W        W30976   0.787  12.992   5.019  0.2388  0.1727 -0.1162
14503W        W30977   8.591  17.024  11.708  0.2785  0.1975 -0.0690
14504W        W30978  12.877   0.996  15.812 -0.1533  0.3084 -0.1211
14505W        W30979   9.153  14.963  15.444 -0.2026 -0.0010  0.2518
14506W        W30980   6.628   3.551  12.634 -0.0923  0.0884  0.2070
14507W        W30981   3.850   5.699  12.673  0.1125  0.0961 -0.0035
14508W        W30982   3.024   5.849  12.983 -0.1420 -0.2883  0.1753
14509W        W30983   8.914   5.805  13.792 -0.2771 -0.0050 -0.0687
14510W        W30984  12.661   8.876   1.492  0.0687  0.0232  0.0581
14511W        W30985   6.194   0.497   1.525 -0.0732  0.0523 -0.0563
14512W        W30986   1.945   5.754   1.274 -0.0320 -0.5611 -0.3182
14513W        W30987   8.758  11.043   2.866  0.1593 -0.2161 -0.2113
14514W        W30988  13.674   7.495   5.374 -0.0252 -0.1378 -0.0424
14515W        W30989   1.620   9.710  15.828  0.4670  0.0961  0.0957
14516W        W30990   5.696   5.339   0.182 -0.4491 -0.0184 -0.2491
14517W        W30991  14.194   0.419  16.095 -0.2936 -0.2842 -0.1153
14518W        W30992  17.385   3.251  12.788 -0.0081  0.0839  0.1043
14519W        W30993   9.797   8.058   2.030 -0.0206 -0.1645  0.4810
14520W        W30994  13.897   4.253   1.068  0.1188 -0.2048 -0.0754
14521W        W30995   4.825  12.293  12.966  0.2742  0.2919  0.0181
14522W        W30996   9.629  11.986  14.951 -0.2922  0.0844 -0.0976
14523W        W30997   4.391  12.948   1.722 -0.2520  0.1612 -0.1650
14524W        W30998   9.995   1.876   1.011  0.3110 -0.5332  0.2110
14525W        W30999   2.973  18.165  12.723  0.3552  0.1236  0.1865
14526W        W31000   7.758  10.777   1.577 -0.2166 -0.0360  0.1382
14527W        W31001   8.548   7.186   5.904 -0.0776 -0.0760 -0.0651
14528W        W31002   3.214  17.890   1.236  0.0408  0.1494 -0.0201
14529W        W31003   0.487  10.433  15.277  0.3671  0.0453  0.0613
14530W        W31004   3.378  11.479   0.245 -0.0932 -0.2144  0.0208
14531W        W31005  12.275   6.260   1.887  0.0320 -0.1134  0.3356
14532W        W31006  10.015  11.823   3.040 -0.0950 -0.0725  0.1831
14533W        W31007  13.322  11.654   5.005 -0.1789 -0.0502  0.0242
14534W        W31008   6.474   9.078   2.339  0.0214  0.0017  0.2644
14535W        W31009  11.240   5.074   5.192 -0.1300  0.3436 -0.1354
14536W        W31010   3.107   3.572   4.846 -0.0550  0.0165 -0.0949
14537W        W31011  14.864   5.785  13.712  0.0990  0.0691  0.2006
14538W        W31012  16.245  17.966   0.542 -0.1505  0.3475  0.0808
14539W        W31013   4.199   8.996  11.959  0.1067  0.1238  0.0737
14540W        W31014  11.061  17.311  13.448 -0.1232 -0.3314  0.2067
14541W        W31015  18.031   5.332  16.299  0.0238  0.3728  0.2600
14542W        W31016   2.904  14.346   2.517  0.2656 -0.0543  0.1369
14543W        W31017   0.828  12.333   1.336  0.1155 -0.3031 -0.1198
14544W        W31018   6.427   7.363   5.091 -0.1837 -0.1275  0.0663
14545W        W31019   9.672   7.895   3.813  0.1064 -0.1567  0.0500
14546W        W31020   8.414  14.417  12.956 -0.0998 -0.0935  0.1317
14547W        W31021  17.332   5.909   1.473  0.0176  0.1717 -0.2301
14548W        W31022   5.582  13.065  12.506 -0.1424 -0.0686 -0.0203
14549W        W31023   6.721   4.647   4.491 -0.1387 -0.2221 -0.0176
14550W        W31024   7.257  13.079   2.096 -0.3285  0.0880  0.2862
14551W        W31025  13.332   9.581   3.960  0.4057 -0.2172 -0.1394
14552W        W31026   6.812   5.703  11.331 -0.1883  0.0637 -0.0762
14553W        W31027   3.606  14.011   4.260 -0.0077 -0.3617  0.1927
14554W        W31028  17.792  11.288  12.568  0.0863  0.0623 -0.1488
14555W        W31029  11.044   3.346  14.399 -0.1111  0.1760  0.3461
14556W        W31030   7.669  16.015  13.519  0.0104  0.1743 -0.2142
14557W        W31031   6.423   5.278   3.271  0.0863  0.1714 -0.1562
14558W        W31032   8.512   1.035  10.685 -0.4594 -0.1744 -0.2058
14559W        W31033  15.969   9.633  14.601  0.1681 -0.1862  0.0023
14560W        W31034   4.365  10.219  15.151  0.1786  0.1729  0.1134
14561W        W31035   2.401  18.059  16.170  0.1766 -0.1300  0.2490
14562W        W31036   9.277   7.672   1.946 -0.0432 -0.2268 -0.0824
14563W        W31037   5.318  10.155  16.127 -0.1208  0.2855  0.2379
14564W        W31038   9.419  12.648   5.569 -0.1669  0.0208  0.2323
14565W        W31039   3.630   5.535  14.577 -0.1702 -0.0705 -0.1848
14566W        W31040   1.934   6.090  14.006 -0.2758 -0.0914 -0.1454
14567W        W31041  14.061   4.682   2.571 -0.1770  0.0519 -0.1642
14568W        W31042  17.710   1.601   4.605 -0.6954 -0.0868 -0.1294
14569W        W31043  17.040   4.194  14.685 -0.3430 -0.1111 -0.0636
14570W        W31044   2.675   8.566   5.350 -0.2872  0.0881  0.1057
14571W        W31045  13.556   3.478   2.366  0.1015  0.2512  0.0988
14572W        W31046  11.402  13.357   1.118 -0.2357 -0.0433 -0.0453
14573W        W31047   2.644  16.346  14.088 -0.0542  0.2158 -0.2134
14574W        W31048   7.587   5.976  14.834  0.1788  0.0517 -0.2800
14575W        W31049   2.364  16.354  15.456 -0.0932 -0.0016 -0.0101
14576W        W31050   8.939   4.799  13.698 -0.2220  0.3251  0.0640
14577W        W31051  12.189  12.355  12.402 -0.0110 -0.0235 -0.0950
14578W        W31052   5.938  13.351  11.707 -0.0181  0.1498 -0.3785
14579W        W31053   3.780  14.127  14.721 -0.1699  0.1523  0.1038
14580W        W31054   4.358   6.341  15.255  0.0330  0.2097  0.2240
14581W        W31055   8.972  14.304  12.600 -0.3888  0.2819  0.0744
14582W        W31056   5.675   3.828  14.808  0.1417  0.0083  0.2470
14583W        W31057   1.845   5.170   1.162  0.0034 -0.0691  0.0036
14584W        W31058   0.001   6.616   2.800  0.2138 -0.0491 -0.0648
14585W        W31059  15.796  11.570  12.722  0.0493  0.1191 -0.0094
14586W        W31060  11.315  10.468   3.134  0.0447  0.0518  0.2299
14587W        W31061  11.833   3.544   0.323  0.4503  0.0858  0.0196
14588W        W31062  17.703   0.880   1.487  0.0387  0.0575 -0.0420
14589W        W31063   7.315   5.628  14.626 -0.0663  0.0830 -0.1691
14590W        W31064  13.882   6.150  12.309  0.2516  0.1756  0.0334
14591W        W31065  13.224  13.153  16.294 -0.0099  0.1126  0.2462
14592W        W31066  12.709  12.463   1.956 -0.1555 -0.2232 -0.1727
14593W        W31067  12.318   8.435  11.804  0.1951 -0.0933 -0.0972
14594W        W31068   9.155  16.596  15.288  0.3806  0.2959  0.1874
14595W        W31069   0.864  16.251   5.200  0.0570  0.0751 -0.0307
14596W        W31070   2.334  14.803  12.504 -0.0423 -0.0938 -0.2107
14597W        W31071   0.806   9.445  12.440  0.2341 -0.1032 -0.0574
14598W        W31072  13.355  12.373   4.201  0.1212  0.1079  0.2105
14599W        W31073   0.031  13.351  12.305  0.2018 -0.2314  0.1746
14600W        W31074   7.295  17.811   0.794  0.0039 -0.1687  0.0206
14601W        W31075   1.835  17.938   2.080  0.0437 -0.1986  0.1954
14602W        W31076  10.910   7.044   0.586  0.0286 -0.0474 -0.0042
14603W        W31077   6.724  11.801   3.462 -0.1603 -0.3517  0.0919
14604W        W31078   0.263   7.507  13.921  0.0657  0.2058  0.2586
14605W        W31079  17.320   0.189   2.965  0.0703 -0.0162 -0.1455
14606W        W31080  12.340  11.321  14.955 -0.0562 -0.0297  0.2254
14607W        W31081   0.025   0.502   3.035  0.0099  0.4478 -0.1449
14608W        W31082   6.833  15.457  12.756  0.1787  0.1704  0.1528
14609W        W31083   8.251  16.739   4.273  0.0102 -0.0811 -0.0378
14610W        W31084  17.881  12.270   4.131 -0.4099 -0.1831 -0.2504
14611W        W31085  17.696   2.360  12.125  0.1088 -0.0987 -0.2063
14612W        W31086   6.931  12.794   0.917  0.3336 -0.2690 -0.1265
14613W        W31087  12.492  14.854  11.789 -0.0156  0.0813 -0.0142
14614W        W31088  13.191   6.223  11.677 -0.0590 -0.0209 -0.2770
14615W        W31089  13.469   1.877   3.218 -0.1813 -0.0214  0.4816
14616W        W31090  14.875   4.509   0.914 -0.1407  0.0831  0.0865
14617W        W31091   3.004  17.753   5.647  0.0687 -0.0537  0.2086
14618W        W31092   8.635   8.834  15.707  0.1908 -0.2025 -0.1709
14619W        W31093  13.037   0.888  13.081 -0.1340 -0.1265 -0.0182
14620W        W31094   2.368  15.985   1.828  0.2903 -0.1099  0.0689
14621W        W31095   1.028  11.352   0.590 -0.0776 -0.1112  0.0250
14622W        W31096  12.660   1.256   0.228  0.0393 -0.1006 -0.0261
14623W        W31097   1.275  17.123   4.618  0.0694  0.0452  0.1960
14624W        W31098   5.762  17.236   2.735  0.0016 -0.0779  0.1933
14625W        W31099   7.103  10.193   6.117 -0.0702 -0.1453 -0.2237
14626W        W31100   5.296  17.569   4.488  0.1889  0.2342 -0.0474
14627W        W31101   5.663  16.862  12.674 -0.0249  0.3400 -0.2162
14628W        W31102  15.452  16.735   3.752 -0.0458 -0.0467 -0.0028
14629W        W31103  14.039   4.133  14.906  0.0387  0.0661  0.1893
14630W        W31104   8.973   1.666  15.207 -0.2114  0.2014  0.1458
14631W        W31105   7.560   2.880  13.112  0.5499  0.0097 -0.1469
14632W        W31106  16.775  11.380   0.246 -0.1770 -0.2361 -0.3612
14633W        W31107   1.111   3.427   1.114  0.0797 -0.2373  0.0801
14634W        W31108  13.047   6.122  13.629 -0.1028 -0.0333  0.0927
14635W        W31109   1.621   4.942  11.977  0.0579  0.2196 -0.1124
14636W        W31110  14.637  12.241   5.623  0.2527  0.2508  0.3707
14637W        W31111  13.310   3.593  12.941 -0.0742 -0.0409 -0.2241
14638W        W31112  14.262   4.217   5.239  0.1032 -0.1547 -0.0802
14639W        W31113   5.858  14.179  14.308 -0.2226  0.1142 -0.2024
14640W        W31114   8.264  18.143   0.316  0.1733 -0.0765  0.2307
14641W        W31115  17.720  12.995   2.071  0.0312  0.3608 -0.0637
14642W        W31116  17.756   3.756  15.898 -0.0787  0.2307  0.2008
14643W        W31117  17.889  12.036   3.633  0.2521 -0.1130 -0.0876
14644W        W31118  16.512   3.137  13.544  0.0872 -0.0210 -0.2126
14645W        W31119   7.792  12.987  15.889  0.0270  0.3106  0.2677
14646W        W31120   9.200   1.638  12.038 -0.2993  0.2644 -0.3080
14647W        W31121   6.878  17.790  13.977 -0.0507 -0.3070 -0.3133
14648W        W31122   1.792   8.386  13.683  0.0615  0.2180  0.2597
14649W        W31123  16.944  13.768   2.385  0.0133 -0.1928  0.0690
14650W        W31124  13.645   1.535  11.576  0.0774 -0.2087  0.0549
14651W        W31125  18.047   9.873   2.595 -0.2483  0.1215  0.2666
14652W        W31126   8.098   9.571  16.005  0.2024 -0.1461  0.0965
14653W        W31127   0.027  10.905  15.069 -0.4191 -0.2938 -0.1373
14654W        W31128  16.551   6.836   4.607  0.0575 -0.0456  0.0682
14655W        W31129   2.416  14.650   1.046  0.0605 -0.0600 -0.0823
14656W        W31130   3.599  10.588  11.604  0.1956 -0.0588  0.1019
14657W        W31131  10.656  13.742   3.459 -0.1524  0.0404 -0.4275
14658W        W31132   0.130   5.432   0.815  0.0989 -0.0536  0.2411
14659W        W31133  11.713  17.300  14.040  0.1007  0.1654 -0.2622
14660W        W31134  15.271   5.729  12.341  0.1140 -0.0654 -0.0830
14661W        W31135   7.374   2.023   4.643  0.1313 -0.3220 -0.2962
14662W        W31136  13.803   2.738  12.338  0.1385  0.2573  0.1817
14663W        W31137   6.171  14.115   1.563 -0.0313  0.4723 -0.0502
14664W        W31138  12.218   1.021   0.577 -0.1822 -0.0537 -0.3620
14665W        W31139  10.053   9.266   2.674 -0.0750  0.0228 -0.0001
14666W        W31140  15.508   9.546  14.384  0.3034 -0.3084  0.0082
14667W        W31141   1.194  10.231  12.141 -0.0090 -0.1447  0.1423
14668W        W31142   5.434  15.777  11.970 -0.1228  0.3582 -0.1595
14669W        W31143   0.575   6.989  12.971 -0.2110 -0.0532  0.0512
14670W        W31144  15.018  14.938  15.464  0.2985 -0.0819 -0.0463
14671W        W31145  17.048  12.702  11.730 -0.2689 -0.2455  0.2170
14672W        W31146  16.211  12.455   0.545 -0.0112 -0.0215  0.2641
14673W        W31147   4.348   0.792  11.507  0.0869 -0.5190  0.2226
14674W        W31148   9.783  12.999   4.277 -0.3241 -0.0703  0.0519
14675W        W31149  17.970   1.951  11.633 -0.0216 -0.1104 -0.3231
14676W        W31150  16.414  12.805  14.800 -0.1362  0.2581 -0.0193
14677W        W31151   3.370   8.513  13.950  0.1112 -0.3352  0.1407
14678W        W31152  15.402   8.850   1.332  0.1596  0.0151  0.1949
14679W        W31153  17.785   9.083   0.124 -0.1075  0.2946 -0.1280
14680W        W31154  13.614   3.944  13.193 -0.3097 -0.1374 -0.1144
14681W        W31155  17.538   1.387  14.199  0.0008  0.3177  0.0106
14682W        W31156  10.888   3.125  11.900 -0.4095  0.2159 -0.0472
14683W        W31157  11.776   6.980   0.354 -0.2057  0.0371  0.2102
14684W        W31158  12.008   4.483   1.762  0.3540  0.1258  0.2755
14685W        W31159  16.226   8.799  13.835 -0.1316 -0.0453  0.0455
14686W        W31160   0.085  10.581   1.890  0.3312 -0.0586  0.0993
14687W        W31161  17.432  16.612  11.320  0.0682 -0.3337 -0.2258
14688W        W31162  15.522   8.511   0.506  0.0324  0.0645  0.3374
14689W        W31163   5.318  10.555  12.889 -0.0003 -0.1745  0.1779
14690W        W31164   9.166  16.712  12.343  0.2708 -0.1471  0.0830
14691W        W31165  10.553  17.574   0.927  0.0318  0.0242 -0.3620
14692W        W31166   6.497  13.852   3.679  0.0713  0.0183 -0.3152
14693W        W31167   7.421   1.900   3.279 -0.0452  0.1486 -0.1562
14694W        W31168   3.342   7.098   4.307 -0.2442  0.2577 -0.0410
14695W        W31169  11.554   0.281   4.627  0.0219  0.2513 -0.4657
14696W        W31170  18.247  15.838   5.178  0.0630  0.2196  0.0973
14697W        W31171   7.975  11.538  13.769 -0.2303  0.3150 -0.0835
14698W        W31172   0.508  16.655  13.005  0.1285  0.0687 -0.2905
14699W        W31173   7.406   7.574  16.084 -0.0151  0.0424 -0.0826
14700W        W31174   8.495   8.398   0.462  0.2008  0.1181  0.0921
14701W        W31175  15.802   0.859   3.740  0.2227  0.1136 -0.1196
14702W        W31176  15.854  15.869   4.310 -0.2207 -0.0217 -0.2334
14703W        W31177   1.417   5.383   0.356  0.1851 -0.0786  0.1329
14704W        W31178   4.444  14.956  15.622 -0.0797 -0.2831 -0.1350
14705W        W31179   6.981  16.248   1.733 -0.1767  0.2560  0.0881
14706W        W31180   1.940  10.512  13.165 -0.4073 -0.4516  0.1325
14707W        W31181  16.548   1.563   1.658 -0.1612  0.1164 -0.3608
14708W        W31182  17.758  11.121  13.883  0.0884 -0.1217 -0.2887
14709W        W31183   9.143   9.553   3.975 -0.2004  0.1729  0.0358
14710W        W31184   1.127  14.451   1.938 -0.1276 -0.0448  0.1881
14711W        W31185  17.874  10.462  15.678  0.0077  0.3498  0.5595
14712W        W31186  14.291   4.611  12.969  0.2429 -0.2207  0.3212
14713W        W31187  14.504  15.320  15.088 -0.1263 -0.0680  0.0882
14714W        W31188  10.896   7.438  12.150  0.0601  0.2011 -0.0975
14715W        W31189   6.601  14.279   1.320 -0.2902  0.1628 -0.1276
14716W        W31190   9.482   2.572  11.963 -0.0221  0.1335  0.0473
14717W        W31191   2.491  14.380   2.791  0.0565  0.3776  0.3392
14718W        W31192   7.630  16.745   4.846 -0.2615  0.0910  0.2985
14719W        W31193   7.454   4.214  14.383  0.0239  0.4066  0.2077
14720W        W31194   6.827   1.828  15.345  0.2218 -0.2413  0.1659
14721W        W31195   6.715   8.379   2.637 -0.1813 -0.0719 -0.1466
14722W        W31196   9.112   6.873   1.236 -0.0028 -0.3393  0.1080
14723W        W31197  11.118   0.595  16.267  0.3187  0.2538  0.1043
14724W        W31198   1.537  16.435  10.348 -0.0441  0.2830  0.0480
14725W        W31199   7.741   5.808   6.032 -0.0967 -0.1265  0.0488
14726W        W31200   9.939  11.903  11.944 -0.0265 -0.3691  0.0382
14727W        W31201   5.400   9.582   4.941  0.0025 -0.0346 -0.2434
14728W        W31202   6.019   9.279   1.379  0.2148 -0.1346  0.0135
14729W        W31203   5.072   1.380  13.617 -0.3283 -0.1408  0.2923
14730W        W31204   4.156   5.194   2.057  0.2768 -0.1322  0.4135
14731W        W31205   8.528  13.534  12.281  0.1288  0.0317  0.4520
14732W        W31206   9.504  14.600   1.758 -0.0608 -0.0984  0.0081
14733W        W31207   5.810  13.700   0.107  0.1501  0.0708 -0.0607
14734W        W31208  18.319   3.899   3.832  0.5238 -0.1086  0.0433
14735W        W31209   5.790   6.327   5.156 -0.0163  0.1162  0.2508
14736W        W31210   8.848  16.448   3.824  0.2636 -0.2529 -0.3210
14737W        W31211  14.579   6.284   1.219 -0.1354 -0.1799  0.1130
14738W        W31212  12.441  11.814  14.111  0.1686 -0.3194 -0.0013
14739W        W31213  15.992  15.338  14.820 -0.4648  0.0555 -0.0607
14740W        W31214  11.854   6.623  15.750 -0.2966 -0.0959 -0.2529
14741W        W31215   3.284  17.295   1.341  0.0323  0.2368  0.1831
14742W        W31216  14.003  17.316   4.220  0.1587  0.0417 -0.0632
14743W        W31217   5.235   0.496  11.028  0.2304  0.2068 -0.1426
14744W        W31218  13.985  17.573  11.143 -0.2302  0.2440  0.2125
14745W        W31219   9.537  14.243  14.607 -0.1062 -0.3988  0.1626
14746W        W31220   4.382   1.072   0.846  0.0906 -0.2785 -0.1425
14747W        W31221  13.068  10.405  12.639 -0.2473  0.1890 -0.0669
14748W        W31222   0.092   2.824  11.783 -0.0120  0.0379 -0.2028
14749W        W31223  12.981  13.474   3.370 -0.1656 -0.0983 -0.1142
14750W        W31224   2.417   3.003   0.221 -0.4083  0.0591  0.0574
14751W        W31225   4.791  16.964  11.600  0.1613 -0.2326 -0.1057
14752W        W31226   9.303   8.736   4.796  0.3206  0.1431  0.3629
14753W        W31227   4.701   9.563   1.182 -0.1400 -0.2763 -0.0974
14754W        W31228   5.294  10.937  12.546  0.1821  0.1627  0.3461
14755W        W31229  11.274   2.968   1.549 -0.0752  0.0506 -0.0535
14756W        W31230   4.540   8.781  14.310  0.1152  0.0863  0.1055
14757W        W31231   7.596  12.149  13.262 -0.1777  0.2627  0.2291
14758W        W31232  12.490  10.923   3.925 -0.0878  0.0742  0.2536
14759W        W31233   6.114   5.600  15.985 -0.2066  0.1314 -0.0875
14760W        W31234   3.039  17.554   1.678 -0.0013  0.4492  0.0948
14761W        W31235  10.753   3.979  12.391 -0.1322 -0.0540 -0.0376
14762W        W31236   6.104  11.078   3.033 -0.0779 -0.0801  0.1730
14763W        W31237   0.995  13.243  12.810  0.1901 -0.2279  0.1545
14764W        W31238   4.982  16.354   4.013 -0.1430 -0.1833 -0.1914
14765W        W31239   8.666   7.397   0.168 -0.0486 -0.0101  0.0814
14766W        W31240  11.298   7.177   0.959  0.0842 -0.2593  0.2453
14767W        W31241   2.303   0.935   4.625 -0.0449  0.1987 -0.1110
14768W        W31242  17.839  16.115   0.530 -0.0265 -0.1007  0.1261
14769W        W31243   3.191   4.521   0.235 -0.1208 -0.1354 -0.0241
14770W        W31244   1.105   3.469   0.572  0.1514 -0.0365  0.1347
14771W        W31245   7.765  11.968  16.222 -0.0538 -0.0837  0.0409
14772W        W31246   2.186   5.331  15.007  0.0128  0.0612 -0.0938
14773W        W31247   8.790   8.064  13.411 -0.0977  0.0303  0.5013
14774W        W31248   0.741  18.149   1.031  0.0548  0.2840 -0.0284
14775W        W31249   9.085   7.787   5.357 -0.0161  0.1956 -0.3324
14776W        W31250   5.308  13.864   3.024 -0.1202 -0.1366  0.0726
14777W        W31251   7.239   2.447  14.986 -0.1379  0.1081 -0.0112
14778W        W31252  14.983  12.837  14.616 -0.3114  0.3753  0.0542
14779W        W31253  14.519   0.605  13.049 -0.0879 -0.1640 -0.0569
14780W        W31254  11.696  15.852   3.240  0.1915 -0.1637 -0.1600
14781W        W31255   5.892  12.142   1.063 -0.0643 -0.4209 -0.0862
14782W        W31256  15.175   7.128   1.962  0.4055  0.1763 -0.0491
14783W        W31257   7.956   1.889  13.419 -0.0859  0.0724  0.1499
14784W        W31258   1.724   3.301  12.042  0.1915  0.1555 -0.0171
14785W        W31259   1.845   4.579  11.584  0.2257 -0.1071 -0.0432
14786W        W31260  12.639  12.057  11.680 -0.1994  0.0409 -0.0553
14787W        W31261  13.244   6.456   1.022 -0.1880  0.0853 -0.1683
14788W        W31262  12.462  12.233   4.720 -0.2288  0.1804  0.0901
14789W        W31263  17.131   9.687  12.409 -0.3084 -0.0722 -0.1211
14790W        W31264  17.751  16.105   2.111  0.2319 -0.3607  0.4828
14791W        W31265  11.836   2.201  14.327 -0.1942  0.1627 -0.3033
14792W        W31266  13.375  12.150  14.557 -0.0970  0.0762 -0.1962
14793W        W31267   4.758   8.216  14.495 -0.2461  0.1617 -0.1188
14794W        W31268  13.719   1.942  11.113  0.1005 -0.4458 -0.0607
14795W        W31269   4.089   1.476  14.965 -0.0134 -0.1563  0.1058
14796W        W31270   2.180  16.739  10.898 -0.3013 -0.0945 -0.3167
14797W        W31271  16.795  13.680  14.561 -0.1106 -0.0783  0.0516
14798W        W31272   4.146  12.318  14.570 -0.0637 -0.2943  0.2724
14799W        W31273   2.946   8.384  11.187 -0.1106 -0.1933  0.0737
14800W        W31274  12.776   1.969   3.474 -0.3355  0.0463  0.0779
14801W        W31275  11.087   4.696  12.734 -0.2235 -0.3110 -0.1890
14802W        W31276  10.760   4.413  14.664  0.1649  0.2582  0.2323
14803W        W31277   8.567  13.488  14.671  0.0337  0.3379  0.1071
14804W        W31278   7.760   7.569  12.858  0.3751 -0.1975  0.0291
14805W        W31279  16.494  12.771   0.852  0.0275 -0.0021  0.1581
14806W        W31280   4.089  14.808   1.810  0.3598  0.1582 -0.0367
14807W        W31281   1.881  10.791   2.887 -0.3817  0.1599 -0.1390
14808W        W31282   4.038  17.808  14.653 -0.2332  0.0933 -0.0751
14809W        W31283   2.791  12.508  14.417 -0.3546 -0.0962  0.3119
14810W        W31284   5.578  15.973  12.492  0.0140 -0.0678  0.0713
14811W        W31285   6.321  10.171   1.941  0.1204  0.0929  0.2206
14812W        W31286  15.055  15.515   1.648  0.0427 -0.1393 -0.1874
14813W        W31287  13.212  14.554   1.691 -0.0964  0.1913 -0.0425
14814W        W31288   8.062   0.033   3.886 -0.1009 -0.2081  0.3382
14815W        W31289   9.986  13.734   1.991  0.0643  0.0187  0.0143
14816W        W31290  13.217   9.308   0.998  0.1033 -0.0344  0.2768
14817W        W31291  11.236   3.533   1.197  0.2174 -0.1795  0.1447
14818W        W31292  12.068   5.261  14.207 -0.2084 -0.2049 -0.1649
14819W        W31293  14.859  13.902   5.929 -0.0491 -0.0663  0.0290
14820W        W31294  12.015   5.603  14.642 -0.1441 -0.0961 -0.2077
14821W        W31295  10.865   6.554  12.787 -0.0993 -0.2467  0.1976
14822W        W31296   2.537   9.725   5.428 -0.1327 -0.1945  0.1705
14823W        W31297   6.849   4.517  10.941  0.1323 -0.1303 -0.1763
14824W        W31298   2.179   9.884   0.216  0.2352 -0.2009  0.3557
14825W        W31299  11.639  14.899  12.078 -0.1561 -0.1466 -0.1712
14826W        W31300  14.244   1.556  14.427  0.0956 -0.0175 -0.0896
14827W        W31301  12.769  14.421  14.676 -0.2749  0.1915 -0.0404
14828W        W31302   3.679   8.535  11.712 -0.2426 -0.1284  0.1004
14829W        W31303   8.956  10.432   4.436  0.0555 -0.2096 -0.0061
14830W        W31304   5.217  10.695  16.017 -0.1148  0.2103  0.3541
14831W        W31305  17.661   9.467  15.705 -0.0057  0.0884  0.1112
14832W        W31306   9.875  13.905   1.487  0.0861 -0.0521 -0.0175
14833W        W31307   3.762   7.020   4.582 -0.1174  0.0939  0.2875
14834W        W31308  10.609   3.265   4.947  0.0736  0.0096 -0.0015
14835W        W31309  18.264  15.799  14.478 -0.1044 -0.3644  0.1563
14836W        W31310  16.235  10.163  13.748  0.2915  0.1859  0.4812
14837W        W31311   6.908  16.435  12.407 -0.2652  0.3338 -0.2581
14838W        W31312   0.570   7.772  12.266 -0.0319 -0.0110  0.1179
14839W        W31313  15.923   4.777   2.269 -0.0474  0.1086  0.3461
14840W        W31314  13.569  14.820   0.756 -0.2025  0.0080 -0.0192
14841W        W31315  10.115   0.086  11.387  0.1343  0.1117  0.0847
14842W        W31316  11.019   4.467   0.044 -0.0504 -0.1420 -0.1558
14843W        W31317   2.535  12.636  11.590  0.0846  0.0279 -0.1481
14844W        W31318  12.274   7.342  14.241  0.0698 -0.1416  0.3470
14845W        W31319   0.860   2.503  16.024  0.1972  0.1551 -0.2944
14846W        W31320   5.975   1.780  13.470  0.0985 -0.1688 -0.1940
14847W        W31321  16.461  16.776  11.579 -0.1579 -0.1250 -0.0902
14848W        W31322  15.062  13.785  13.643 -0.0373  0.0717  0.0428
14849W        W31323   9.547  16.548  12.032  0.1177 -0.0554  0.1143
14850W        W31324  13.488   9.560  14.307 -0.3242 -0.1215  0.1100
14851W        W31325  10.777   5.310  11.880 -0.2349 -0.2475  0.2265
14852W        W31326  17.916  16.822   4.490  0.0934  0.2623  0.2292
14853W        W31327   2.210   9.949   3.010 -0.1060 -0.1770  0.1222
14854W        W31328  11.553   8.852   3.820 -0.1565  0.1270  0.1943
14855W        W31329  13.654   9.738  12.577  0.0521 -0.1077  0.1620
14856W        W31330   2.601  15.830  14.315 -0.3750 -0.0917  0.1998
14857W        W31331   1.137   1.659   2.025 -0.0786  0.1540  0.0585
14858W        W31332  16.942  12.150  12.474  0.2218 -0.0578  0.2460
14859W        W31333  14.251  12.038   5.220  0.2315 -0.0621  0.1075
14860W        W31334  17.854  13.533  15.367  0.2735 -0.0961 -0.2662
14861W        W31335  12.378   7.470   0.214  0.0645 -0.2292  0.0792
14862W        W31336  17.970   7.234  14.879 -0.1057 -0.2458  0.2251
14863W        W31337   3.704   2.112  16.186  0.1891 -0.0939 -0.0137
14864W        W31338   5.595  12.389  12.562 -0.1310  0.1998 -0.0102
14865W        W31339   7.385   8.256  13.868 -0.1155  0.3190  0.1610
14866W        W31340  14.793   2.769  11.940  0.0931  0.0430 -0.1257
14867W        W31341  16.516   9.478  14.547 -0.1790 -0.1398  0.0781
14868W        W31342   4.950   6.453  14.502 -0.1552 -0.1302 -0.0077
14869W        W31343   6.363  11.537   2.312 -0.1261  0.1000  0.0976
14870W        W31344   6.095  15.355  14.511 -0.1707 -0.4170  0.1389
14871W        W31345  17.182   0.446  13.426 -0.0385  0.2286  0.1200
14872W        W31346  18.157  18.000   4.089 -0.0488  0.0187  0.1126
14873W        W31347   2.610  17.634  15.388  0.0788 -0.3815  0.0016
14874W        W31348  16.721   9.970   2.260  0.2196  0.0213  0.0407
14875W        W31349   2.729   0.147  13.033  0.1306  0.0972  0.0491
14876W        W31350   9.613   8.829  12.330 -0.0849 -0.0294 -0.1800
14877W        W31351   8.573  10.104  10.985 -0.4522  0.0741 -0.0379
14878W        W31352   2.930  17.240   0.672  0.0202  0.0022 -0.0090
14879W        W31353   1.022  13.651   1.240  0.1879 -0.0150 -0.0692
14880W        W31354  17.345   9.103  14.297 -0.0499  0.1381 -0.0158
14881W        W31355   2.100  14.419   5.859  0.1200  0.0258 -0.1120
14882W        W31356  17.194  14.485  16.035  0.2128 -0.0011 -0.1302
14883W        W31357   2.182  12.740  11.113  0.0162 -0.0366 -0.0848
14884W        W31358  16.921   9.109  11.764 -0.4116  0.2380  0.2914
14885W        W31359   9.833  12.289  15.766 -0.1900 -0.2294  0.1544
14886W        W31360  10.652   3.235  15.237 -0.0459  0.2213 -0.1196
14887W        W31361  13.834  13.765   2.665  0.1834  0.0298 -0.0721
14888W        W31362   8.439   2.437   1.042 -0.0950  0.0471  0.2158
14889W        W31363   9.466  10.497   1.306  0.0679  0.1255 -0.0906
14890W        W31364  12.812   1.297  13.371  0.2160  0.1066 -0.0214
14891W        W31365   1.314  10.698  12.792  0.3723 -0.2084 -0.0752
14892W        W31366  13.371   3.595   3.538 -0.4722 -0.0934  0.1367
14893W        W31367  13.290  16.179   0.843 -0.3925  0.1552 -0.0239
14894W        W31368   1.509   3.464  12.451  0.0162 -0.1016  0.0474
14895W        W31369   9.124   2.223  15.999  0.1054  0.2149 -0.0268
14896W        W31370   7.273   2.985  11.825  0.4790  0.3066  0.1241
14897W        W31371   8.203   3.794  11.955 -0.1923  0.1722  0.1414
14898W        W31372   5.726  16.609   3.315  0.2410 -0.2011 -0.1597
14899W        W31373   8.153   5.847  14.956 -0.1543  0.1580  0.1003
14900W        W31374   7.574   7.003   2.259  0.0114  0.0637 -0.0429
14901W        W31375   6.899   9.854  12.325 -0.0519  0.0620  0.4467
14902W        W31376  11.810  10.117  15.611 -0.0203  0.4699 -0.0993
14903W        W31377  10.839   9.579  12.247 -0.4584  0.0947  0.3128
14904W        W31378   2.558  16.124  16.111 -0.1726  0.1408 -0.3744
14905W        W31379  17.459   7.534  13.062 -0.0162  0.0836  0.3978
14906W        W31380   9.115   4.290   4.469 -0.0608 -0.1079 -0.1471
14907W        W31381  16.756  10.008   5.295  0.2793  0.0486 -0.3086
14908W        W31382  12.480  12.452   2.375  0.0713 -0.2014 -0.0704
14909W        W31383   3.853   1.892  14.988  0.0591 -0.0176 -0.2319
14910W        W31384   4.769  15.277   1.288  0.2805 -0.1651 -0.1684
14911W        W31385   1.117  14.830   1.526  0.2778 -0.1835 -0.0823
14912W        W31386  16.541   2.025   3.219 -0.2208 -0.0846  0.1522
14913W        W31387   3.979   7.926   4.347  0.0567  0.0655  0.1456
14914W        W31388   9.704  14.858  12.660  0.1275 -0.1434  0.0621
14915W        W31389  13.389   5.251   1.145 -0.0490 -0.1589 -0.3051
14916W        W31390   7.482   0.441   1.611 -0.0614 -0.1164  0.1452
14917W        W31391  16.213  10.030   3.028  0.1229 -0.2536 -0.2850
14918W        W31392  17.415  13.858   3.736  0.3062 -0.4257  0.1870
14919W        W31393   5.797   6.635  11.862  0.0842  0.0439 -0.0849
14920W        W31394   0.273   2.513   6.135  0.0811 -0.0124  0.1261
14921W        W31395   3.084   1.291  13.521 -0.2278 -0.0234  0.0761
14922W        W31396  15.092  11.893  14.084  0.1621  0.1333  0.0212
14923W        W31397   3.298  15.937  16.324  0.1763  0.1645 -0.2315
14924W        W31398  11.216   1.943  11.114 -0.3842 -0.0169  0.0208
14925W        W31399   6.483  15.352  14.957 -0.0000  0.0264  0.0234
14926W        W31400  10.584   4.285  16.064 -0.1678  0.1455 -0.0608
14927W        W31401  17.689   0.088  11.589  0.1515 -0.0738 -0.1025
14928W        W31402   1.482   5.313  14.875  0.0379 -0.1843 -0.0574
14929W        W31403   5.455  13.084   4.722 -0.4247  0.0152  0.1332
14930W        W31404  14.419  11.433  12.042  0.1125  0.0616 -0.0765
14931W        W31405  17.317   0.304   5.345  0.0338 -0.0294 -0.2795
14932W        W31406  11.487  13.966   1.818  0.2529 -0.0455 -0.2176
14933W        W31407   7.400   1.442  14.209  0.0603  0.1120 -0.0689
14934W        W31408   1.244   4.681  15.447 -0.1051 -0.0931 -0.0015
14935W        W31409   1.245   2.723   2.384  0.2064  0.2385 -0.3111
14936W        W31410   8.417   3.575   0.645  0.2884 -0.0706 -0.2183
14937W        W31411   4.301   3.704  12.523  0.1218 -0.0473 -0.3581
14938W        W31412  10.216   9.764   5.421 -0.1005 -0.1886  0.0774
14939W        W31413   8.937   6.068  14.287 -0.1257  0.4651  0.0064
14940W        W31414   5.237  14.665  14.861 -0.0376  0.1021  0.0701
14941W        W31415   6.379   8.311   3.094 -0.2474  0.1077  0.0649
14942W        W31416  14.015   9.757  15.686 -0.0274  0.0920  0.0281
14943W        W31417  14.561   0.419  14.688  0.1947 -0.2770 -0.1586
14944W        W31418   8.382  10.706  13.717  0.0532 -0.1415  0.1447
14945W        W31419   5.050  16.037   0.143 -0.0848  0.0969 -0.1438
14946W        W31420  14.364  16.105   5.426  0.2683  0.0011 -0.1388
14947W        W31421   5.045  13.665  15.789  0.4115  0.0594  0.0092
14948W        W31422  14.755   2.836   4.301  0.0452  0.0083 -0.1849
14949W        W31423  11.503   8.285  12.738 -0.1027 -0.0602 -0.2539
14950W        W31424  16.702   1.209  12.748  0.1887  0.2108  0.0519
14951W        W31425   6.428  13.169   4.817  0.0972  0.1149 -0.0094
14952W        W31426   8.527   4.757   3.879  0.3259  0.2373  0.1871
14953W        W31427  13.776   7.824   4.628  0.0382  0.1707  0.0931
14954W        W31428  15.753  15.479   0.611  0.1479  0.0512 -0.1459
14955W        W31429   4.317   9.695   4.091  0.2690  0.0907  0.1543
14956W        W31430  15.495  12.548  16.083  0.4078 -0.2413  0.1479
14957W        W31431   6.522   2.593   0.786  0.0427  0.4162 -0.2265
14958W        W31432  10.373   2.730   0.035  0.0011 -0.1316 -0.2940
14959W        W31433  15.163   6.185   2.136 -0.1518  0.2965 -0.1501
14960W        W31434  15.507   1.002   4.257 -0.0208 -0.1050 -0.0813
14961W        W31435   3.457   6.089  12.729 -0.1510  0.0555  0.1134
14962W        W31436   5.690  13.987  12.435  0.1978 -0.1136  0.0419
14963W        W31437  17.890  15.446   2.564 -0.1100 -0.2532  0.2150
14964W        W31438   6.207   0.696  12.123  0.2358  0.0886 -0.0435
14965W        W31439  16.646   7.900  14.710  0.1785 -0.0606  0.0501
14966W        W31440   4.417   9.914  12.615  0.0397 -0.2869 -0.0364
14967W        W31441   7.588  13.762   3.595  0.1565  0.0221 -0.0186
14968W        W31442   7.907   2.907  11.853 -0.0425 -0.3102  0.3645
14969W        W31443  17.333   7.842  13.848 -0.1025 -0.2883 -0.0765
14970W        W31444   7.097  16.051  13.883 -0.0064 -0.2631  0.0000
14971W        W31445   1.754   9.781   1.945  0.1574  0.2497 -0.0606
14972W        W31446  17.584   8.426  14.750 -0.1802  0.0203 -0.0005
14973W        W31447   5.956  13.553  15.118 -0.0556  0.1502 -0.1335
14974W        W31448  15.724  11.231  13.978  0.2467  0.2492 -0.2088
14975W        W31449   8.449  13.590   3.966 -0.0141 -0.1167 -0.0278
14976W        W31450  12.971  13.902   2.338 -0.1191  0.0269  0.1629
14977W        W31451   4.192  18.311   1.720 -0.4291 -0.0844 -0.5085
14978W        W31452  14.621   7.997  15.434  0.0759 -0.1288  0.1031
14979W        W31453   8.921  17.155  13.330 -0.1854 -0.1452 -0.2510
14980W        W31454   7.694  18.323  12.984 -0.3908  0.1605  0.1112
14981W        W31455  13.425   1.119  15.476  0.3129  0.1184 -0.1329
14982W        W31456   9.898   5.276   5.040 -0.1890 -0.1602 -0.2461
14983W        W31457  14.361   1.664   5.421  0.0537  0.2568 -0.0408
14984W        W31458   3.998   3.525   4.613 -0.0037  0.1083 -0.0124
14985W        W31459   3.294   4.653  12.551 -0.0715 -0.0128 -0.3713
14986W        W31460   8.260   5.887  13.221 -0.1222 -0.1435  0.0148
14987W        W31461  14.858   6.949  12.687 -0.0971  0.1090 -0.0510
14988W        W31462  12.258  17.147   2.868  0.2541 -0.2979  0.2536
14989W        W31463  16.442   8.885  13.341  0.2276  0.1216 -0.1956
14990W        W31464  12.653  10.617  12.390  0.0576 -0.2783 -0.2138
14991W        W31465  17.540   0.364   0.335  0.3671  0.0838 -0.1076
14992W        W31466   9.091  17.097  15.322 -0.0919 -0.1009 -0.4041
14993W        W31467   7.574  16.321   0.055  0.2678 -0.1062  0.1455
14994W        W31468  14.743  16.926  14.407 -0.0807 -0.0259 -0.1092
14995W        W31469  14.150  16.435  12.091  0.0516  0.2253 -0.1345
14996W        W31470   6.636   3.189  11.233 -0.0227 -0.1720 -0.2487
14997W        W31471   8.078  13.180  11.771 -0.1550 -0.0213 -0.0966
14998W        W31472  10.555  11.861  15.949  0.1466  0.1036 -0.0161
14999W        W31473   6.458  13.402  11.514  0.2360  0.0420 -0.1650
15000W        W31474   7.682   1.305  10.815 -0.1857 -0.0729 -0.0867
15001W        W31475   6.035   9.444  11.914 -0.0640  0.0383  0.3597
15002W        W31476   9.041  16.018  12.540  0.3169 -0.0714  0.2925
15003W        W31477   2.595  13.023   0.122  0.1720  0.1162  0.1075
15004W        W31478   0.281   9.829   4.503  0.0134 -0.0127 -0.1582
15005W        W31479  16.188  11.656  11.921 -0.0143  0.3169  0.0949
15006W        W31480   9.550  10.522   6.154  0.0270 -0.0236  0.0515
15007W        W31481  13.547  10.654   4.889 -0.0438 -0.0460 -0.2039
15008W        W31482   4.752   0.601  14.109  0.1783  0.0702  0.2359
15009W        W31483   2.141   6.955  13.852  0.1530  0.0633  0.1235
15010W        W31484   8.344   3.663   1.135  0.0698  0.1983 -0.1374
15011W        W31485  15.336   2.148   0.810 -0.0470 -0.0063  0.2399
15012W        W31486   4.112   9.490   1.491  0.0480  0.1129 -0.1606
15013W        W31487  12.309   8.006   4.963  0.2113  0.0385 -0.0821
15014W        W31488   1.993  12.172   3.943 -0.0508  0.1554 -0.2389
15015W        W31489  18.255   3.506   5.138 -0.4041 -0.1900  0.1528
15016W        W31490  10.785   2.784   1.004  0.2036 -0.1841  0.2298
15017W        W31491  10.967  14.836  12.614  0.2520  0.0201 -0.0164
15018W        W31492  16.326   7.984   0.640  0.1037  0.0728 -0.0123
15019W        W31493  14.373  15.706  15.884  0.1116 -0.1637  0.2157
15020W        W31494   4.357   9.569   0.481 -0.1970 -0.2446  0.2193
15021W        W31495  15.131  16.478   4.387 -0.2815  0.0852  0.0018
15022W        W31496   5.200   0.760   1.245  0.2316  0.0989 -0.0084
15023W        W31497   7.781  16.278   4.275 -0.0042 -0.1787  0.2186
15024W        W31498   8.849   4.947   5.000 -0.0158  0.2772  0.4697
15025W        W31499   1.653  14.241   1.031 -0.3466 -0.3378  0.2157
15026W        W31500  17.749  16.076  14.654  0.0266 -0.1329  0.1371
15027W        W31501   8.479   2.469  14.468 -0.0625 -0.2477 -0.2707
15028W        W31502   5.971   8.470  14.462 -0.0110  0.0905 -0.0140
15029W        W31503   8.509   4.784   2.035  0.2823  0.0482 -0.1729
15030W        W31504   0.357   1.490  12.383  0.1347  0.0085 -0.1161
15031W        W31505  15.109  16.277  15.446 -0.0870  0.2536  0.3955
15032W        W31506  17.071   9.768   1.931 -0.1341 -0.0100  0.0553
15033W        W31507  15.865   6.290  11.175 -0.0758  0.1264  0.0739
15034W        W31508  16.790  12.167  13.567  0.1655 -0.2229  0.1570
15035W        W31509   4.487   5.173  14.626 -0.2786  0.0607 -0.0592
15036W        W31510   5.011   6.763  13.434 -0.0887 -0.0541  0.1614
15037W        W31511  16.134   2.052  15.947 -0.3239  0.0374  0.0926
15038W        W31512   0.910   0.984  10.760  0.0171 -0.0472  0.0232
15039W        W31513   2.204  12.894  16.130 -0.2355  0.2569  0.2073
15040W        W31514   6.573   4.769   3.595 -0.2099  0.0531 -0.0553
15041W        W31515  13.689   7.680   3.620 -0.0650  0.0029  0.1204
15042W        W31516  11.141   1.699  13.527 -0.1894 -0.1189  0.0456
15043W        W31517   8.840   3.773   3.648  0.1583  0.0674 -0.1556
15044W        W31518  10.402  17.752  14.480 -0.3120  0.1090  0.0345
15045W        W31519  11.666  12.609  13.920 -0.0781  0.1250 -0.1607
15046W        W31520   3.341   1.749  12.351  0.1159 -0.1114  0.1605
15047W        W31521  12.001   4.892  12.361 -0.0339  0.2561  0.3771
15048W        W31522   1.065  11.298  13.656 -0.2894  0.1753  0.0705
15049W        W31523  13.986   1.155   5.063  0.3133 -0.2827  0.2424
15050W        W31524  15.267   8.515   2.612 -0.1257  0.2586  0.1440
15051W        W31525   3.035   5.097   0.776 -0.0100 -0.1937  0.2516
15052W        W31526   1.217  13.804  12.923  0.1709  0.2985 -0.1961
15053W        W31527  12.481  18.129   3.321  0.2193  0.1506  0.0303
15054W        W31528   8.122  14.579   3.521  0.4292  0.2274 -0.5814
15055W        W31529  17.683  14.469   5.412 -0.0591 -0.2891 -0.2607
15056W        W31530  17.430   6.860  12.520  0.0798 -0.1772  0.1593
15057W        W31531  14.694   0.205  14.194 -0.2786  0.2733 -0.2599
15058W        W31532  18.121   4.959   2.105 -0.1059 -0.1534  0.1364
15059W        W31533  16.641  17.865   4.109  0.2602  0.2571 -0.0624
15060W        W31534   8.045   8.183   0.486 -0.2045  0.2636 -0.0621
15061W        W31535  17.176   1.831  12.895 -0.0533  0.1970  0.3938
15062W        W31536  17.763   2.684   0.607  0.2500 -0.2513  0.0734
15063W        W31537   6.887   5.894  14.531 -0.1978  0.2845 -0.1705
15064W        W31538  11.721   8.348  11.666  0.1534  0.1684  0.4898
15065W        W31539  10.443  10.559   1.615 -0.0453 -0.1156 -0.3388
15066W        W31540   7.188  14.597  15.775  0.1900 -0.2577  0.1975
15067W        W31541  13.585   4.196  14.217 -0.0535  0.1332 -0.1242
15068W        W31542   2.390  13.336  12.281  0.1593 -0.0458 -0.4866
15069W        W31543   1.667  17.046   2.061 -0.0939 -0.1006  0.0111
15070W        W31544   1.275  13.055   0.798  0.2248  0.1356  0.3590
15071W        W31545  11.000   1.882  14.342 -0.0187  0.0194 -0.0092
15072W        W31546  10.558  15.413  15.798 -0.1780 -0.4151 -0.0068
15073W        W31547   7.598   8.458  15.281  0.0495  0.2108 -0.1188
15074W        W31548   6.849   7.918  12.751  0.1200  0.0438 -0.0584
15075W        W31549   4.453  16.296   5.525  0.0867  0.2599 -0.2016
15076W        W31550  13.055  10.153  15.185  0.1345 -0.2904 -0.1774
15077W        W31551  17.935  16.938  15.841  0.1348  0.0521 -0.2110
15078W        W31552   4.020   3.154   1.912 -0.1473  0.0140  0.0315
15079W        W31553  12.103   1.302  13.072 -0.0188 -0.1593  0.1422
15080W        W31554   4.514  15.807  13.512  0.0982 -0.0332 -0.1832
15081W        W31555  14.006   9.600  16.183 -0.0815 -0.1190  0.0460
15082W        W31556  17.053   6.734   1.103 -0.1016  0.1072 -0.0888
15083W        W31557  14.843  12.281  14.678  0.2615 -0.0577  0.0716
15084W        W31558  10.076   9.478  15.552  0.2802  0.0792 -0.0050
15085W        W31559  14.172   6.905   3.679 -0.2962 -0.0082  0.1968
15086W        W31560   8.814   9.622   5.523 -0.2329  0.0818 -0.0785
15087W        W31561   2.174  12.839   4.676  0.0906  0.0589 -0.0558
15088W        W31562   9.440  13.027   3.964 -0.1098 -0.0188 -0.2052
15089W        W31563   4.718  12.060   2.058  0.0618 -0.0182 -0.0212
15090W        W31564   5.790   1.105  12.379  0.0427  0.0830  0.1783
15091W        W31565   1.481  16.630  12.954  0.1295  0.0860  0.2327
15092W        W31566  10.733   2.084  12.357 -0.0820  0.1051 -0.1949
15093W        W31567  13.414   8.408   3.177 -0.0812 -0.0883 -0.1473
15094W        W31568   4.867   4.576   0.916 -0.0203  0.0677  0.1849
15095W        W31569  18.163  17.569  15.551  0.0305  0.2751 -0.0194
15096W        W31570   5.859  15.665   3.375 -0.0901 -0.1951 -0.2427
15097W        W31571   4.788   5.458  15.487  0.1596  0.0434  0.0023
15098W        W31572   2.339  13.803  12.555 -0.0339 -0.1775  0.1352
15099W        W31573   4.768   1.951   5.138 -0.0248  0.0475 -0.2413
15100W        W31574   9.520  14.737   1.257 -0.0207  0.0814  0.3368
15101W        W31575  13.091  17.454   3.448  0.0762  0.0794  0.0890
15102W        W31576   8.586   2.559  15.746 -0.2196 -0.1146 -0.0536
15103W        W31577  15.337   9.235  12.543  0.1648 -0.2285  0.1902
15104W        W31578   7.545   5.243  14.196 -0.2940 -0.1625  0.0839
15105W        W31579  10.804   9.170   4.063 -0.1542  0.1952 -0.2208
15106W        W31580   4.457   3.809  11.645  0.0138  0.0206  0.2806
15107W        W31581  18.034   6.732   0.975  0.1948 -0.1233  0.1718
15108W        W31582   7.700  14.246  14.228 -0.1227  0.1751  0.0063
15109W        W31583   6.404   3.960  15.260  0.2388  0.2322  0.1069
15110W        W31584  10.432  12.465   0.246 -0.0105  0.0626 -0.1181
15111W        W31585   4.760  10.496   2.277  0.0332  0.0261 -0.1570
15112W        W31586   6.139  12.875  13.147 -0.1830  0.3289  0.2081
15113W        W31587  10.064  12.155   0.377 -0.0742  0.0784  0.0634
15114W        W31588   6.411   0.295   1.962 -0.0278 -0.0577 -0.0390
15115W        W31589  15.972   0.865  16.264  0.1443  0.1626 -0.1285
15116W        W31590  18.191   0.083  13.370  0.1472 -0.0398  0.1781
15117W        W31591   4.259   5.821   4.220 -0.0644  0.1286  0.1523
15118W        W31592   4.994  11.059   0.898  0.1447  0.1510 -0.0559
15119W        W31593   0.071  16.212   5.595 -0.1006  0.3155  0.1853
15120W        W31594   7.624  12.061   2.891  0.2721 -0.2007 -0.3303
15121W        W31595   2.785   0.825  14.340 -0.0330  0.0081 -0.1465
15122W        W31596   3.620  17.724   3.865 -0.0744  0.0847  0.1784
15123W        W31597  10.173   5.566   2.758  0.1769 -0.1360 -0.1722
15124W        W31598   9.693  11.751   0.615 -0.0519 -0.0615  0.0136
15125W        W31599   0.646  15.497   1.896  0.3160  0.1890  0.0483
15126W        W31600   4.424   7.621  13.043 -0.2764  0.1233  0.0707
15127W        W31601   6.722   1.376   3.272 -0.0337  0.0049 -0.1009
15128W        W31602   0.813  14.647  12.654 -0.0185  0.0576  0.1425
15129W        W31603  17.187   6.414   1.446  0.0440  0.1725 -0.1709
15130W        W31604  13.486  12.151  12.727 -0.2430  0.1346 -0.0146
15131W        W31605  10.325   4.624   5.456  0.0573  0.1816  0.0895
15132W        W31606  11.142   5.505  11.516  0.3112  0.0063 -0.0473
15133W        W31607  15.840  15.713   2.883 -0.2477  0.3794 -0.1504
15134W        W31608   3.387  14.584   3.493  0.2313 -0.1596 -0.1068
15135W        W31609   0.454  10.929  12.134  0.2463  0.0279 -0.1373
15136W        W31610  17.170  10.354  10.222  0.0333 -0.0349  0.4281
15137W        W31611   2.670   1.256   4.872  0.2918  0.0740  0.0463
15138W        W31612   3.454   0.988  15.601 -0.1680 -0.0362 -0.2346
15139W        W31613   1.757   3.440   5.124 -0.0216  0.2480 -0.0749
15140W        W31614  14.719  17.679   1.845  0.4605  0.1350  0.1121
15141W        W31615   8.264   7.070  16.186  0.3123  0.0098  0.0855
15142W        W31616  17.534  11.427   2.399 -0.0582  0.2621 -0.0534
15143W        W31617   9.284  16.779   0.990  0.0265 -0.1080  0.0430
15144W        W31618  12.477   4.998   3.376  0.0131  0.5014 -0.1683
15145W        W31619  17.546  17.295  12.573  0.0756 -0.0458  0.1573
15146W        W31620   1.470   0.415   1.774  0.2789  0.2696 -0.2758
15147W        W31621   6.039   0.261  14.162  0.2904  0.0086 -0.0875
15148W        W31622   0.581  12.189  14.697  0.0325  0.2847 -0.0873
15149W        W31623  14.911  16.142  10.497 -0.1412  0.0374 -0.2580
15150W        W31624  13.693   7.949   5.192 -0.0123  0.3853  0.0008
15151W        W31625   5.384  16.381  12.791 -0.3267  0.3424  0.0447
15152W        W31626   1.876   8.068   0.532 -0.0536 -0.0964  0.0124
15153W        W31627   7.976   4.950  12.401 -0.2072 -0.0283  0.1089
15154W        W31628   6.045   8.610   4.269  0.3567  0.2411 -0.1476
15155W        W31629   9.154   6.854  11.798 -0.0190 -0.0622 -0.0688
15156W        W31630  14.510  12.492   5.223  0.0769  0.2029 -0.0046
15157W        W31631   0.158  12.942   2.839 -0.1644 -0.1264 -0.0113
15158W        W31632  16.910   8.736   2.070 -0.0091 -0.1169 -0.2120
15159W        W31633   0.500   8.995  11.771 -0.0752 -0.1758  0.1343
15160W        W31634   1.921   1.220   2.285 -0.0590 -0.2011 -0.0313
15161W        W31635  15.925   0.948   2.319 -0.0566 -0.1001  0.1424
15162W        W31636   8.107   7.614  14.591 -0.0556 -0.1077 -0.2094
15163W        W31637  11.797  15.862   5.421  0.0191  0.0153  0.0832
15164W        W31638  10.197   7.194  12.814 -0.1841  0.0261  0.1899
15165W        W31639   3.402   3.674   3.458 -0.2820 -0.0359  0.0016
15166W        W31640   8.618   6.411  12.383 -0.1567 -0.2155 -0.0558
15167W        W31641   3.286  16.561   4.982  0.0996 -0.4282 -0.2832
15168W        W31642   2.729   8.741  12.090  0.2489 -0.3020 -0.1201
15169W        W31643  11.475  14.899  12.584 -0.1044  0.1492  0.0412
15170W        W31644   8.019  15.711  13.154  0.3361 -0.2402  0.2481
15171W        W31645  14.652   2.581  15.828 -0.0090  0.0644  0.2658
15172W        W31646   5.681   2.511  13.388 -0.1526  0.1227 -0.0130
15173W        W31647   6.159  17.020  15.792  0.1579  0.0913  0.4151
15174W        W31648   5.973   6.948   3.374  0.5268 -0.2126  0.0981
15175W        W31649   9.000  14.219  11.594  0.2594  0.1795  0.0807
15176W        W31650  11.469   5.052  12.366 -0.0390  0.1566  0.1687
15177W        W31651   6.706   0.405   1.033 -0.1630 -0.1573  0.1915
15178W        W31652  10.209   6.340   3.391 -0.0150 -0.2460 -0.0439
15179W        W31653   0.186   6.440  15.932  0.0558  0.1365 -0.3309
15180W        W31654   1.205   9.181  11.157  0.5771 -0.1522 -0.0113
15181W        W31655  16.784  12.920  13.870  0.2368 -0.1004 -0.0571
15182W        W31656  16.418  12.745   3.185  0.1505 -0.1757  0.3513
15183W        W31657  17.117   9.746   2.993  0.2580 -0.3849  0.0513
15184W        W31658  12.216   6.024   5.345  0.1362  0.3044 -0.0009
15185W        W31659  17.724   0.394  11.163  0.3947 -0.2494 -0.0209
15186W        W31660  14.359  13.187  12.443  0.0180 -0.0122  0.1269
15187W        W31661  16.114  10.142   3.865  0.0416  0.1536 -0.2542
15188W        W31662   7.108  14.233  16.295 -0.1342 -0.0771 -0.0516
15189W        W31663   3.573   7.448  14.034  0.0373  0.1075 -0.0768
15190W        W31664   0.960   7.793   0.172 -0.2148 -0.2438  0.0571
15191W        W31665  14.091   2.290   2.523 -0.0466 -0.3552  0.0219
15192W        W31666   5.895   3.432  14.483 -0.2123  0.0512  0.4615
15193W        W31667   6.137   4.173  14.698 -0.0852  0.1099  0.2625
15194W        W31668  15.593  13.195   1.663  0.2120 -0.1214 -0.1149
15195W        W31669  14.485  16.712   3.409  0.2130  0.1387  0.0855
15196W        W31670   8.589  11.068   1.660 -0.2338  0.3302 -0.0021
15197W        W31671   5.063   1.903   3.093  0.0698 -0.1650 -0.0620
15198W        W31672  10.451   4.990  12.125 -0.1208 -0.0015 -0.0847
15199W        W31673  14.405   1.681   2.023  0.1334 -0.2822  0.3697
15200W        W31674   6.537   7.284   3.478 -0.2364  0.0139 -0.0977
15201W        W31675   8.480   3.390  12.108 -0.1109  0.1427 -0.1292
15202W        W31676   1.555   8.426  11.622  0.3056 -0.1449  0.0794
15203W        W31677   7.101  18.222  15.808  0.2975 -0.4032 -0.0220
15204W        W31678   0.555   7.770  14.697 -0.0514 -0.0066 -0.0282
15205W        W31679  16.139   3.227   3.431 -0.2544 -0.1876 -0.3450
15206W        W31680  12.834  11.864   3.533 -0.2534  0.1713 -0.0336
15207W        W31681  13.838   3.592   3.484 -0.0226  0.1769  0.3669
15208W        W31682  13.638  15.558   1.718 -0.2446  0.3431 -0.2881
15209W        W31683  15.562  15.184   1.007 -0.3001  0.1058  0.0311
15210W        W31684  11.831  14.613  12.443  0.1592  0.0146  0.0088
15211W        W31685   8.057  12.765   1.746  0.0437 -0.0357  0.0091
15212W        W31686  10.843  18.178   0.166  0.1076 -0.0778 -0.0042
15213W        W31687  17.572  11.838  15.060  0.0569  0.0581  0.1707
15214W        W31688  12.405   5.697  11.577 -0.2237  0.2140 -0.3458
15215W        W31689  15.809   3.169   0.278 -0.1965  0.1343 -0.1645
15216W        W31690  12.025   9.822  13.037  0.2405 -0.0545 -0.0788
15217W        W31691   6.339   5.702   6.132 -0.0989  0.0660 -0.1463
15218W        W31692   8.402   7.158   3.271 -0.1259 -0.2454 -0.0560
15219W        W31693   7.082   8.177  14.637  0.1585 -0.2888  0.1348
15220W        W31694   2.224   5.543   4.693 -0.4103  0.0170 -0.1345
15221W        W31695   1.769  17.652   3.283  0.0986 -0.0978 -0.5285
15222W        W31696  17.877   7.144  16.067  0.0991  0.2257 -0.1558
15223W        W31697  12.761  18.004   0.798  0.4098  0.1940 -0.0815
15224W        W31698   0.495  13.454   4.967 -0.2680  0.0357  0.2033
15225W        W31699   1.970   4.573  15.369  0.0538 -0.5597  0.0175
15226W        W31700   2.289  10.403   2.857 -0.1295  0.0975  0.0235
15227W        W31701  13.343  12.055  14.055  0.0917  0.0991  0.0166
15228W        W31702  11.227  12.283  11.611  0.2184 -0.1138  0.1117
15229W        W31703   4.424   0.376   1.347  0.1469  0.1649  0.2541
15230W        W31704   0.784   8.723   4.872 -0.0553  0.1576  0.1347
15231W        W31705   5.870   3.879   0.915 -0.1355 -0.0043  0.0365
15232W        W31706   7.638   2.670  13.600 -0.2181  0.4033  0.3279
15233W        W31707  15.808   8.998   0.583  0.0707  0.1491 -0.0255
15234W        W31708  13.026  14.986   4.650 -0.2069 -0.2157 -0.1618
15235W        W31709   0.980   4.189   0.512  0.0870  0.1910 -0.0075
15236W        W31710  11.355  12.385   0.871 -0.3354 -0.0425 -0.2772
15237W        W31711  15.324  16.581  14.600  0.0962  0.0455 -0.1599
15238W        W31712   9.734   0.338   3.280  0.4920 -0.0191  0.2601
15239W        W31713   6.284  11.095   4.146 -0.0929  0.4094 -0.0095
15240W        W31714  17.698   4.072  11.850 -0.1155  0.0234  0.0998
15241W        W31715   3.755  10.945   5.997  0.0020 -0.0643 -0.0996
15242W        W31716   9.884  13.181   3.415 -0.2179  0.2313 -0.2433
15243W        W31717  17.158  11.080   2.557  0.2265 -0.0526 -0.0302
15244W        W31718  16.522   1.279   5.210  0.1660 -0.1507 -0.0430
15245W        W31719   8.094   8.699   0.205 -0.0539  0.0102  0.0755
15246W        W31720   1.650  13.405   3.804  0.0205 -0.0192 -0.1577
15247W        W31721  14.781  18.047  13.288 -0.2222  0.4599 -0.0216
15248W        W31722  17.846  17.074  14.396 -0.0517 -0.0426  0.1900
15249W        W31723   4.683   4.418  12.490 -0.0628 -0.2707  0.2341
15250W        W31724   2.372  11.950  15.987 -0.1446 -0.1317 -0.1562
15251W        W31725   3.953   7.187  14.762 -0.3776  0.0392 -0.1750
15252W        W31726   1.683   6.707  13.916 -0.1386  0.3096 -0.1127
15253W        W31727   9.486   4.076  14.502 -0.0850 -0.1570 -0.0671
15254W        W31728   3.447   1.621  13.295 -0.0189 -0.1987  0.1586
15255W        W31729   5.975  12.402  11.648  0.0679  0.0284  0.0646
15256W        W31730   3.579   2.832  14.643 -0.0170 -0.0518 -0.3078
15257W        W31731   1.245   3.783   2.398 -0.0848  0.0184 -0.0623
15258W        W31732   8.531  15.054  15.848  0.2497  0.0286 -0.0330
15259W        W31733   7.306   5.347  15.547  0.0110  0.4173  0.0534
15260W        W31734  15.915   4.491   5.157 -0.0668 -0.0143 -0.1261
15261W        W31735   8.787  10.013   2.930 -0.2384 -0.1763 -0.1273
15262W        W31736   6.416  12.218  14.748 -0.0692 -0.1492 -0.0082
15263W        W31737   3.920   6.268  11.295 -0.0197 -0.0893  0.0080
15264W        W31738   3.789   1.273   1.014 -0.0104 -0.0464 -0.2140
15265W        W31739  16.272   5.703   2.211  0.0325 -0.0023  0.0113
15266W        W31740   0.460  16.583   4.131 -0.4032  0.0023 -0.1977
15267W        W31741  18.148   2.496   1.804 -0.0290 -0.0917 -0.2499
15268W        W31742  12.767  16.395  14.339 -0.2073 -0.2042  0.1518
15269W        W31743   6.747  13.828   1.468  0.3828 -0.3427  0.2148
15270W        W31744   4.270   9.979   0.850  0.0526  0.0946  0.0619
15271W        W31745  12.052   7.541   0.975 -0.2098  0.0277  0.0088
15272W        W31746   8.407   6.407  13.216 -0.0378  0.0140 -0.1778
15273W        W31747   4.808   8.808   2.017  0.1439  0.0491 -0.1299
15274W        W31748  18.241  16.932   2.027 -0.0100  0.2061 -0.1376
15275W        W31749   9.020   9.985   1.246 -0.0920 -0.0037 -0.2754
15276W        W31750   3.370   7.149   5.387  0.1781 -0.4069 -0.0405
15277W        W31751   4.877  17.430   4.183 -0.3073 -0.3419  0.0770
15278W        W31752  10.958   3.838  10.381 -0.0323  0.2573  0.2555
15279W        W31753  16.135   5.325   1.034  0.1153  0.0278 -0.1551
15280W        W31754   1.721  17.940   1.324  0.1582  0.2907  0.1066
15281W        W31755  13.181   7.159   3.998  0.5100 -0.2616 -0.0329
15282W        W31756  16.660  16.532  15.090  0.0637 -0.0276 -0.1208
15283W        W31757  14.889   6.676   1.983  0.0164  0.2293  0.2199
15284W        W31758  11.304   3.840   0.368  0.1698 -0.1765  0.0087
15285W        W31759   7.332   5.064   2.125  0.0274 -0.0752  0.2156
15286W        W31760  12.317  16.137   4.711  0.1338  0.1611 -0.2139
15287W        W31761   9.455  11.594   1.022  0.1136  0.2947 -0.1843
15288W        W31762   0.571   0.833  14.148  0.0376  0.1415 -0.1143
15289W        W31763   7.803  13.711  13.892  0.1375  0.0368 -0.0396
15290W        W31764   8.383   3.258   2.945 -0.2583  0.0893  0.0529
15291W        W31765  16.801  13.143  14.821 -0.0866 -0.0679 -0.0104
15292W        W31766   4.846   9.208  16.144 -0.0308  0.1927 -0.3303
15293W        W31767  18.146   6.082   4.122  0.1598 -0.1611 -0.3239
15294W        W31768  10.809   7.839  13.178  0.0473 -0.5335 -0.0123
15295W        W31769   5.051  10.680   4.752 -0.1491 -0.2367  0.1801
15296W        W31770  13.208   7.728  15.742 -0.1463  0.2165  0.1347
15297W        W31771   7.468  10.560   1.894 -0.0339  0.2432  0.2681
15298W        W31772  16.072   9.647  13.694 -0.0835 -0.0133 -0.3137
15299W        W31773  11.068  13.788   1.596  0.1160  0.2300  0.1346
15300W        W31774   3.491  12.892  15.144  0.1109 -0.0531  0.0683
15301W        W31775   1.213   7.793   3.581 -0.3576  0.0750 -0.2219
15302W        W31776  12.586   8.466  11.413  0.2412  0.0900 -0.0907
15303W        W31777  16.630  18.038   5.269 -0.0471  0.0610  0.2977
15304W        W31778   7.062  15.957   3.725  0.0743  0.3590 -0.1241
15305W        W31779  13.806  17.476   1.563  0.2152 -0.2001 -0.0831
15306W        W31780  13.889  17.839  12.585  0.4363 -0.0341  0.0523
15307W        W31781   8.826  10.977  11.380  0.0576 -0.0125  0.1326
15308W        W31782   4.260  12.240  11.703 -0.0001 -0.1786  0.1236
15309W        W31783   5.499  17.754  11.010  0.0974  0.2265  0.0823
15310W        W31784  18.263  17.180   2.472  0.0072  0.0484  0.1190
15311W        W31785   4.466   1.022  14.220 -0.1094 -0.0702 -0.1532
15312W        W31786   4.731  14.895   0.626 -0.1556  0.3499  0.2885
15313W        W31787  10.022  10.780  14.837  0.1944  0.2309  0.1859
15314W        W31788   8.267  16.559  12.987 -0.3977  0.1590 -0.1705
15315W        W31789   5.285  13.776   3.590 -0.3650  0.3383  0.0891
15316W        W31790   2.547   4.773   0.791  0.3325  0.3168  0.1320
15317W        W31791  16.465  12.204   2.880 -0.0656 -0.0284 -0.1879
15318W        W31792  13.535   2.048   0.064  0.0286 -0.1085 -0.2648
15319W        W31793  11.176  14.652   1.178 -0.4944  0.0189 -0.1125
15320W        W31794  11.759  13.160   4.007  0.0195  0.0750 -0.3370
15321W        W31795   5.029   6.068   3.188 -0.0193  0.1583 -0.3497
15322W        W31796   3.261   3.298   4.444 -0.0289  0.0694  0.0793
15323W        W31797  15.469  13.349  14.945  0.1100 -0.2070  0.1360
15324W        W31798   7.448   6.077  11.935 -0.3136 -0.1440 -0.1132
15325W        W31799  10.276   4.115   3.520 -0.0663  0.0556 -0.0531
15326W        W31800   6.956  15.615   4.583 -0.3289  0.2986  0.1628
15327W        W31801  14.402   4.962  12.615  0.3295  0.0130  0.0569
15328W        W31802   3.103  17.655  12.458 -0.1626 -0.1267  0.1761
15329W        W31803   7.476   0.632  14.772  0.0050 -0.0063 -0.0326
15330W        W31804  15.362  15.760   3.670  0.3588 -0.1565  0.1146
15331W        W31805  13.379   9.085  14.175  0.0555 -0.1276 -0.2048
15332W        W31806   6.721   3.213   3.433 -0.2150  0.1293 -0.0220
15333W        W31807   7.669  11.442   3.546  0.2946 -0.0102 -0.1644
15334W        W31808   6.084  15.489   0.387  0.0732 -0.0965 -0.2936
15335W        W31809   3.991  14.068   5.239  0.0645 -0.0667 -0.0958
15336W        W31810  13.123  10.911  12.447 -0.1401  0.0166 -0.1012
15337W        W31811  14.044   4.899  15.793 -0.0629 -0.0256  0.0203
15338W        W31812  10.442   8.925   2.563  0.1432  0.0245  0.0544
15339W        W31813  10.832   1.112  16.037 -0.3668  0.0642  0.0720
15340W        W31814   1.735   0.103  11.576 -0.2069  0.1175  0.4646
15341W        W31815   2.882  11.527   1.057  0.1423 -0.2647 -0.1713
15342W        W31816   0.905  12.403   0.574 -0.2911  0.2377 -0.1562
15343W        W31817   4.405   5.222  15.730 -0.2766 -0.2124  0.2773
15344W        W31818   7.069   1.842  11.431  0.0078  0.1167  0.0976
15345W        W31819   9.949   9.914   0.896  0.1867 -0.0301  0.2670
15346W        W31820   1.782   8.619   5.865 -0.0197  0.3324  0.3110
15347W        W31821  11.694  17.026  12.441 -0.1363 -0.2216  0.0171
15348W        W31822   6.740   7.856   5.016  0.0103 -0.1776 -0.0145
15349W        W31823   6.996  11.784  14.698 -0.2109 -0.2127 -0.2148
15350W        W31824   3.657   4.145  11.684 -0.4408  0.0780 -0.0760
15351W        W31825   3.248  10.271  11.881  0.2172  0.3366  0.1029
15352W        W31826   4.183  11.765  11.974 -0.0539  0.2093  0.2387
15353W        W31827   7.216   4.295   1.007  0.2649  0.0084  0.1554
15354W        W31828   4.515   9.462   2.112 -0.1363  0.0190  0.1657
15355W        W31829   9.118   6.772   2.020 -0.2873  0.0507 -0.2562
15356W        W31830   3.758   5.069  14.734  0.1692  0.1256  0.1479
15357W        W31831   4.114   6.625  13.980  0.0762  0.2310  0.0577
15358W        W31832   1.342  16.712  15.419 -0.0562 -0.0369  0.1563
15359W        W31833   3.540   0.936  16.132  0.1159 -0.3309  0.3563
15360W        W31834   2.275   0.739  11.032  0.2765  0.0729 -0.1282
15361W        W31835   5.166   3.451   6.157 -0.3100  0.0773  0.1090
15362W        W31836  15.905  15.927  14.160  0.4178  0.2603  0.0344
15363W        W31837   4.972  18.321   3.594 -0.0179  0.2375 -0.0022
15364W        W31838  14.045  17.367  12.131 -0.1208 -0.1979 -0.0395
15365W        W31839  14.026  16.794  14.657 -0.1290 -0.1732 -0.3214
15366W        W31840   9.967   1.234  12.927  0.2755  0.0749  0.3972
15367W        W31841  15.106   0.957  16.216 -0.0223 -0.1232 -0.1769
15368W        W31842   7.643  12.883   0.821  0.1318  0.2570  0.0102
15369W        W31843   4.357   1.832  14.187 -0.0780 -0.2956  0.1930
15370W        W31844  14.311  16.000   2.078 -0.1273  0.0741  0.1201
15371W        W31845   0.349   1.374   4.424  0.0670  0.0062  0.0553
15372W        W31846  15.496   3.548   4.145  0.0583 -0.0156 -0.0563
15373W        W31847   6.043  12.314  12.924 -0.1464 -0.3364 -0.0087
15374W        W31848   5.089  14.676   4.093 -0.0235 -0.0141 -0.0230
15375W        W31849  15.091   9.888   5.404 -0.2135  0.0322  0.5805
15376W        W31850  14.241  10.508   0.814  0.2116  0.3583  0.3485
15377W        W31851   6.623   7.911  15.581 -0.0633  0.0230 -0.1516
15378W        W31852  16.591   4.369   2.808 -0.2642  0.1746 -0.2919
15379W        W31853  10.195  10.587   5.362 -0.1646 -0.1591  0.0353
15380W        W31854  13.596  17.074   0.563  0.1571  0.2734 -0.0952
15381W        W31855   4.220   1.638   0.765  0.0939 -0.1607 -0.2219
15382W        W31856   0.771   7.743   0.657 -0.1517 -0.1468  0.2400
15383W        W31857   0.869  11.844   1.093 -0.0759 -0.0242 -0.0092
15384W        W31858   6.147  13.283  15.546 -0.2525  0.0010 -0.0907
15385W        W31859  10.238  16.898   0.979 -0.2276 -0.0223 -0.1260
15386W        W31860   9.197  11.304  13.181  0.1625  0.2013  0.0559
15387W        W31861   3.885   4.726   4.867 -0.2497 -0.3174 -0.1533
15388W        W31862   7.703   6.665   4.007  0.0502  0.0809 -0.1852
15389W        W31863   9.375  13.679   4.873  0.1219  0.0531  0.1949
15390W        W31864  16.002   3.292   4.260 -0.0847 -0.1331  0.1025
15391W        W31865  13.923  12.515  15.866  0.2904 -0.1447  0.0683
15392W        W31866  11.777   3.255   4.703 -0.1014 -0.0894 -0.0811
15393W        W31867   1.676  10.269   0.162 -0.1254  0.3391  0.2222
15394W        W31868  10.773   5.389   4.951 -0.2282  0.0373  0.1222
15395W        W31869  14.080   9.197   3.354 -0.1564 -0.1885  0.0200
15396W        W31870  14.334   6.595   6.371  0.0328  0.1461  0.2745
15397W        W31871  13.237  13.901   4.506  0.2215  0.4964 -0.2981
15398W        W31872   3.139  10.703   2.999 -0.0976  0.0261 -0.0771
15399W        W31873  10.803   5.254  13.595 -0.2140 -0.4347  0.0582
15400W        W31874   4.349   4.364  15.021 -0.1900 -0.1064  0.0394
15401W        W31875  16.801  14.591   1.857  0.1295  0.3618  0.0085
15402W        W31876   3.699  12.497  13.889 -0.1789 -0.1188  0.2083
15403W        W31877  15.833  16.555  15.575 -0.1443  0.0213 -0.1116
15404W        W31878  14.132   7.456  14.101 -0.1847 -0.0878  0.0476
15405W        W31879   3.124  17.487   5.203 -0.2314 -0.0671 -0.2364
15406W        W31880   2.501   7.500   0.327 -0.1274 -0.0836  0.1618
15407W        W31881  17.891   1.163  15.349 -0.1135 -0.0595  0.0222
15408W        W31882  16.222  17.034   2.109 -0.2271 -0.0314 -0.2071
15409W        W31883   7.132   5.858  13.610 -0.0284  0.1778 -0.0867
15410W        W31884  10.986   7.159   0.095 -0.0749 -0.2579  0.0261
15411W        W31885   9.016  17.431   3.220  0.1220  0.0338  0.3619
15412W        W31886   1.168  16.695  14.632 -0.0653  0.3381 -0.0497
15413W        W31887  13.699  15.107  12.040 -0.1939  0.0700 -0.4390
15414W        W31888   1.692  17.629  15.329  0.1560 -0.0725 -0.0732
15415W        W31889  17.577  14.104  14.603 -0.1247  0.3068  0.2293
15416W        W31890  14.467   6.767   2.975  0.2789  0.4551 -0.1663
15417W        W31891  17.000  15.164   2.530 -0.0296 -0.1948 -0.0782
15418W        W31892   3.379  15.725   4.841  0.1181 -0.2110 -0.1073
15419W        W31893  10.540   9.285  14.201  0.0237  0.0635 -0.2586
15420W        W31894   5.681   2.153  11.847  0.1687  0.0313 -0.1289
15421W        W31895   0.565  13.205  13.028  0.0637  0.0478  0.0078
15422W        W31896  17.551  14.880   4.636  0.3926  0.1435 -0.0174
15423W        W31897  14.222  11.438  13.662  0.0786  0.1060 -0.1572
15424W        W31898  16.814  17.632  15.640  0.0917 -0.0950 -0.1291
15425W        W31899   4.181   5.796   2.832  0.0302 -0.3489 -0.3603
15426W        W31900   1.785   6.945   0.171  0.4410 -0.0920  0.0874
15427W        W31901   1.095   0.003  16.168 -0.0394  0.0520 -0.1841
15428W        W31902   8.781  14.097   3.586 -0.1216 -0.1537  0.0353
15429W        W31903  12.248  17.892  15.669 -0.0399  0.2194  0.1678
15430W        W31904  12.588   1.616   5.651  0.1478 -0.0685  0.0596
15431W        W31905  13.511  12.833   0.702 -0.1628  0.0078 -0.2054
15432W        W31906  14.455   2.177   1.984 -0.0317  0.3456 -0.0864
15433W        W31907  16.554   3.093   3.673 -0.0051 -0.1823  0.0652
15434W        W31908  11.509  10.084   2.130  0.0737 -0.4192 -0.0275
15435W        W31909   3.317  15.088   0.587 -0.0512  0.0058 -0.0125
15436W        W31910   2.856  15.909   1.550  0.0191 -0.4309 -0.0219
15437W        W31911   4.568   5.796   2.513  0.1415 -0.2150  0.3057
15438W        W31912  16.917   2.792   3.005  0.0118  0.0286  0.3530
15439W        W31913  13.698   4.586  16.168  0.2407 -0.0367  0.2159
15440W        W31914   8.223  12.580   0.200 -0.2268 -0.1797 -0.0259
15441W        W31915  14.423  10.205  14.587  0.0114 -0.0580  0.2043
15442W        W31916   2.637  17.722  14.912  0.0292 -0.0682 -0.0884
15443W        W31917  17.412   6.351   3.032  0.0953 -0.0550 -0.0372
15444W        W31918   6.052  11.878   1.469  0.0549 -0.0734 -0.1345
15445W        W31919   9.274   4.884   1.405 -0.0637  0.0867 -0.0957
15446W        W31920   2.031  17.776   2.556 -0.4147  0.3033  0.2010
15447W        W31921  13.993   1.247  14.750  0.0803  0.0752  0.0282
15448W        W31922  17.510   4.654  16.305  0.0722  0.6035 -0.0582
15449W        W31923   7.836   8.931   5.297 -0.0113 -0.1313  0.0822
15450W        W31924   5.689   1.743  10.836  0.2252 -0.0884 -0.3248
15451W        W31925  14.240   0.063  12.946  0.0324  0.3091  0.2895
15452W        W31926   6.954   8.266  15.434  0.1461  0.0726 -0.0232
15453W        W31927   4.079  16.326   5.008 -0.0261 -0.0570  0.0810
15454W        W31928  18.055  18.045   0.500  0.0392 -0.1489  0.0083
15455W        W31929  16.255  15.577  16.179 -0.1194 -0.1551  0.0540
15456W        W31930   6.708   6.674   4.567  0.0655  0.4229  0.2437
15457W        W31931   5.726  10.209   0.310  0.2071 -0.1513  0.3487
15458W        W31932   8.346  14.369   3.981  0.3177 -0.0155  0.0096
15459W        W31933  11.106  13.450  15.063  0.3791  0.2539  0.0219
15460W        W31934  16.913   4.550  12.861  0.0285 -0.1415  0.2183
15461W        W31935  13.059  10.477  11.577  0.2852  0.5280  0.1487
15462W        W31936   9.560   3.470  15.133 -0.1130 -0.2052 -0.0868
15463W        W31937   9.507  11.234   0.428 -0.0315  0.0493 -0.0641
15464W        W31938  10.593  12.454  13.949  0.0106 -0.0480  0.1804
15465W        W31939   5.376  17.835  11.743 -0.1277 -0.0615  0.0681
15466W        W31940   2.799  18.218   2.762  0.1660 -0.0389  0.1157
15467W        W31941  11.761   7.098  15.810 -0.1011 -0.3142 -0.0031
15468W        W31942   4.090  13.706   4.419  0.0934 -0.1140 -0.0755
15469W        W31943   9.561  15.204   5.007  0.0361 -0.3789  0.0663
15470W        W31944   9.114  12.865  16.130  0.1087  0.1540 -0.2607
15471W        W31945  18.255   3.834  14.551  0.1425  0.0703 -0.1145
15472W        W31946   3.628   2.394  10.539  0.1253  0.3116  0.0709
15473W        W31947   5.697  16.819  10.822 -0.0435 -0.0255 -0.1647
15474W        W31948   4.224   3.541   3.421  0.4335 -0.0017 -0.0196
15475W        W31949   4.141  13.248   4.298  0.0382 -0.0364 -0.1461
15476W        W31950   4.858   2.692  14.957 -0.0634 -0.1759  0.0419
15477W        W31951   1.064   4.027  11.592 -0.0230 -0.0661  0.2362
15478W        W31952   7.479  16.831  14.776 -0.1094  0.2443  0.2826
15479W        W31953   6.305  14.615   1.646 -0.0073  0.2597  0.1711
15480W        W31954   1.774  16.333   3.168  0.0178  0.0342  0.1099
15481W        W31955   1.835   3.397  11.531  0.1743  0.0883  0.0494
15482W        W31956  16.754   5.189   3.902  0.1269 -0.0378  0.0235
15483W        W31957  17.111   1.768  11.513  0.0943  0.3717  0.2414
15484W        W31958  13.415  12.438  11.432 -0.0362 -0.1881 -0.2792
15485W        W31959   0.293  13.255  15.949  0.2031 -0.1747  0.0096
15486W        W31960   1.898  17.566  11.882  0.3224  0.1290 -0.2002
15487W        W31961  14.351  10.014  11.404 -0.0744  0.2367 -0.1424
15488W        W31962   8.308   2.562   2.900 -0.0658  0.3076  0.2048
15489W        W31963   3.757  17.998   4.577 -0.0521 -0.1145 -0.2194
15490W        W31964   4.851  10.974   0.405 -0.0848  0.1882  0.1800
15491W        W31965  11.132  16.426   2.643  0.0183  0.0023  0.3282
15492W        W31966  17.069   3.990   0.089  0.0090  0.4612  0.1279
15493W        W31967   7.769  10.448   6.735 -0.1300 -0.0520 -0.3087
15494W        W31968  14.182   9.773   5.000  0.2832  0.2932 -0.0534
15495W        W31969  15.324   1.800   1.181  0.0441 -0.2193  0.1742
15496W        W31970   5.897  11.960   0.245 -0.1266 -0.2879  0.1019
15497W        W31971  10.312  10.376   4.396  0.0564 -0.3837  0.4274
15498W        W31972   6.012  15.620  10.047 -0.0507  0.1540  0.0850
15499W        W31973  13.969  13.050  12.736 -0.0644  0.2197  0.2752
15500W        W31974  13.315   2.550  12.504 -0.0470  0.3015 -0.1108
15501W        W31975   3.320   7.964  15.757 -0.0013  0.1616 -0.0135
15502W        W31976  14.428   9.215  11.350 -0.0916  0.1297 -0.1360
15503W        W31977  10.443  13.279   3.305 -0.0544 -0.3758  0.3447
15504W        W31978   4.960  14.743   1.629 -0.0450  0.0801 -0.4735
15505W        W31979   3.856  16.749  13.522 -0.2566  0.0627 -0.0430
15506W        W31980   1.029  16.157  15.630 -0.1552  0.0852  0.2521
15507W        W31981   0.292  11.821  13.389 -0.0859 -0.0185  0.0113
15508W        W31982   7.095   9.198   4.243  0.0739 -0.2685  0.1546
15509W        W31983   0.052   4.564  13.036  0.1018 -0.2455  0.0912
15510W        W31984   7.601   2.037   0.104  0.2400 -0.0834  0.3198
15511W        W31985   4.672   1.602  15.536  0.1233 -0.1117  0.0945
15512W        W31986  15.193  16.768  11.092  0.1210  0.1209  0.0496
15513W        W31987   5.094   3.632  12.917 -0.0483  0.2605  0.0076
15514W        W31988  18.077   3.378   1.093  0.2242  0.1129  0.0290
15515W        W31989  16.832  11.623   1.357 -0.2051 -0.0561  0.0934
15516W        W31990   1.775   4.765   4.900  0.4530  0.1823  0.3752
15517W        W31991  14.271   4.707  15.167 -0.2256  0.0351  0.3444
15518W        W31992   2.709  14.508   4.273 -0.0294 -0.1033 -0.0966
15519W        W31993   0.351  12.649  14.002 -0.2254  0.1491  0.0803
15520W        W31994   7.018  14.509   4.749 -0.3372  0.1869  0.0934
15521W        W31995   5.975   7.053  14.190 -0.1581  0.2471 -0.2884
15522W        W31996   5.651   8.408   4.578 -0.2175 -0.4313  0.2831
15523W        W31997   8.423  14.464   5.255  0.2749  0.1476  0.1504
15524W        W31998   5.235   5.994   5.049  0.0581  0.0562  0.0698
15525W        W31999  15.991  11.959   4.433  0.1599 -0.0399 -0.1578
15526W        W32000  15.858   4.257  15.789  0.0054 -0.4321 -0.0726
15527W        W32001  12.853   6.232   3.152  0.2147 -0.0132 -0.2769
15528W        W32002  11.458   0.413  11.214  0.0749 -0.0138 -0.0035
15529W        W32003  11.550  17.461   2.194 -0.2879 -0.0280  0.0625
15530W        W32004   4.377   3.460   0.619 -0.3421 -0.1393  0.3434
15531W        W32005   1.693   6.837   4.815 -0.1166  0.0316 -0.1216
15532W        W32006  17.073  11.844   0.041 -0.1052 -0.2461  0.0275
15533W        W32007  11.351  16.328   6.280 -0.1094 -0.0392  0.1292
15534W        W32008   6.189  17.651  12.133  0.0667  0.0652  0.2057
15535W        W32009  14.075   5.248  16.217  0.0468 -0.1159 -0.2908
15536W        W32010   7.694   6.906  14.178  0.1638 -0.2368 -0.3225
15537W        W32011   7.993  17.833   3.952  0.2277 -0.1601  0.1560
15538W        W32012   2.079  10.098   3.991 -0.1981  0.0457 -0.2158
15539W        W32013   0.755   3.609  14.992 -0.2621  0.0269  0.0004
15540W        W32014   6.349  10.961  13.266 -0.3096 -0.0446 -0.1704
15541W        W32015  14.425   6.869   1.069  0.1362  0.0747  0.0545
15542W        W32016   3.913  11.532   0.312 -0.0350 -0.4316 -0.2116
15543W        W32017   1.222  17.447   4.961  0.0841 -0.0402 -0.1532
15544W        W32018   0.335  18.197  14.449  0.2681 -0.0616  0.1541
15545W        W32019   6.971   5.315   5.532 -0.0143  0.2856 -0.2706
15546W        W32020   4.374   8.149  13.035 -0.2133 -0.0067 -0.1783
15547W        W32021  12.520  14.241   2.744 -0.1145  0.1494  0.0484
15548W        W32022  15.206  10.252  11.872 -0.0831 -0.3032 -0.1323
15549W        W32023   9.426   3.687   2.749  0.1051 -0.1532  0.0843
15550W        W32024   7.631   1.886  14.333 -0.3734 -0.1535 -0.1071
15551W        W32025  13.500   4.033  12.656  0.2293 -0.3694 -0.0103
15552W        W32026   6.481  17.952  13.538 -0.2285 -0.1656 -0.6937
15553W        W32027  14.211   1.349   1.657 -0.2920  0.1795 -0.0694
15554W        W32028   6.071  10.289  14.462 -0.4088  0.2477  0.0382
15555W        W32029   7.671   2.377  14.216 -0.3827  0.0821 -0.2959
15556W        W32030   8.430   0.402  12.445  0.1964  0.2523 -0.2329
15557W        W32031   8.735   3.033  15.430 -0.1176 -0.0809  0.1499
15558W        W32032   9.222  16.488  12.777  0.0605 -0.0181  0.2285
15559W        W32033  17.505   3.123   0.392 -0.2247 -0.2248  0.0954
15560W        W32034   1.467  15.600  11.702 -0.0241  0.0279 -0.0042
15561W        W32035   5.146  13.444   2.711  0.1206  0.0119  0.1787
15562W        W32036  14.359  13.040  11.989 -0.0471  0.1076 -0.0978
15563W        W32037   0.564  18.166  15.444 -0.0862  0.3093  0.0705
15564W        W32038  13.962   3.652  13.404 -0.2851  0.1693 -0.0914
15565W        W32039   1.948   7.499   2.625 -0.0418 -0.1697  0.0719
15566W        W32040   7.126  14.229   3.064  0.3035 -0.0863  0.0063
15567W        W32041  11.785   3.013   1.457 -0.0495  0.2309  0.0296
15568W        W32042   9.006  11.759   2.420  0.2629  0.1521  0.3187
15569W        W32043  15.658  18.053   1.262  0.0805 -0.1359 -0.1759
15570W        W32044   2.256  17.851   0.522  0.1627  0.0101 -0.0279
15571W        W32045   1.833  12.986  15.709  0.2953 -0.1212 -0.2477
15572W        W32046   6.757  16.085  14.471 -0.0426  0.0050  0.0198
15573W        W32047  13.695   2.200  13.263 -0.1974  0.0789  0.2706
15574W        W32048   0.519   0.692  12.725  0.2224  0.1013  0.0894
15575W        W32049  17.175   4.087  12.664  0.2123  0.1498 -0.0198
15576W        W32050   0.425  16.538   5.415 -0.2046 -0.3747 -0.3034
15577W        W32051   0.152  12.887   5.928  0.3866 -0.1514  0.2592
15578W        W32052  15.843   5.555   2.404 -0.0475 -0.5418  0.1566
15579W        W32053  16.425  14.783  12.337 -0.0575 -0.2002  0.0158
15580W        W32054   9.073  17.323  11.516 -0.1745 -0.3229  0.1510
15581W        W32055   3.712   5.071   4.556  0.3028 -0.0492  0.1540
15582W        W32056  10.813   1.035   1.634  0.2269 -0.1520  0.2407
15583W        W32057   5.336   5.252   3.305  0.2509  0.2098 -0.1283
15584W        W32058  13.096   5.603  12.938 -0.2123  0.0634 -0.0540
15585W        W32059   6.425  16.198  15.349  0.0543 -0.0040  0.3554
15586W        W32060   3.909   8.181   3.180  0.2137  0.2768 -0.1203
15587W        W32061  12.545   0.081  15.773  0.0615  0.1371  0.2947
15588W        W32062   2.318   7.621   1.210  0.0326 -0.1908 -0.0912
15589W        W32063  13.392   7.462  15.068  0.1911 -0.0797  0.0593
15590W        W32064  10.082   6.322  13.281 -0.2250  0.0286 -0.1467
15591W        W32065  14.941   2.839   0.566  0.0093 -0.1519 -0.4721
15592W        W32066   2.561  15.111   2.152 -0.0003  0.0918 -0.1239
15593W        W32067   1.134  11.609  13.216 -0.0844 -0.0361  0.1318
15594W        W32068   7.059  17.848  15.491 -0.0403 -0.0411  0.1763
15595W        W32069   2.666  13.993   3.925 -0.2200 -0.2432  0.0450
15596W        W32070   1.737   7.651  11.395  0.2087 -0.1756  0.1184
15597W        W32071  11.605   0.261  14.956  0.0163 -0.0409  0.1907
15598W        W32072  11.401   8.614  14.763  0.0070 -0.1289  0.0587
15599W        W32073  17.038  13.316   2.616  0.2145  0.0960  0.4655
15600W        W32074  16.876   7.018   2.769  0.0762  0.2161 -0.1285
15601W        W32075   2.209   3.947   4.445  0.0571 -0.1226  0.1554
15602W        W32076  10.291   9.356  15.942  0.0142 -0.1220 -0.0693
15603W        W32077  16.974   3.630   0.998 -0.0085 -0.1901  0.3114
15604W        W32078  10.039   8.610  12.991  0.0571  0.0056  0.2982
15605W        W32079  14.185  14.712  14.908 -0.2625 -0.1744 -0.1646
15606W        W32080  11.309  10.997  13.466  0.1633 -0.0430  0.0072
15607W        W32081   4.289   0.644   0.424 -0.1670  0.1534 -0.1031
15608W        W32082  13.414  18.183   5.266  0.0959 -0.1319  0.0965
15609W        W32083  13.990   8.325  14.095 -0.3040 -0.0075 -0.1705
15610W        W32084  14.713   8.709  13.045  0.1256  0.0737 -0.2211
15611W        W32085   3.620  14.713   3.913 -0.0222  0.0896 -0.0421
15612W        W32086   2.822  15.193   5.800  0.1272  0.3317  0.0509
15613W        W32087   7.731  15.253   4.757  0.0641 -0.0996 -0.2505
15614W        W32088   1.888  17.436  15.830 -0.1191 -0.2515  0.1571
15615W        W32089  16.424   9.271  13.964  0.1376 -0.1372 -0.3254
15616W        W32090  18.249   9.231   4.947  0.3552 -0.4597 -0.1459
15617W        W32091   0.435   3.415  12.398 -0.2753 -0.2245  0.1451
15618W        W32092  14.078  14.209  11.082  0.2095  0.0072 -0.1852
15619W        W32093  13.043   4.865   4.231 -0.0852  0.2307 -0.0292
15620W        W32094  15.374  15.096  13.251  0.0557  0.0502  0.0002
15621W        W32095  17.578   2.403   3.582  0.0745 -0.0388  0.1661
15622W        W32096   1.316   8.156  15.110  0.1304 -0.2665  0.2253
15623W        W32097  11.386   2.615  15.190  0.1211 -0.0019  0.1909
15624W        W32098   0.831   2.569  14.057 -0.0004  0.1206  0.2316
15625W        W32099  11.469  13.417   3.145  0.1013  0.2924  0.1695
15626W        W32100   8.932   6.276  14.989  0.0861  0.0152 -0.1661
15627W        W32101   2.563   2.015  11.085  0.1254 -0.1817 -0.0677
15628W        W32102  14.335  17.762   0.610  0.1317 -0.2467 -0.0330
15629W        W32103   6.078   8.699   1.025  0.0427 -0.0007 -0.1453
15630W        W32104   6.731   3.329   1.848 -0.2199  0.1966 -0.1114
15631W        W32105  10.141   7.878  14.455  0.0978  0.3962 -0.0014
15632W        W32106  13.715  10.993  12.120 -0.0823 -0.2131 -0.2662
15633W        W32107  13.697   6.551   0.853  0.2132 -0.4337  0.1348
15634W        W32108   0.261  17.325  16.136 -0.2998 -0.1136  0.0195
15635W        W32109  15.563  15.905   2.457 -0.2974  0.2150  0.3118
15636W        W32110  14.144  10.214  15.432 -0.0257  0.0604 -0.0915
15637W        W32111   9.670  15.956   4.164 -0.0110 -0.1465  0.2338
15638W        W32112  12.014   0.676  12.224 -0.0583 -0.0101 -0.1489
15639W        W32113   2.294  13.427   2.453 -0.1303 -0.0403 -0.0519
15640W        W32114   0.457   3.089  12.018  0.0959 -0.1133 -0.0436
15641W        W32115   2.619   1.672  15.638  0.0145 -0.0903  0.1443
15642W        W32116  13.169   4.504   3.846  0.0963 -0.1213  0.1231
15643W        W32117   0.288   0.888  13.773  0.2694  0.1571 -0.0819
15644W        W32118   2.867   1.299   3.514  0.0005 -0.0860  0.0621
15645W        W32119  16.592   0.048  16.080 -0.1173 -0.0580 -0.0961
15646W        W32120   6.815   7.432  12.651  0.1651 -0.2405  0.3246
15647W        W32121   0.659   1.180  15.465 -0.3002  0.0793 -0.4476
15648W        W32122  16.183  11.031  12.712 -0.0292 -0.0199 -0.3267
15649W        W32123  15.970   8.612  15.171 -0.3531 -0.3823  0.1912
15650W        W32124   2.160  11.275   1.268 -0.1620 -0.0588 -0.2830
15651W        W32125  15.607   4.108   4.005 -0.1660  0.1740  0.1628
15652W        W32126   4.260   0.485  13.379 -0.0243 -0.1052  0.1967
15653W        W32127   7.896   2.388  13.016 -0.2148 -0.0406 -0.3639
15654W        W32128  11.955  14.296  14.284  0.1573  0.0963  0.3008
15655W        W32129  17.198  14.896  14.532 -0.3859 -0.2616  0.2404
15656W        W32130   2.279  15.317   6.059  0.3626  0.1629 -0.0663
15657W        W32131  16.315  12.504  15.490  0.0156 -0.2583  0.3015
15658W        W32132  11.423  12.649   4.978  0.0130 -0.1016 -0.4753
15659W        W32133  14.900   9.206   1.996  0.0326  0.0898  0.2049
15660W        W32134   6.058  12.498  14.949 -0.4539 -0.0064  0.0738
15661W        W32135  11.745   2.741   2.300  0.3046  0.1602  0.3020
15662W        W32136  12.308  16.862  12.582  0.1025  0.1776 -0.2409
15663W        W32137   9.063  15.150  13.790  0.1312  0.0654  0.0228
15664W        W32138  16.517   5.772   0.323 -0.2044 -0.1510 -0.1989
15665W        W32139   5.482  11.437  12.472  0.1790  0.1587  0.0485
15666W        W32140  15.789   1.533  12.656 -0.1930 -0.2567 -0.0002
15667W        W32141  10.270  12.227  11.444  0.2720  0.1529  0.0422
15668W        W32142   9.449   3.193  14.529 -0.2474 -0.2295  0.0995
15669W        W32143  16.076   1.463  15.063  0.4345  0.1928  0.0385
15670W        W32144   6.934   1.135   3.635 -0.0517  0.0735 -0.0511
15671W        W32145  14.953  15.397  11.404 -0.1236 -0.0471 -0.0665
15672W        W32146   4.247   9.072   2.873  0.1130  0.1945  0.1028
15673W        W32147  15.016   7.587   0.686 -0.0868  0.0047  0.0403
15674W        W32148  13.873   2.168   3.294  0.1602  0.2803 -0.1801
15675W        W32149   6.619  16.829  13.910 -0.0482 -0.0140 -0.0443
15676W        W32150  13.285  17.552  13.910  0.0632  0.2661 -0.0564
15677W        W32151  15.389   6.423   5.133  0.0177  0.0557  0.1633
15678W        W32152   7.284   4.327   5.791 -0.0704 -0.1850  0.3998
15679W        W32153   1.888  16.250   3.693  0.0709 -0.2506 -0.1605
15680W        W32154   7.011   8.815   4.617 -0.0483 -0.3682  0.2120
15681W        W32155  17.265   7.863   0.765  0.1857  0.1505  0.1939
15682W        W32156   6.074   0.616  16.021 -0.0313 -0.2048 -0.1374
15683W        W32157  13.500   4.476   4.756 -0.1889  0.0383  0.1768
15684W        W32158  11.177  17.056  10.960 -0.1507 -0.0030 -0.0830
15685W        W32159   5.434   3.834  13.308  0.1255  0.2207  0.0988
15686W        W32160   4.776  10.286   0.505 -0.3726 -0.0092  0.2326
15687W        W32161  17.264  16.789   0.925  0.1494 -0.0684 -0.4089
15688W        W32162  10.398  16.136   4.684 -0.1296  0.1919 -0.1164
15689W        W32163  12.634   9.000   2.116  0.3692 -0.1772 -0.0033
15690W        W32164  17.705   5.803  13.326  0.4205  0.0040 -0.0571
15691W        W32165   4.401  14.136   4.570 -0.1643  0.0162 -0.1046
15692W        W32166   0.202   3.703  14.974  0.0011 -0.2758  0.1772
15693W        W32167   7.879  17.625  11.936  0.1405  0.3130 -0.4367
15694W        W32168  11.364   3.440  13.595  0.0505  0.1563 -0.0427
15695W        W32169   5.339   7.929  14.252 -0.0485  0.1958  0.0787
15696W        W32170   5.416   9.037  15.037 -0.1135 -0.0037 -0.0219
15697W        W32171   7.379   5.133  14.764 -0.0529  0.1556 -0.1230
15698W        W32172  16.952  13.730  14.078 -0.2371 -0.0945  0.1949
15699W        W32173   8.666   0.879  12.381  0.1052 -0.0646 -0.1796
15700W        W32174  17.887   2.525  15.328 -0.0498 -0.0700  0.2007
15701W        W32175  13.229  11.010  10.796 -0.2292 -0.1626  0.4813
15702W        W32176   2.344  13.612   1.990 -0.0599  0.0378 -0.1096
15703W        W32177  15.599  11.477   3.602 -0.3139  0.1621  0.2924
15704W        W32178   5.991   6.119  14.425 -0.2804 -0.2521 -0.1236
15705W        W32179   3.874   1.269   3.454 -0.1547 -0.4789  0.0730
15706W        W32180   8.241  13.521  14.143 -0.2448  0.0248 -0.0058
15707W        W32181  15.912   5.034  15.629  0.3464  0.2125 -0.1188
15708W        W32182   9.631  10.053  14.750  0.0561 -0.0457 -0.1132
15709W        W32183  18.235   1.804  14.824  0.1338  0.1870 -0.2515
15710W        W32184  16.876  11.455  15.383  0.0275  0.0859 -0.1854
15711W        W32185   1.424   3.536  13.021  0.0282 -0.1231 -0.1031
15712W        W32186   2.092   7.751  12.090 -0.0891  0.1852  0.1926
15713W        W32187   2.643  11.096   1.288  0.1640  0.1589 -0.3852
15714W        W32188  17.057   0.750  13.064  0.1910 -0.0900  0.0774
15715W        W32189  15.641   7.094  11.961 -0.3022  0.2138  0.1039
15716W        W32190  10.076  16.354  11.986 -0.1088  0.0141 -0.1803
15717W        W32191   5.457  14.815   3.488 -0.1918 -0.0279  0.1538
15718W        W32192   2.095   3.782  13.222  0.1015  0.1599  0.1835
15719W        W32193  11.026   3.381   3.686  0.0439  0.0251 -0.0301
15720W        W32194   8.566  14.560  12.488  0.1861  0.0005  0.0063
15721W        W32195  12.337  16.568   1.942 -0.0724 -0.0336 -0.0691
15722W        W32196  15.151   3.677  12.915 -0.1914  0.0395 -0.0364
15723W        W32197   5.912   5.979   0.889  0.0782  0.1130  0.1052
15724W        W32198   4.962   6.409   4.376 -0.2741 -0.1692 -0.1122
15725W        W32199   0.823  15.672  15.590  0.1583 -0.0432 -0.1962
15726W        W32200   8.847  14.772  12.853  0.2264 -0.1003  0.0681
15727W        W32201   7.328   1.325  12.111 -0.0081  0.1950  0.0583
15728W        W32202   3.130  12.101   5.285 -0.1919  0.0078 -0.0390
15729W        W32203   4.479  17.007  15.025 -0.1044 -0.0809  0.2176
15730W        W32204   6.659  13.174  15.695 -0.0403  0.3132 -0.0830
15731W        W32205  13.390   3.155   4.717  0.2689 -0.0426 -0.0570
15732W        W32206  13.047   1.872   1.377  0.1191  0.1325  0.2928
15733W        W32207  10.430  11.962  12.773  0.1742 -0.0649 -0.0247
15734W        W32208   0.363  12.764   0.320  0.0297 -0.0332 -0.1385
15735W        W32209   8.502  13.030  12.064 -0.0477 -0.0992 -0.0008
15736W        W32210   5.938   5.238   3.356  0.3424 -0.2570  0.1143
15737W        W32211  15.416   5.736   5.276  0.2075  0.1897 -0.0303
15738W        W32212  17.569  16.282   3.921 -0.1001 -0.1876 -0.4007
15739W        W32213   6.003  18.304   4.706 -0.0511 -0.3269  0.4863
15740W        W32214   8.170  13.356   3.197 -0.0358  0.1885 -0.1389
15741W        W32215   3.951   6.924  11.805 -0.0484 -0.0289 -0.0112
15742W        W32216   9.321   3.692  13.687  0.0541 -0.0302 -0.3136
15743W        W32217   0.945  15.825   2.125 -0.1242 -0.0038  0.2170
15744W        W32218  16.715   9.186   4.240  0.0203  0.3015 -0.1870
15745W        W32219  16.384   2.439  14.051 -0.0381 -0.0864 -0.0100
15746W        W32220  16.744   7.998   4.775 -0.2399 -0.1727 -0.1273
15747W        W32221  15.018   7.403  12.564 -0.2690 -0.1618 -0.0030
15748W        W32222   4.920   9.968  12.314 -0.0834  0.0085  0.1446
15749W        W32223   6.335  15.670   3.543 -0.1257  0.2229  0.3031
15750W        W32224   1.515   9.530   5.243  0.1022 -0.1050  0.0406
15751W        W32225  17.282   7.456  11.369  0.1266 -0.0776  0.1276
15752W        W32226  13.514  15.571   4.318 -0.0283  0.0550  0.0178
15753W        W32227   2.184   0.179  15.018 -0.0105  0.0980 -0.0689
15754W        W32228  10.387   0.316  13.952  0.4636 -0.1350  0.2471
15755W        W32229  13.557   0.329   1.633 -0.4302 -0.1034  0.0362
15756W        W32230   8.520  11.023  14.337 -0.2324  0.2689  0.0050
15757W        W32231  11.765  13.097  12.729 -0.0722 -0.3054 -0.2998
15758W        W32232   3.874  18.044  15.296 -0.0893  0.0133 -0.1227
15759W        W32233   5.007   8.871  12.229  0.1403 -0.0167  0.0456
15760W        W32234   8.501  11.500  12.274  0.0454  0.0617  0.2358
15761W        W32235   5.309  12.678  13.397 -0.0063  0.1570 -0.0713
15762W        W32236   4.660   9.253  12.400 -0.0891  0.3557 -0.1370
15763W        W32237   7.685   8.427   3.840  0.2060  0.1035  0.0807
15764W        W32238   9.544   7.441  13.406 -0.0700  0.0341  0.0299
15765W        W32239   0.609   5.787   1.385 -0.2739 -0.0238 -0.0247
15766W        W32240   0.549  13.230   3.579  0.2375  0.2297 -0.1732
15767W        W32241   8.588  11.467   2.389 -0.0076 -0.0283  0.2141
15768W        W32242   2.683  17.297  12.433 -0.0786  0.0181  0.1561
15769W        W32243  13.553   5.043   0.620 -0.0909 -0.1807 -0.4628
15770W        W32244   9.707   2.945  12.383  0.1253  0.0330 -0.3541
15771W        W32245   2.595   5.255   0.662 -0.2285 -0.3993 -0.2074
15772W        W32246   3.733  10.009  11.865  0.1458 -0.0113 -0.1994
15773W        W32247   8.419  11.476   1.903 -0.0911 -0.0234  0.1601
15774W        W32248  16.683   5.315   1.220  0.1301  0.0065  0.0517
15775W        W32249  15.201  12.433  12.152  0.2024 -0.0258 -0.0261
15776W        W32250   0.956   2.156  10.640 -0.1618 -0.1899  0.1916
15777W        W32251  14.017   9.755  14.621  0.1430  0.0585  0.1472
15778W        W32252   4.550   1.078   5.175 -0.0461  0.0096  0.1290
15779W        W32253   4.058  12.395   4.288  0.3069  0.1160  0.0846
15780W        W32254  10.559  15.820   2.826  0.1955 -0.0323  0.2535
15781W        W32255  15.271   9.402   2.272 -0.1563 -0.2734  0.3992
15782W        W32256   2.857  12.031  16.100 -0.2341  0.4178 -0.2750
15783W        W32257   5.125  15.968   4.962  0.2164  0.1039 -0.2865
15784W        W32258   7.703  18.116  15.742 -0.1624  0.1006  0.0006
15785W        W32259   3.595   8.578   5.422 -0.2206 -0.3616 -0.2387
15786W        W32260   4.285  15.664  12.595  0.2200  0.0755  0.1047
15787W        W32261   5.610   2.214   2.934  0.0651 -0.2585  0.0221
15788W        W32262  14.504   8.000  13.428  0.3466  0.0891 -0.1911
15789W        W32263  18.267   4.269   4.159  0.0970 -0.3416  0.2005
15790W        W32264   1.410   8.469   0.232 -0.3649  0.0165 -0.2991
15791W        W32265  18.161   8.215   1.794 -0.0308 -0.2192  0.0160
15792W        W32266   3.460   4.835   5.597  0.1394  0.1224 -0.2092
15793W        W32267  18.132  15.181  12.089  0.1259 -0.0954  0.0120
15794W        W32268  12.308  18.303   0.264 -0.0119  0.0041 -0.0659
15795W        W32269   8.678  16.514  12.694 -0.0131  0.1857 -0.0600
15796W        W32270  11.973  16.839   0.123  0.0195 -0.0805  0.0045
15797W        W32271  16.343  10.986   1.364  0.1751  0.1101 -0.1203
15798W        W32272   1.886   3.070  10.245  0.1044 -0.1526  0.0330
15799W        W32273  16.084  14.032  13.903 -0.2354  0.1231  0.3834
15800W        W32274   3.609  11.817   5.260 -0.3037 -0.0438 -0.0657
15801W        W32275  13.985   6.552  13.736  0.0295 -0.0009 -0.0213
15802W        W32276   1.715  15.918  14.369 -0.0652  0.1147  0.0952
15803W        W32277   8.585  16.612  12.123 -0.0896 -0.0349  0.1082
15804W        W32278   6.968   1.477  13.879  0.1598 -0.2546 -0.2106
15805W        W32279   1.188   7.156   3.474 -0.5527 -0.0092 -0.1328
15806W        W32280  17.370   2.113  10.283 -0.0311  0.0343 -0.1766
15807W        W32281  12.362   6.275   2.413 -0.2326 -0.4359 -0.4141
15808W        W32282  11.694   2.748   4.009 -0.0610 -0.1395  0.0904
15809W        W32283  15.426   1.042  11.009  0.1923  0.1170  0.2042
15810W        W32284   3.372   8.977   1.648  0.0485  0.2534 -0.0413
15811W        W32285   1.755   2.744   0.946  0.1242 -0.5482 -0.2868
15812W        W32286  16.547   2.260   1.080 -0.0202 -0.0509 -0.1520
15813W        W32287   2.921  17.274   2.502 -0.2732 -0.0852 -0.1829
15814W        W32288   8.064  10.899   2.913  0.0570  0.1543  0.3901
15815W        W32289   5.457  16.083  14.480 -0.0311 -0.4202  0.3358
15816W        W32290  18.293   4.715   4.453  0.2013 -0.1209 -0.1187
15817W        W32291  10.369   3.321   2.990 -0.1511  0.1702 -0.4240
15818W        W32292  15.173  10.387  15.684 -0.1530 -0.0018  0.2220
15819W        W32293   3.377  16.957  13.941  0.0437 -0.3526  0.0793
15820W        W32294   5.387  11.287  12.935 -0.2815  0.1554  0.1674
15821W        W32295   2.220   8.065   5.378 -0.0949  0.1359  0.1097
15822W        W32296  17.616   1.865  14.254 -0.3111 -0.0778  0.0528
15823W        W32297  17.267  18.082   4.576  0.0236 -0.1920  0.2867
15824W        W32298   2.659  18.305  14.082 -0.6417  0.0016  0.0098
15825W        W32299  15.335   3.428   3.686  0.2307 -0.1062  0.0998
15826W        W32300   8.147   9.735   3.552  0.1274  0.0905  0.1029
15827W        W32301   5.497  15.092  13.203  0.0960  0.1016  0.1595
15828W        W32302   8.947  16.534   1.704  0.0612 -0.1061  0.0278
15829W        W32303  18.179   2.877   0.799 -0.0780  0.1622 -0.0679
15830W        W32304  15.044   9.879   1.278 -0.0434  0.0147  0.2365
15831W        W32305  13.713  16.885   4.042  0.1433  0.0129 -0.3110
15832W        W32306   5.592  15.027  13.952  0.3817  0.1281  0.3059
15833W        W32307   3.062  18.167   3.794  0.1951  0.0743  0.0846
15834W        W32308   5.341  17.737   0.530  0.1130 -0.0357  0.3279
15835W        W32309   9.465   0.924   3.698  0.0725  0.1214 -0.1386
15836W        W32310  16.169   6.059  14.925  0.0388  0.2910 -0.1322
15837W        W32311   6.027  17.444   3.622  0.3509  0.1265  0.1647
15838W        W32312   1.387   3.829   5.227 -0.0023  0.0566 -0.1250
15839W        W32313  16.203  13.833   4.027  0.0116  0.1388  0.1373
15840W        W32314   8.518   4.192  12.076  0.0106 -0.1392 -0.2103
15841W        W32315  16.908  11.747  15.775  0.1750  0.0403 -0.2276
15842W        W32316   7.488   7.977   1.157  0.1529 -0.0061 -0.1602
15843W        W32317   4.771  16.944   1.296  0.1667  0.0064  0.0303
15844W        W32318  11.062   1.820   1.966  0.1097  0.0957 -0.1203
15845W        W32319   5.539  13.642   0.772 -0.0692  0.3488 -0.2641
15846W        W32320  10.446   6.972  11.661 -0.2545 -0.0792  0.0410
15847W        W32321   3.725   5.435  12.250  0.0275  0.1239  0.0202
15848W        W32322   9.755  12.273  11.634 -0.0894 -0.1340 -0.1922
15849W        W32323  12.348   8.731   4.316  0.5259 -0.2305 -0.1085
15850W        W32324  13.931  15.949   2.610  0.0149  0.2530  0.0466
15851W        W32325   3.036   0.312   4.593  0.0012  0.0220  0.1418
15852W        W32326   3.905   1.445  12.004 -0.1846 -0.1354 -0.0618
15853W        W32327  16.369  14.222   1.591 -0.0401  0.0652 -0.2524
15854W        W32328   2.584   7.035   1.944  0.0954 -0.1520 -0.0222
15855W        W32329   4.833  10.375  15.268  0.0973 -0.2981 -0.2451
15856W        W32330   4.311  15.704  16.070  0.3192  0.0869  0.3512
15857W        W32331  16.523  15.124   1.847 -0.1138 -0.1911  0.1077
15858W        W32332  18.153   4.777  11.713  0.0049  0.3362  0.0254
15859W        W32333  17.815  13.473   1.981 -0.1116  0.0183  0.2430
15860W        W32334   9.033  17.378   4.994  0.0969  0.0536  0.1192
15861W        W32335  13.141   5.841   5.438 -0.1097  0.1349 -0.0260
15862W        W32336   3.523  14.710  14.435  0.4238  0.0482  0.1798
15863W        W32337   0.343  13.834  11.727  0.1085  0.0566 -0.0694
15864W        W32338   9.245   9.631   0.359 -0.1047  0.0215  0.2563
15865W        W32339   1.798  11.398   5.144  0.0117 -0.0815  0.3699
15866W        W32340   5.594   8.426   1.812  0.0025 -0.1115 -0.0209
15867W        W32341  11.518  12.857   4.513  0.1084 -0.1877 -0.1152
15868W        W32342  11.154  11.067   1.488 -0.3901  0.0295  0.0069
15869W        W32343  14.081  17.330   3.358 -0.1101  0.1723  0.2632
15870W        W32344   4.224  15.758  12.059  0.0100  0.0921  0.2963
15871W        W32345   5.120   0.006   5.253 -0.0023 -0.3429 -0.2374
15872W        W32346   6.858  15.438  15.296  0.0924  0.1085 -0.0675
15873W        W32347   1.655   9.920   5.819 -0.1083  0.0144 -0.1775
15874W        W32348   0.927  10.385   1.873  0.3229 -0.2163 -0.0525
15875W        W32349  12.230   7.055  14.789  0.0403 -0.0853 -0.2189
15876W        W32350  15.960   6.289  14.461 -0.0326 -0.1599 -0.1570
15877W        W32351   1.881  16.139   1.855  0.1216 -0.2811  0.1868
15878W        W32352  14.701  17.155  15.565  0.0659  0.0745  0.2582
15879W        W32353   8.575  12.624  13.857 -0.1133  0.0005  0.1895
15880W        W32354   3.089  16.980   0.313  0.1918  0.1821  0.2711
15881W        W32355  17.896   2.941   1.796 -0.1725 -0.4874 -0.3041
15882W        W32356  11.527   3.617   2.084 -0.2090 -0.2358  0.1170
15883W        W32357   1.261   1.103   3.779 -0.3357 -0.0324  0.1027
15884W        W32358  18.181  11.545   0.816 -0.0123 -0.1196  0.2479
15885W        W32359  11.987   7.911  15.817  0.0166 -0.0917 -0.3094
15886W        W32360   1.041  10.320   2.394 -0.4524 -0.0784  0.3653
15887W        W32361   7.374  14.749  14.382 -0.3063  0.0345 -0.0485
15888W        W32362  17.765  11.514  14.206  0.0458  0.1730 -0.0128
15889W        W32363   6.579   9.887   4.722 -0.0441  0.4344 -0.2499
15890W        W32364  10.225  11.036   1.747  0.1086  0.0649 -0.5867
15891W        W32365  16.828  15.123  13.639  0.1068  0.0133  0.0124
15892W        W32366  10.937   2.925   3.359 -0.1795 -0.0797  0.0590
15893W        W32367   7.879   3.393   4.047 -0.1667  0.1083  0.2870
15894W        W32368   0.852  15.901   1.579  0.1923 -0.1178  0.1343
15895W        W32369  15.619   3.927  16.043  0.3310 -0.0120 -0.1806
15896W        W32370   9.037  10.860  15.357  0.0419 -0.1277  0.0631
15897W        W32371   9.432   4.131  14.004 -0.2924 -0.1444 -0.0142
15898W        W32372  16.913  11.219  12.017  0.2135 -0.0696 -0.1134
15899W        W32373  15.987  13.599  11.453  0.4582 -0.1646 -0.0776
15900W        W32374  17.448   4.681  13.975  0.0600  0.0835 -0.0570
15901W        W32375   5.132  17.568   4.979 -0.0344  0.1111  0.1504
15902W        W32376  18.305   6.915  15.799  0.0845 -0.0505 -0.3112
15903W        W32377   4.691  13.608  12.793 -0.3362  0.0332  0.0540
15904W        W32378  10.453   1.214   0.012  0.0675  0.1500 -0.0548
15905W        W32379   2.750  13.788   0.220 -0.1894  0.1024  0.2012
15906W        W32380   0.642   9.043  12.249  0.0601  0.2627  0.0276
15907W        W32381  11.715  16.627  15.113 -0.1863 -0.0545  0.2108
15908W        W32382  11.944   5.074   2.975  0.0575 -0.0807  0.2378
15909W        W32383   7.420   3.052   1.425 -0.0269 -0.2185  0.1690
15910W        W32384  11.303   7.455   3.210  0.4116  0.2120 -0.0239
15911W        W32385   0.028  17.583   3.029  0.1219  0.1873 -0.1115
15912W        W32386   4.938  10.872  11.719 -0.2022  0.1329 -0.0987
15913W        W32387  11.101   2.252  13.333  0.0055  0.0782  0.2323
15914W        W32388   0.347   9.724  13.277 -0.1563 -0.0271  0.0809
15915W        W32389   4.723  12.052  12.512  0.3277  0.2638  0.0421
15916W        W32390  15.091  16.649   2.915 -0.1888  0.0475 -0.1265
15917W        W32391  14.428  14.944   1.296  0.2927 -0.1388 -0.0594
15918W        W32392  17.005  14.305  12.837  0.3191 -0.1830 -0.2692
15919W        W32393  15.498  13.530  11.564 -0.2045 -0.0739  0.1404
15920W        W32394  10.643  13.368   1.685  0.2669 -0.1597  0.1127
15921W        W32395   3.078   7.612  12.898  0.1813 -0.1883 -0.2043
15922W        W32396   5.959  17.278   4.514 -0.1430 -0.1432  0.1463
15923W        W32397   0.589  15.224  11.990  0.0752  0.1441 -0.1364
15924W        W32398  12.518  12.475   3.360 -0.1263  0.1438 -0.2148
15925W        W32399   7.273  12.968  14.313 -0.1437  0.1248  0.2768
15926W        W32400  13.676   8.709   0.814  0.0218  0.0854  0.0186
15927W        W32401  11.527  13.747  12.939 -0.0212 -0.1898  0.1085
15928W        W32402  16.207  15.218  12.457 -0.0749  0.2722 -0.1978
15929W        W32403   4.059   6.815   5.909 -0.0506  0.2801 -0.0821
15930W        W32404  17.094  16.356   2.743  0.3707  0.0874 -0.1622
15931W        W32405   4.989   3.320   3.517  0.0568  0.1170 -0.0469
15932W        W32406  10.693  13.283   4.914 -0.0658  0.1680  0.0800
15933W        W32407   4.754  17.558   4.651  0.0687 -0.3884  0.0150
15934W        W32408   0.348   0.388   3.477 -0.0400 -0.0481  0.0048
15935W        W32409   2.936   3.584  12.462 -0.1522  0.1157 -0.0708
15936W        W32410  14.903  16.941   5.354  0.2587  0.1436  0.1199
15937W        W32411  14.399   3.532  13.579  0.1112 -0.0072  0.3953
15938W        W32412  13.801  11.056  13.106  0.2996 -0.0572 -0.0423
15939W        W32413   3.334   7.861   4.286  0.0032 -0.0974 -0.2292
15940W        W32414  10.100  13.790   4.327 -0.0639  0.1663  0.2027
15941W        W32415  15.761   3.825  13.033 -0.1251  0.2855 -0.3280
15942W        W32416   8.286   7.800  11.435  0.0970 -0.0080 -0.0014
15943W        W32417  16.465   8.591  11.889  0.2776  0.3309 -0.0865
15944W        W32418   5.121   8.344  14.127  0.0324  0.1628 -0.0488
15945W        W32419  14.237  11.252   1.772 -0.1231  0.0724  0.0584
15946W        W32420   6.682   2.616  15.570 -0.0813 -0.0452  0.0323
15947W        W32421  10.697   8.415  15.817  0.3046  0.1768  0.0743
15948W        W32422  15.429  14.750  13.590 -0.1417  0.2273  0.1143
15949W        W32423   8.445  17.587  14.182 -0.2771 -0.2774  0.2126
15950W        W32424   5.011   8.246   4.075 -0.0472  0.1862 -0.0418
15951W        W32425   5.055  16.235  12.432  0.0539  0.3970  0.4515
15952W        W32426  15.666  13.870   4.090 -0.2105 -0.2008 -0.0052
15953W        W32427   9.280  12.506   4.952  0.1350  0.0475 -0.2980
15954W        W32428   7.517   6.782  13.583 -0.1212  0.0752 -0.1081
15955W        W32429  12.896  13.859  15.583  0.1089  0.3656 -0.1996
15956W        W32430  15.406   5.101  14.069 -0.0434  0.1811 -0.3926
15957W        W32431  17.967  18.090  13.086  0.1273 -0.1015 -0.0251
15958W        W32432  12.334  15.766   5.516  0.0963  0.1452  0.1353
15959W        W32433   4.556   9.567  11.548  0.3226  0.0019 -0.3275
15960W        W32434   8.940  15.091   3.762 -0.1967  0.2279 -0.1428
15961W        W32435   5.788   0.918   2.288 -0.2725  0.0143  0.3668
15962W        W32436  13.088   3.270   3.773 -0.1211 -0.2737  0.1487
15963W        W32437  13.242   7.494  12.298  0.1113 -0.3448 -0.0616
15964W        W32438  12.090  11.356  14.052 -0.0290 -0.0608 -0.0024
15965W        W32439   9.260   0.382   5.602 -0.3851  0.0779 -0.3400
15966W        W32440   4.499  13.958   3.187 -0.1063  0.1803  0.0157
15967W        W32441  16.891  16.014   4.482 -0.0754  0.0907  0.1755
15968W        W32442  14.292  14.528  12.656  0.2011  0.1517 -0.2301
15969W        W32443   5.337   4.189   2.808 -0.3412  0.0994 -0.1091
15970W        W32444  10.353   6.799   3.964 -0.1629  0.2945  0.0521
15971W        W32445   2.395   0.444   3.905  0.1394 -0.2081  0.0700
15972W        W32446   6.701  12.450  15.420 -0.3848  0.0505 -0.1883
15973W        W32447  17.728  16.130   1.586  0.2624 -0.0698 -0.0040
15974W        W32448   9.483   1.269   0.475 -0.0448 -0.2803 -0.1782
15975W        W32449  16.984   0.849  13.622 -0.0056  0.0978 -0.3175
15976W        W32450  10.585   0.631  16.266 -0.0926 -0.0875  0.1372
15977W        W32451  15.741   1.024   0.952 -0.0855  0.0848 -0.0914
15978W        W32452   6.544   3.511  15.285 -0.0561  0.2330 -0.1527
15979W        W32453   2.639   7.267   4.802 -0.0554  0.1268 -0.1273
15980W        W32454  10.639  18.149  13.595 -0.0759 -0.1589 -0.0074
15981W        W32455   9.278   9.024  14.888  0.0918  0.0892 -0.0918
15982W        W32456   3.686   6.008  16.001  0.1122  0.2585 -0.2997
15983W        W32457  11.629  14.179  14.973 -0.0319  0.1142 -0.1624
15984W        W32458  12.115  17.176  12.171  0.0737 -0.0400 -0.1200
15985W        W32459  14.445   2.284  13.932 -0.2801  0.3001 -0.0256
15986W        W32460  10.627   1.713   0.474  0.0121 -0.1006  0.1435
15987W        W32461  10.931   1.895  15.354 -0.2116  0.0731  0.0934
15988W        W32462   2.766  16.617   0.435 -0.0101  0.1028 -0.1187
15989W        W32463   0.195   5.098  12.177  0.4792 -0.1200 -0.2118
15990W        W32464  13.584  11.058   0.637  0.0879 -0.2312  0.1428
15991W        W32465   8.911  13.377  12.024 -0.0123  0.3048  0.1021
15992W        W32466  17.372  18.207   1.782  0.0616  0.0207  0.0077
15993W        W32467   2.103  15.371   3.123  0.2761 -0.2068 -0.2442
15994W        W32468  17.417   2.938   5.639 -0.1160  0.2034 -0.3281
15995W        W32469  10.082  13.692   6.083 -0.2030  0.1722  0.0570
15996W        W32470  16.899  18.227  15.128  0.1558  0.0911 -0.0825
15997W        W32471   0.521   4.210   1.045  0.1462  0.4256  0.0814
15998W        W32472  15.845  12.071  13.823  0.1067  0.1498 -0.0959
15999W        W32473  17.723  17.267   5.374  0.1947  0.0883  0.0362
16000W        W32474   9.287  17.079   4.499 -0.0550  0.1821 -0.1427
16001W        W32475  15.597   9.471  13.637  0.0158 -0.3508  0.2435
16002W        W32476   4.038  17.011   0.368  0.0761 -0.0189  0.1202
16003W        W32477  14.807   9.469   5.432  0.0325 -0.1292  0.0262
16004W        W32478   4.652   8.412   2.631 -0.0364 -0.0343  0.3640
16005W        W32479  11.904  12.814  14.370  0.0001 -0.0178 -0.1180
16006W        W32480  12.079   2.833   1.860  0.0573  0.1002 -0.3518
16007W        W32481   4.866   5.800   1.224  0.3631 -0.2169  0.3633
16008W        W32482  13.613  13.656  11.889 -0.0996  0.0936  0.2618
16009W        W32483  14.948   5.654  15.244  0.1356  0.0090 -0.0528
16010W        W32484   3.153  15.377   0.961  0.0276 -0.0331  0.3451
16011W        W32485   1.343   1.413   2.893 -0.4247  0.1923  0.0510
16012W        W32486   8.893   5.670  15.543  0.0910  0.2659  0.1476
16013W        W32487   1.044  16.576  13.222  0.0404  0.0914 -0.0836
16014W        W32488  14.336   4.258   4.130  0.0034  0.1314  0.0308
16015W        W32489   6.557   2.958   0.484  0.4421  0.2961 -0.2336
16016W        W32490  14.180   8.854   4.356  0.2089  0.0518 -0.3627
16017W        W32491   7.455   3.641  12.386  0.2874 -0.0037  0.2638
16018W        W32492   6.224  15.492  12.065 -0.1191 -0.3949 -0.0345
16019W        W32493   0.377  16.525  14.396  0.1243  0.1824 -0.1313
16020W        W32494   9.098   8.586  12.726  0.1719 -0.0396 -0.1800
16021W        W32495   6.976  10.519  16.152 -0.2060 -0.0046  0.1794
16022W        W32496  14.681   0.685  16.318  0.0946  0.0659 -0.1469
16023W        W32497   4.113  17.608  16.000  0.0074  0.0463 -0.0524
16024W        W32498  17.092   8.679   0.496  0.0593  0.1434 -0.0055
16025W        W32499   2.142   1.752  10.990 -0.1615 -0.2039  0.1097
16026W        W32500   4.337   4.965   1.043  0.0670 -0.1935 -0.2554
16027W        W32501   3.433   9.364  15.397 -0.0604  0.2219  0.2783
16028W        W32502  12.637  10.220  13.731 -0.0012 -0.4309  0.0980
16029W        W32503  11.984  16.616  11.552  0.1769 -0.1430 -0.0634
16030W        W32504   3.855   4.407   2.520 -0.1754  0.0357  0.0798
16031W        W32505  14.888  14.169  11.372  0.2530  0.1167  0.1002
16032W        W32506  18.244   7.272   4.051 -0.1438 -0.1029 -0.2674
16033W        W32507  16.856  17.183   0.281  0.0465 -0.0896 -0.1789
16034W        W32508   3.307   8.900   2.862  0.0458  0.2552 -0.2059
16035W        W32509   2.032   7.776   0.158  0.0860 -0.2765 -0.0969
16036W        W32510  12.139  14.050   4.913 -0.4939  0.0290  0.0589
16037W        W32511   8.114   1.893   4.102 -0.3518 -0.1485  0.1717
16038W        W32512   4.086   5.864   5.819  0.0769 -0.1329 -0.1239
16039W        W32513  15.926  13.577  14.037  0.1209 -0.1401 -0.0560
16040W        W32514  12.617   6.906   4.051 -0.0931  0.2997  0.0863
16041W        W32515   6.352   5.359  15.576  0.1909  0.2178 -0.1049
16042W        W32516   5.287   4.898  13.117  0.3741 -0.4183 -0.3409
16043W        W32517  17.321   3.696  11.920 -0.0419 -0.1984  0.1726
16044W        W32518   2.820   8.189  15.970 -0.0405 -0.2048 -0.0458
16045W        W32519   5.330   1.580   1.270  0.0351  0.0883  0.1650
16046W        W32520   5.928  15.664   1.894 -0.1283 -0.1644  0.0355
16047W        W32521  10.827   4.899  14.935 -0.3279  0.0587 -0.1273
16048W        W32522   8.143  13.071  12.915 -0.1407  0.1090 -0.1930
16049W        W32523  18.112   2.341   0.861  0.3077 -0.0502 -0.0066
16050W        W32524   4.092  12.359   5.730 -0.2040  0.1008 -0.0144
16051W        W32525   4.055  10.447  12.446  0.1040 -0.1428  0.2739
16052W        W32526   6.441   5.048   2.288 -0.0193 -0.2243 -0.0508
16053W        W32527  13.733  14.502  14.984  0.3065  0.0473 -0.1085
16054W        W32528   5.383  11.288   1.446  0.2634 -0.2550 -0.0541
16055W        W32529   7.905  14.467  13.397  0.0604 -0.2830  0.0055
16056W        W32530   6.359   0.391   2.520  0.3400  0.0757 -0.2168
16057W        W32531   7.433   3.692  12.970  0.3370 -0.4339  0.3419
16058W        W32532   7.644  17.581  14.616 -0.0220  0.0120  0.4696
16059W        W32533  15.037   9.049   2.719 -0.3585 -0.1393  0.2310
16060W        W32534   8.505   7.300   4.724  0.0951  0.0817  0.0149
16061W        W32535   1.711  14.463   2.227  0.2528 -0.0212  0.1434
16062W        W32536   3.558   6.120  15.478 -0.2297  0.0203 -0.3968
16063W        W32537  10.395  12.420   4.645  0.1272 -0.0879 -0.1774
16064W        W32538   7.674   5.957   1.898  0.0948  0.1990 -0.0633
16065W        W32539   6.419   4.420   2.996 -0.1152 -0.0278  0.4236
16066W        W32540   9.826   9.607   4.035  0.0710 -0.1821  0.0252
16067W        W32541   7.036  10.047  14.556  0.0040 -0.2612  0.0148
16068W        W32542  10.600  16.205   3.436  0.0108  0.1254  0.2242
16069W        W32543  16.699   8.034   0.282  0.1105  0.0861  0.1118
16070W        W32544  16.694  17.357  12.711  0.1135 -0.1313 -0.0506
16071W        W32545  13.541   0.897   2.183  0.1454  0.0028  0.0384
16072W        W32546   0.270  15.550  13.532 -0.1618 -0.0497  0.0744
16073W        W32547   8.880   8.118   4.937 -0.3993 -0.0043 -0.0135
16074W        W32548   8.397  12.911  13.425  0.1494  0.0699 -0.2432
16075W        W32549  11.253  16.146   1.224  0.4562 -0.0839 -0.1747
16076W        W32550   3.105  16.785  15.685  0.2563 -0.0635  0.3459
16077W        W32551   9.646  15.741  15.567  0.0803  0.0049 -0.1271
16078W        W32552   7.374  10.771  13.399 -0.0593  0.2038  0.0710
16079W        W32553  16.177   3.382  10.814 -0.2182  0.4429  0.2343
16080W        W32554   1.216  14.933   3.722 -0.0213 -0.0193  0.1096
16081W        W32555   7.956   2.267  14.605  0.0020  0.2413 -0.1371
16082W        W32556   6.324   7.910  15.129 -0.1541 -0.3620  0.1508
16083W        W32557  14.841   9.558  15.076  0.0393  0.1199 -0.0461
16084W        W32558   3.967  13.367   4.824  0.0552 -0.3309  0.1319
16085W        W32559   4.340   9.543  16.027 -0.6023  0.3965  0.0305
16086W        W32560  11.576  13.507  13.802  0.2263  0.0427 -0.3650
16087W        W32561  17.450   5.807  15.594 -0.2003  0.0822 -0.0923
16088W        W32562  15.737  11.655  12.115 -0.0836  0.1449 -0.1183
16089W        W32563  12.426  15.914  15.006 -0.1149  0.2407 -0.1673
16090W        W32564   1.945   2.518  11.327  0.0422  0.1303  0.0065
16091W        W32565   5.212   3.253   4.618 -0.0864  0.3141 -0.1980
16092W        W32566   5.389   2.852   1.732  0.0043  0.2698 -0.2247
16093W        W32567  16.130   6.713   5.536  0.0308 -0.0244 -0.1332
16094W        W32568  12.218   8.079   1.709 -0.0693  0.0467 -0.0086
16095W        W32569   6.111   1.855  11.130  0.1350 -0.2451  0.1312
16096W        W32570   1.977   3.530  14.807  0.0930 -0.6276 -0.4016
16097W        W32571  14.233  12.911  14.131 -0.0421 -0.3051 -0.1390
16098W        W32572   7.958  15.819  11.726 -0.0115 -0.1160  0.4801
16099W        W32573  16.893   1.376   3.092 -0.1258 -0.0403  0.0831
16100W        W32574  18.166  10.524  11.541 -0.0356 -0.0474  0.5721
16101W        W32575   1.731  12.737   1.664 -0.1800 -0.0119  0.1010
16102W        W32576  15.379  15.041  15.104  0.1620 -0.0017  0.5124
16103W        W32577   3.829   0.846   1.707 -0.1884 -0.0680 -0.1219
16104W        W32578   4.108   7.138  15.224  0.1517 -0.0446 -0.0514
16105W        W32579   6.287   1.150   2.108  0.0614 -0.0519  0.4003
16106W        W32580   6.092   8.304  13.391 -0.1420  0.0461  0.1319
16107W        W32581   7.734   1.608  13.833  0.1374 -0.0644  0.0792
16108W        W32582   0.863  12.958  10.238 -0.1275  0.2547  0.1837
16109W        W32583  10.210  17.650   2.717  0.2968  0.1700 -0.0173
16110W        W32584  12.331  15.336  11.715  0.2506  0.2836 -0.0862
16111W        W32585  13.038  14.745  12.404 -0.2031  0.4808  0.0553
16112W        W32586  12.277   4.746   4.336  0.2021 -0.1127  0.4155
16113W        W32587   1.459   8.147   5.302 -0.2375 -0.0565  0.3102
16114W        W32588   4.490  10.284  15.666 -0.1938  0.0133  0.1709
16115W        W32589  11.910   5.663   0.235  0.1440 -0.1201  0.2467
16116W        W32590   4.977   2.423  12.230 -0.0514  0.1058  0.1390
16117W        W32591   6.398   9.105  12.720 -0.3043  0.0007 -0.0504
16118W        W32592   9.976  12.765  15.928 -0.0564  0.2744 -0.0514
16119W        W32593  11.285  18.177  12.073  0.1507 -0.0632 -0.2829
16120W        W32594   6.008   8.182  12.855 -0.2120 -0.0936 -0.2154
16121W        W32595   6.795  17.438  16.018 -0.4417  0.0947  0.0279
16122W        W32596  17.984  13.837  11.576  0.0508  0.2330 -0.1222
16123W        W32597  12.812  15.925  14.584  0.0730 -0.0328 -0.2412
16124W        W32598  16.687   2.388  14.799 -0.0460 -0.2496 -0.0962
16125W        W32599   2.930  11.507  15.309 -0.5153  0.0976  0.0640
16126W        W32600  12.129   2.491  11.769  0.1633  0.0066  0.4815
16127W        W32601  16.476  13.400   3.654  0.0741 -0.1579 -0.1646
16128W        W32602   5.753  16.952  14.301  0.5626 -0.2688 -0.2525
16129W        W32603   9.022  10.779   1.946  0.3927 -0.0230  0.1704
16130W        W32604   6.335  11.406  13.006 -0.1165 -0.0588 -0.1439
16131W        W32605  10.542   0.011   0.616 -0.0978  0.2371 -0.1605
16132W        W32606   6.514   1.974  16.306 -0.1279 -0.0046  0.2997
16133W        W32607   5.062   6.338  15.042 -0.3753 -0.0043 -0.3082
16134W        W32608   3.300   7.716  13.381  0.0531 -0.1496 -0.0825
16135W        W32609   9.975   9.731   5.895 -0.0651  0.1582 -0.0581
16136W        W32610   6.077  11.321  14.610  0.1055  0.0685  0.1411
16137W        W32611   5.171   0.755  15.207 -0.0582  0.0317  0.1814
16138W        W32612   9.778  15.156   6.433 -0.2547  0.1374  0.0501
16139W        W32613   9.601  10.566  13.203  0.0050  0.2847  0.0479
16140W        W32614  14.893  15.340   4.700  0.0768 -0.0858  0.0664
16141W        W32615   4.679  13.926  13.764  0.0004  0.1140 -0.1755
16142W        W32616   2.249   3.613   1.801 -0.0345  0.1575  0.1105
16143W        W32617  18.036   2.719  11.362  0.0683  0.2379 -0.1498
16144W        W32618  17.443  10.093  12.205  0.1255  0.0366  0.0003
16145W        W32619   9.985  15.467  13.226  0.0655 -0.2224 -0.0920
16146W        W32620  15.772  12.949   4.022  0.1843 -0.1276 -0.1615
16147W        W32621   7.137   8.575  15.094 -0.1640  0.2743 -0.2067
16148W        W32622   1.903   4.728   1.079  0.0998  0.1282  0.0016
16149W        W32623   6.288   6.206  14.014  0.0454 -0.0628 -0.0140
16150W        W32624  12.897   2.955   1.841  0.0073  0.1041 -0.0245
16151W        W32625   5.459   4.586  12.764 -0.2536  0.1043 -0.0585
16152W        W32626   4.219   3.978   1.694 -0.0303 -0.1365 -0.1653
16153W        W32627  13.659   4.405   2.406 -0.0261  0.1533  0.1667
16154W        W32628   0.621  10.496  13.518 -0.0912 -0.0198  0.1200
16155W        W32629   2.018   1.501  14.420 -0.1639 -0.0875 -0.1998
16156W        W32630   8.139  11.032  13.980 -0.0643 -0.0066  0.1900
16157W        W32631  12.224  13.262  12.543  0.0264  0.1239 -0.4148
16158W        W32632  13.116   8.793   2.232 -0.0307 -0.1764  0.1002
16159W        W32633   5.409  17.884   5.258  0.0102 -0.1463  0.0962
16160W        W32634   6.843  16.812   1.646 -0.2046  0.0127 -0.1521
16161W        W32635   7.380   7.539   4.432 -0.4071 -0.1653  0.1373
16162W        W32636   3.083  11.347   4.225  0.2351  0.0759 -0.2178
16163W        W32637   6.239  12.937   2.046  0.0855 -0.0040 -0.0050
16164W        W32638   0.687   9.915  13.633 -0.0266 -0.0275  0.0981
16165W        W32639  12.710  16.468  13.369  0.0219 -0.0208  0.1522
16166W        W32640  14.051  11.763  14.461 -0.1521 -0.0780 -0.0958
16167W        W32641  18.096   5.819   0.056 -0.0179  0.3323 -0.1230
16168W        W32642   2.906   7.876  13.667 -0.0189 -0.1282  0.0775
16169W        W32643  15.503   2.638  14.841  0.1916  0.3305 -0.2896
16170W        W32644  16.639  11.714   3.805 -0.1697  0.1875 -0.0767
16171W        W32645   5.043  13.323   4.205 -0.5408  0.2196  0.0545
16172W        W32646  11.723  10.478   2.857  0.3020 -0.0334  0.0538
16173W        W32647  13.639   6.708  14.257  0.2497  0.1151  0.0309
16174W        W32648   6.016   7.462  12.721 -0.0700  0.2330  0.3265
16175W        W32649   7.602   5.765   2.306 -0.1097  0.1803 -0.1990
16176W        W32650   3.895  16.315   2.410  0.0889  0.1943 -0.3125
16177W        W32651   1.741  12.837   4.303  0.2630  0.0395 -0.0617
16178W        W32652  13.036   1.871   0.044  0.2344 -0.1886  0.1961
16179W        W32653   9.511  12.863  14.686 -0.0167  0.2322  0.1246
16180W        W32654  10.975   1.053   2.113 -0.0203  0.1370 -0.0527
16181W        W32655  17.474   4.393  14.516  0.1978  0.1152 -0.1726
16182W        W32656   8.991  14.081  15.409  0.2282  0.0460 -0.0981
16183W        W32657  13.409  16.770  14.048 -0.0292  0.1473  0.1763
16184W        W32658  17.135  11.233   4.265 -0.0096  0.2640  0.0978
16185W        W32659  11.862   6.246   4.518 -0.0093 -0.1810  0.3166
16186W        W32660   6.499   4.446  15.709  0.0436  0.1667  0.1806
16187W        W32661  17.932  13.327  10.934  0.0575  0.1405 -0.4132
16188W        W32662  14.583  13.518  13.435 -0.0433 -0.2514  0.3594
16189W        W32663  13.289  17.832  11.848  0.2038 -0.0622  0.0982
16190W        W32664   7.242  17.048   1.420 -0.3910  0.1247 -0.1020
16191W        W32665   5.628  12.827  15.907  0.1367  0.2292  0.5204
16192W        W32666  17.944   1.146  14.625 -0.0506  0.0257  0.3681
16193W        W32667   2.774  16.718   3.797  0.0054 -0.0672  0.0340
16194W        W32668  13.304   0.492  12.330  0.2972  0.4176 -0.1477
16195W        W32669  10.666   0.383  13.506  0.0346  0.1467 -0.0370
16196W        W32670   5.303  14.409   1.943 -0.1310 -0.0556  0.0075
16197W        W32671   8.587   2.923  11.111 -0.1416  0.2292 -0.0282
16198W        W32672  11.886  12.535  11.004 -0.1569  0.0898  0.2474
16199W        W32673  10.051   6.182   5.862  0.0431  0.1836 -0.1641
16200W        W32674  14.043   9.013   5.058 -0.0505 -0.0751  0.1292
16201W        W32675  11.441   4.524  12.173 -0.1063 -0.0626 -0.2041
16202W        W32676  16.840  11.616   4.631 -0.1769 -0.3930 -0.1203
16203W        W32677   9.169   9.610   3.110 -0.2271  0.3044  0.1991
16204W        W32678   6.252  10.638  12.309  0.5149  0.2945 -0.3528
16205W        W32679   3.248   3.865  14.139  0.3304  0.1189 -0.0209
16206W        W32680  16.327   2.994  14.158 -0.2875  0.2706  0.2399
16207W        W32681  10.277  17.191   1.899  0.0976 -0.0815 -0.0428
16208W        W32682   8.623   8.591  12.416 -0.0143 -0.1699 -0.0268
16209W        W32683  14.965  15.706  11.781 -0.3127 -0.1739  0.0673
16210W        W32684   6.389   1.108   0.711  0.2888  0.1111 -0.0770
16211W        W32685   5.752  11.666  13.846 -0.0487  0.0188  0.0225
16212W        W32686  13.055  11.052  14.036  0.0317  0.1736 -0.0057
16213W        W32687   9.240  11.211  11.703  0.3266 -0.2765 -0.2125
16214W        W32688  15.850  11.995   0.300  0.2804 -0.0913  0.0072
16215W        W32689  11.365   5.826   0.098  0.1228  0.0265 -0.1337
16216W        W32690   5.257  18.081   4.810 -0.1330 -0.0628 -0.2135
16217W        W32691   2.280  15.798  13.651 -0.0164  0.0516  0.0458
16218W        W32692  11.792   5.222  16.264  0.4396 -0.0538  0.3166
16219W        W32693   1.441  13.489   1.527 -0.0169 -0.3334 -0.1916
16220W        W32694   5.681   5.054  12.851  0.2598 -0.4400  0.1749
16221W        W32695  16.068   6.987   4.000  0.2410  0.1209  0.0233
16222W        W32696   7.903   8.612   2.229 -0.1400 -0.0165 -0.1924
16223W        W32697   1.106  15.321  15.429 -0.1983 -0.1160  0.3004
16224W        W32698  16.059  15.364  13.081  0.0848  0.1737  0.2597
16225W        W32699  13.954   3.506   3.981  0.1804  0.0108  0.2087
16226W        W32700   0.210  13.355   4.497 -0.2277  0.1830  0.2154
16227W        W32701   2.784  18.292   1.161 -0.0980  0.3244 -0.1548
16228W        W32702  16.982   1.086  12.345  0.0162  0.1573  0.0433
16229W        W32703   9.662   8.873   3.438 -0.0029  0.2037  0.3873
16230W        W32704   3.805  15.542  12.264  0.3376 -0.0303 -0.0367
16231W        W32705  13.705  14.499   4.619  0.2179 -0.3167  0.2073
16232W        W32706  10.811  17.814   6.019 -0.3088  0.0166 -0.1769
16233W        W32707  17.110   0.561  15.773 -0.0343  0.0045 -0.1353
16234W        W32708   1.615   9.721  13.721 -0.0307 -0.2993  0.0002
16235W        W32709  15.914   1.365   4.095 -0.2798  0.0064 -0.0804
16236W        W32710   5.553   1.660  12.666 -0.0956 -0.1545  0.0721
16237W        W32711   2.673  14.612  14.969 -0.0290  0.3464  0.1385
16238W        W32712  12.295   7.259   2.702 -0.2646 -0.0172 -0.1999
16239W        W32713   3.500   3.721  15.978  0.0317  0.0228 -0.2043
16240W        W32714  11.282  10.231  15.958 -0.0877  0.1164  0.0730
16241W        W32715  10.599  13.819  14.190  0.0439 -0.0154  0.3001
16242W        W32716  11.623   1.355  16.316  0.2248  0.0090 -0.0070
16243W        W32717   8.517   1.521  14.069  0.1562  0.0239  0.2794
16244W        W32718  14.315   7.099  14.376  0.1452 -0.1928 -0.0646
16245W        W32719   1.243   2.319   0.875 -0.0751 -0.2960 -0.0466
16246W        W32720  16.671  14.864  11.792 -0.1727 -0.1872 -0.0645
16247W        W32721   3.821   7.747  11.840 -0.0253 -0.0155 -0.1553
16248W        W32722  13.126  13.600   1.187 -0.0380  0.0331  0.0671
16249W        W32723  15.707  17.623  12.276 -0.1815  0.1226 -0.1063
16250W        W32724   2.481   9.779  13.119  0.0222 -0.1756 -0.0238
16251W        W32725  13.224   6.418   1.770  0.2478  0.1263  0.0185
16252W        W32726  17.853  17.636   3.273  0.2231  0.1991 -0.0484
16253W        W32727   1.664   1.623  12.258  0.2714  0.1832 -0.1155
16254W        W32728  17.768  18.186  12.593 -0.2335 -0.0246 -0.0482
16255W        W32729  11.795  11.721   1.418  0.4557  0.1266  0.2276
16256W        W32730  10.755  14.912  15.773  0.2277  0.0219  0.1142
16257W        W32731  14.331  16.176   2.562 -0.3564 -0.0357  0.1869
16258W        W32732   8.285   3.644  10.775 -0.0076  0.0516 -0.1364
16259W        W32733  12.095   3.310  12.878  0.0284 -0.0339  0.1869
16260W        W32734  18.061   6.206  15.030 -0.0564 -0.0631 -0.2339
16261W        W32735  13.656   3.159   3.668 -0.5030 -0.3844  0.2236
16262W        W32736  12.828  13.763  13.715 -0.2854  0.1077 -0.2529
16263W        W32737  10.137   2.855   1.606 -0.5219 -0.3059 -0.5656
16264W        W32738   5.401  14.910   1.922  0.0984 -0.1160 -0.1343
16265W        W32739   1.777  15.320   4.847 -0.1120  0.3333 -0.0289
16266W        W32740   8.740  16.465  10.592 -0.0033  0.1540 -0.0058
16267W        W32741   1.233   7.745   1.824  0.2050  0.0906 -0.1565
16268W        W32742  12.387   5.343   0.161 -0.0498 -0.0078  0.0182
16269W        W32743  17.068   2.520   3.707  0.1962  0.1565 -0.0828
16270W        W32744   5.179   6.018   1.650  0.0325  0.1035  0.1104
16271W        W32745   7.766   0.704  13.740 -0.0659 -0.2917 -0.0170
16272W        W32746   8.083  10.203  12.944  0.1636  0.0115  0.1523
16273W        W32747  10.450   5.137   2.477 -0.0690 -0.1855 -0.2330
16274W        W32748   5.875  11.432   4.099  0.0048 -0.0479 -0.1215
16275W        W32749   0.935   8.221  13.047  0.1257  0.0389  0.0061
16276W        W32750   1.553  16.665   2.856  0.1811 -0.1809 -0.1436
16277W        W32751   6.821   0.192  13.540 -0.2766  0.1824  0.2900
16278W        W32752   8.822   7.317  16.032  0.0039 -0.0220  0.6420
16279W        W32753  12.684  11.949  15.672 -0.0447  0.3612  0.1263
16280W        W32754  15.446   4.135  13.008 -0.1496  0.1975  0.0050
16281W        W32755  17.618   9.870   1.691 -0.1816 -0.1668  0.1707
16282W        W32756   5.438  10.049   4.734  0.1410  0.0282 -0.4400
16283W        W32757   9.527  15.678   4.595 -0.0372  0.0871  0.1962
16284W        W32758   9.236   5.577  13.416 -0.0740 -0.1480  0.1680
16285W        W32759  12.064   1.110  13.941 -0.2281 -0.0258  0.0358
16286W        W32760   3.587   8.006  12.572 -0.4280  0.1491  0.1807
16287W        W32761   3.189  10.499   2.502 -0.0983  0.0946 -0.0199
16288W        W32762   5.565   4.258  15.750 -0.1892 -0.3045 -0.0354
16289W        W32763  10.474  10.903   3.674 -0.0553  0.0445  0.2739
16290W        W32764   0.793   3.032  15.654 -0.1095  0.1838  0.0401
16291W        W32765  12.127  17.334   4.676 -0.1927 -0.0908  0.0102
16292W        W32766   5.961   2.088   5.737 -0.0842  0.1419  0.1480
16293W        W32767  15.883  17.595  15.762 -0.2294  0.4146 -0.0578
16294W        W32768  13.917  11.420  16.142 -0.1499 -0.3518 -0.1603
16295W        W32769   8.944   5.345   0.695  0.2340 -0.1036  0.0742
16296W        W32770   3.982   8.862   4.427 -0.2476  0.3838  0.2247
16297W        W32771   8.068  11.443  14.291 -0.1461  0.0163 -0.1925
16298W        W32772   1.323   9.575   2.091 -0.4374 -0.1960  0.4347
16299W        W32773  16.366  16.989   3.032 -0.1516 -0.1767 -0.4611
16300W        W32774  16.240   8.403  13.328 -0.0396 -0.1862  0.1322
16301W        W32775  10.716   1.216   3.379 -0.1897 -0.5574  0.1659
16302W        W32776  17.467   4.946  12.371 -0.0979 -0.0720  0.2218
16303W        W32777  17.575  15.077  13.257 -0.0453 -0.2221  0.2538
16304W        W32778  10.921  12.750  12.350 -0.2953 -0.0111 -0.2191
16305W        W32779   3.163   4.160   0.924 -0.1288  0.0425  0.1231
16306W        W32780   0.053  11.304  14.780  0.0292  0.1855  0.1496
16307W        W32781   8.869  17.846   4.101 -0.1774 -0.1181 -0.0895
16308W        W32782   8.044   9.920   2.120  0.2322 -0.1067  0.4575
16309W        W32783   2.576  15.600  13.170  0.1213 -0.1289 -0.1932
16310W        W32784  14.167   6.590   0.676 -0.1265 -0.1649  0.3195
16311W        W32785  17.689   8.354   1.676 -0.1120 -0.0600  0.3333
16312W        W32786  12.788  14.318   3.216 -0.0502  0.0605 -0.3440
16313W        W32787  16.655  17.895  12.528 -0.5060  0.0013 -0.0894
16314W        W32788   2.067   7.465   4.561 -0.0953 -0.0035 -0.1395
16315W        W32789   4.588   4.534   3.432 -0.2232 -0.3257 -0.4358
16316W        W32790   4.317   8.058   2.915  0.1548 -0.0198 -0.0576
16317W        W32791   7.075  15.054   3.659 -0.4642 -0.2482  0.2296
16318W        W32792   0.284   6.660   3.608 -0.1382  0.2163  0.2540
16319W        W32793   5.875   4.990   5.192  0.2710 -0.1515 -0.2273
16320W        W32794  12.365  11.031  12.229 -0.0586 -0.0919  0.3100
16321W        W32795   3.473   4.163  10.223 -0.1812 -0.1376 -0.0434
16322W        W32796   7.526   4.416   3.834  0.0888 -0.1290  0.0725
16323W        W32797   7.581   5.165  11.935  0.1700  0.0263  0.3210
16324W        W32798  16.941   3.513  10.943 -0.1272 -0.3100 -0.1400
16325W        W32799  13.184  15.599   0.932  0.0665  0.0267 -0.2997
16326W        W32800  12.850   6.052  12.168 -0.0466 -0.1380  0.2809
16327W        W32801  13.068   6.094  11.217 -0.0324  0.1704 -0.1022
16328W        W32802  15.340  15.177  13.858 -0.2356 -0.2191  0.2341
16329W        W32803   9.651  13.441   5.275 -0.3831  0.4709 -0.0636
16330W        W32804   1.575   1.667  13.173 -0.4575  0.0136  0.0243
16331W        W32805   8.718   0.792   4.480  0.1444  0.0803  0.1087
16332W        W32806   5.434  14.508   0.553 -0.0861  0.0165  0.0289
16333W        W32807   3.134  15.032  15.996  0.0881  0.1287  0.0012
16334W        W32808  13.606  16.989  12.645  0.1123 -0.0990 -0.0291
16335W        W32809   7.016  15.845   5.042 -0.0284  0.4274  0.0319
16336W        W32810  17.970  13.560   2.489  0.0318  0.1363  0.2241
16337W        W32811  14.608  11.717   0.474 -0.0714  0.1748  0.0392
16338W        W32812  11.092   3.379   0.311 -0.0589  0.1281 -0.0096
16339W        W32813   6.907  17.036   3.693  0.0770 -0.2023 -0.3071
16340W        W32814  17.413  13.522   2.283 -0.1158 -0.2198 -0.0378
16341W        W32815   6.459   9.069  11.874 -0.1171 -0.0970  0.0875
16342W        W32816  13.436  14.718   1.285 -0.1038  0.1516 -0.1622
16343W        W32817   4.447  10.342   3.597 -0.1719  0.0379 -0.1209
16344W        W32818  11.501   8.024  15.741 -0.0442 -0.0668 -0.0116
16345W        W32819   6.502  14.224   0.110  0.0430  0.0129 -0.1112
16346W        W32820  17.388   2.444   4.139 -0.2290 -0.0620  0.2488
16347W        W32821   3.227   7.056   3.819  0.0381  0.3117  0.1562
16348W        W32822  14.319   8.749   3.175 -0.0089  0.0118 -0.1547
16349W        W32823  18.160   3.618   5.675  0.0062  0.0500  0.0784
16350W        W32824  17.747   6.725  11.742 -0.1276  0.1949  0.0582
16351W        W32825   4.148   8.134  13.834  0.2036  0.3761 -0.2455
16352W        W32826  11.813   8.044   1.383  0.1686 -0.4437  0.2461
16353W        W32827   8.597   0.952  16.285  0.2234  0.1354 -0.3950
16354W        W32828   5.327   2.275   3.507  0.0229  0.4352 -0.1674
16355W        W32829  14.159   9.316   4.684  0.2593  0.0357 -0.0330
16356W        W32830   7.373   9.047   1.751 -0.0316  0.1051  0.3082
16357W        W32831   9.886  13.808   5.616 -0.1653  0.2124 -0.0699
16358W        W32832  11.110   3.896   2.810 -0.0617 -0.1897  0.0996
16359W        W32833  14.361   9.602   3.323 -0.1188 -0.0660 -0.1867
16360W        W32834   4.074   0.226  15.957 -0.1211  0.0084 -0.0285
16361W        W32835   7.889  17.462  14.178  0.0728 -0.0504  0.1298
16362W        W32836   3.932  10.741   2.366  0.1208  0.0044  0.0268
16363W        W32837   5.469   7.426  15.507 -0.2041 -0.0957 -0.1691
16364W        W32838  16.466   9.048  11.525 -0.0312  0.1079  0.1718
16365W        W32839   1.188   0.147   4.697 -0.1928  0.0594 -0.2188
16366W        W32840   8.099  15.468   1.764 -0.2332  0.1252 -0.0277
16367W        W32841   4.815   9.229   1.547 -0.5296  0.2735 -0.3164
16368W        W32842  11.835   5.420   4.880  0.2686 -0.0395 -0.1310
16369W        W32843   3.587   5.715   5.072  0.1624  0.1078  0.0536
16370W        W32844   3.027  17.398   4.450  0.0507  0.1028  0.1753
16371W        W32845  11.629   0.737   3.211 -0.1291  0.3247 -0.1201
16372W        W32846  18.034  14.994  14.493 -0.0666 -0.1970 -0.0968
16373W        W32847   8.844   6.897   2.425 -0.0810  0.0286 -0.0350
16374W        W32848   4.257  14.620  11.710 -0.1330 -0.0096 -0.1247
16375W        W32849  14.243   2.667   4.438  0.1216  0.0382 -0.1893
16376W        W32850   1.727   3.184  14.389  0.0122  0.2450  0.2038
16377W        W32851  15.545   3.851  15.036  0.1063 -0.0997 -0.2574
16378W        W32852   6.808   4.590  15.156 -0.0897  0.0749 -0.0755
16379W        W32853  12.174  11.027   3.545 -0.2022  0.4398 -0.0724
16380W        W32854   6.396   6.223   1.201  0.3466  0.3881  0.0076
16381W        W32855   0.202  18.090  13.117  0.0043 -0.1823 -0.1515
16382W        W32856  13.373   4.916   3.059 -0.0773 -0.0488 -0.0428
16383W        W32857  10.171  14.038   0.680 -0.0601  0.1415  0.0694
16384W        W32858   0.077  14.638   0.033 -0.0662 -0.0685 -0.1769
16385W        W32859   9.445   5.863   1.010  0.1236  0.0309  0.0562
16386W        W32860   0.650   8.096  11.828 -0.1212  0.2626 -0.0140
16387W        W32861  17.080  17.298   1.659 -0.1937  0.0989 -0.0426
16388W        W32862  13.527   5.808   4.451  0.0772 -0.0977  0.2792
16389W        W32863  12.555   5.500   3.501 -0.0192 -0.3269  0.3172
16390W        W32864   6.601   1.584   1.492  0.0381  0.2597  0.0275
16391W        W32865  17.040  10.727   1.727  0.0494 -0.0107  0.0635
16392W        W32866   5.957  12.404  14.464 -0.3383 -0.1677  0.0296
16393W        W32867  17.415  11.794   5.662  0.0053  0.0576  0.0054
16394W        W32868  10.773   6.164  13.892  0.2285 -0.1471 -0.0134
16395W        W32869   2.338  16.809  15.130  0.0539 -0.4242 -0.1390
16396W        W32870   1.361   6.676   0.458 -0.1670  0.4215 -0.2751
16397W        W32871  14.423   2.064   1.133 -0.3496 -0.0917  0.0952
16398W        W32872  14.709  11.536   3.166  0.0289 -0.4004 -0.2615
16399W        W32873   1.903  14.193   0.415 -0.2205  0.1006  0.0933
16400W        W32874   0.206   1.121  12.678 -0.0766  0.1726 -0.0746
16401W        W32875   2.631  12.919  13.258  0.1478  0.0400  0.0548
16402W        W32876   7.951  17.405   3.663 -0.0496  0.1177 -0.1861
16403W        W32877   2.007   4.201   1.731  0.5592 -0.1034  0.2858
16404W        W32878   1.356  15.798  13.470 -0.1113 -0.1453 -0.1537
16405W        W32879   5.212   9.115  15.833 -0.1338  0.1391 -0.1024
16406W        W32880   5.464  10.665   5.542 -0.0687 -0.1979  0.2555
16407W        W32881  15.134  12.510   4.395 -0.2568  0.0601  0.0333
16408W        W32882   0.721   4.722   0.652  0.0762  0.3043  0.0657
16409W        W32883   0.581  12.442   2.180  0.1909 -0.0954  0.1872
16410W        W32884  13.838   2.647   1.307 -0.1667  0.1711 -0.1216
16411W        W32885  11.782  10.251   3.372 -0.0092 -0.3280 -0.3011
16412W        W32886   3.266  14.473   5.587 -0.0007  0.2403 -0.2022
16413W        W32887   6.378  15.780   2.580 -0.0697  0.3956 -0.1815
16414W        W32888  11.797  16.147   5.025  0.0069 -0.2767 -0.0258
16415W        W32889   0.025   2.736  15.145 -0.0803  0.1618 -0.0661
16416W        W32890   5.751  12.426   0.310 -0.0950  0.0373  0.2107
16417W        W32891  10.963  17.571  14.333 -0.2361  0.0224  0.2561
16418W        W32892  13.861   8.509   4.073  0.3088  0.0834  0.2385
16419W        W32893   7.713   1.633  15.058  0.2514  0.0143 -0.2494
16420W        W32894   0.764  12.100   1.823 -0.1228  0.0227  0.0181
16421W        W32895   3.518   8.933   3.515  0.1990  0.3591  0.1700
16422W        W32896  12.898  18.051   1.412  0.0229  0.2901 -0.2324
16423W        W32897  11.681   4.587  12.629 -0.0313 -0.0036  0.3483
16424W        W32898   6.107  12.263   0.616 -0.1732  0.1303  0.0328
16425W        W32899   5.337   2.341  11.504  0.2135  0.1368  0.0193
16426W        W32900  14.171   8.413  14.872 -0.0228 -0.0381  0.2600
16427W        W32901   6.025  12.833   0.581  0.2420 -0.0851 -0.2759
16428W        W32902   7.711   5.226  15.132  0.0512  0.2451 -0.1739
16429W        W32903   0.581  16.871  12.524 -0.0967  0.0230  0.0174
16430W        W32904   1.945  18.002  12.078  0.1406 -0.1090 -0.0328
16431W        W32905   4.448   3.107  15.197 -0.2981  0.0042 -0.0295
16432W        W32906   8.892   3.754   1.301  0.0290 -0.0136  0.1946
16433W        W32907   8.974  10.926   1.417 -0.2834  0.0277  0.1547
16434W        W32908  18.037  17.424   0.273  0.1830 -0.1769 -0.1577
16435W        W32909   5.471   4.202   4.523 -0.1762  0.0709 -0.0354
16436W        W32910   8.061   6.209   3.331  0.2385  0.2272 -0.1152
16437W        W32911   3.145  12.384  11.306 -0.0889  0.0459  0.0796
16438W        W32912  14.396  17.704   4.371 -0.1192  0.1296 -0.2066
16439W        W32913   7.803   8.678  12.956 -0.2973  0.1967  0.0002
16440W        W32914   4.135   5.796  11.991 -0.1864 -0.1650  0.2491
16441W        W32915  11.473   1.956  13.226  0.0975 -0.0038 -0.1778
16442W        W32916  10.673  13.745  15.167 -0.2538 -0.0281  0.2893
16443W        W32917  11.815   1.973  15.958 -0.1841 -0.0201 -0.1072
16444W        W32918   2.999   6.146   4.384  0.0059 -0.0216  0.1359
16445W        W32919  11.841  16.961  12.922 -0.1003  0.1726  0.0115
16446W        W32920   9.393  17.129   2.875  0.2789 -0.0682 -0.2850
16447W        W32921   6.420   7.836   4.289 -0.0415  0.2838 -0.2451
16448W        W32922   4.134  11.601   2.367 -0.0288  0.0601 -0.4572
16449W        W32923   2.549   9.283   0.553  0.2353  0.3399 -0.1564
16450W        W32924   6.022  17.916  11.663 -0.0648  0.1278 -0.0438
16451W        W32925   0.719  13.706  11.275  0.1074 -0.0908  0.1303
16452W        W32926  16.371  17.731   1.020 -0.1100  0.0969  0.1235
16453W        W32927  11.803   5.542   4.022  0.0341  0.1572  0.0144
16454W        W32928   6.499   0.318   0.593 -0.1985 -0.0617 -0.0268
16455W        W32929   1.999  13.365   3.370  0.1786  0.1894 -0.2029
16456W        W32930   1.525  10.776  13.345 -0.0956  0.1855  0.1025
16457W        W32931  12.736  13.469   2.384 -0.0199  0.0943 -0.0877
16458W        W32932  11.647   4.979  13.459 -0.2166  0.1448  0.1521
16459W        W32933  12.799   4.251   3.509 -0.1351  0.0119  0.0581
16460W        W32934  11.552  13.539   5.323  0.0626  0.0696  0.1587
16461W        W32935  15.310  11.858   2.609  0.1595  0.3330  0.1752
16462W        W32936  15.843  12.403  14.614  0.0923 -0.2492 -0.3963
16463W        W32937  18.218   4.231  13.505 -0.3160 -0.1107  0.0707
16464W        W32938  17.587  13.636  15.889  0.1599 -0.0899  0.3160
16465W        W32939  12.646  17.291  11.733 -0.1383  0.3432  0.1163
16466W        W32940  11.964  12.960  14.893 -0.0766  0.1412 -0.0393
16467W        W32941   9.671   8.395  15.327  0.3345  0.0009  0.0246
16468W        W32942   8.911  14.335   5.957 -0.0416  0.1456 -0.3375
16469W        W32943   4.249  11.982  12.767 -0.1048 -0.0793  0.1856
16470W        W32944  10.143   6.414  12.351  0.0398 -0.1822 -0.2277
16471W        W32945   8.400  17.049   1.973  0.0507 -0.2249  0.1821
16472W        W32946  12.921   3.717   3.591  0.0972  0.1177 -0.1157
16473W        W32947   6.338   1.270  12.191 -0.1681 -0.0094  0.2525
16474W        W32948  17.157  16.085   3.659 -0.1439 -0.0440 -0.0123
16475W        W32949  14.675   7.517  14.058 -0.2338 -0.1816  0.0676
16476W        W32950  12.256  12.789   0.794  0.0709  0.1235  0.0250
16477W        W32951   9.042  12.735   0.339 -0.1461  0.0372 -0.2571
16478W        W32952   6.767  16.353  15.034  0.0477  0.0094  0.2076
16479W        W32953  12.989   0.355  14.920 -0.1226  0.0420  0.2277
16480W        W32954   0.722  11.952   2.649  0.0792 -0.2848 -0.0781
16481W        W32955   3.030  13.398   4.882 -0.0464 -0.2855 -0.1822
16482W        W32956  14.097   2.239  13.052 -0.3825  0.0907 -0.3021
16483W        W32957   7.767   7.218   4.735 -0.0630 -0.0518 -0.2287
16484W        W32958  10.990  14.046   0.484 -0.0905 -0.0205 -0.0998
16485W        W32959  14.269  14.161   3.464  0.1011 -0.3311 -0.3703
16486W        W32960  11.367   8.096   1.244  0.1607 -0.2819 -0.1285
16487W        W32961  11.611   4.961  11.460 -0.0234 -0.0531  0.2442
16488W        W32962  13.608   4.946  11.055 -0.0365 -0.4080  0.3361
16489W        W32963  11.365  17.531  16.152  0.1391 -0.0602  0.1103
16490W        W32964   8.193  14.341  11.515 -0.1962 -0.1048  0.2380
16491W        W32965   9.915   8.660   3.892  0.1573 -0.2175  0.1376
16492W        W32966  15.929   5.868   1.765 -0.1686  0.2412  0.1205
16493W        W32967  14.223   4.980  13.733  0.0733 -0.1118  0.1064
16494W        W32968  10.284   0.718  12.023  0.2351 -0.1419 -0.1235
16495W        W32969  14.859   0.507  13.385  0.0335 -0.1407 -0.0464
16496W        W32970   2.151  17.375   0.532  0.2100  0.1525  0.0584
16497W        W32971   5.098  12.583  13.815  0.2320 -0.1480  0.2047
16498W        W32972  14.768   4.451   1.379  0.1297  0.3057 -0.2030
16499W        W32973  13.933  10.638  15.308 -0.1020  0.0563 -0.0068
16500W        W32974   2.539   4.073   1.648  0.0531  0.2739 -0.1002
16501W        W32975   8.980   1.828  11.076 -0.1193 -0.0187  0.1078
16502W        W32976  12.653   5.721  13.196 -0.2694 -0.0846 -0.1668
16503W        W32977   7.740   9.463  14.147  0.1234  0.2409 -0.0503
16504W        W32978   9.083   2.647  15.615 -0.2099 -0.0139 -0.0014
16505W        W32979  10.332   8.750   2.101 -0.1903  0.1572  0.0775
16506W        W32980  16.325   7.634   0.300  0.0083 -0.0587  0.3631
16507W        W32981   3.223  17.426  13.685 -0.1524  0.1651  0.0673
16508W        W32982  10.416  17.798  13.022  0.2281  0.0460  0.3253
16509W        W32983  12.726  17.803   4.168 -0.1875  0.1168 -0.3501
16510W        W32984  12.893  15.019   0.674 -0.0075  0.1847 -0.0686
16511W        W32985   9.708   5.359   0.165 -0.2055 -0.0538  0.1254
16512W        W32986  18.241   8.868  13.988 -0.2774  0.0337 -0.2157
16513W        W32987   9.839  12.437  16.316  0.1103 -0.1819 -0.4469
16514W        W32988   9.931   2.850  11.981  0.0303  0.0028 -0.2352
16515W        W32989  11.303  10.461  14.309  0.0070 -0.1029 -0.2078
16516W        W32990  17.698  12.272  15.275 -0.1176  0.2640 -0.0949
16517W        W32991   7.937   1.099  14.052  0.1530  0.0082 -0.1102
16518W        W32992   6.293   8.191  12.352  0.1240 -0.1135  0.1678
16519W        W32993   3.932  10.662  12.974 -0.3543 -0.1674  0.2512
16520W        W32994   0.035   7.619   5.870  0.0519  0.1560  0.0099
16521W        W32995   5.431   4.551   3.302 -0.0423 -0.0511 -0.0449
16522W        W32996   8.124  10.158  12.300 -0.0573  0.1120 -0.0622
16523W        W32997  16.383   7.514   0.815 -0.0672  0.1890  0.1722
16524W        W32998  10.591   5.050   3.044  0.0411  0.0625  0.1221
16525W        W32999   9.821   3.109  12.994 -0.3972 -0.0724  0.1256
16526W        W33000   5.149   5.650  15.117 -0.0192 -0.3754  0.1042
16527W        W33001   9.527   8.601  13.092 -0.2603 -0.0626 -0.0212
16528W        W33002  13.390   8.466   3.695  0.4237 -0.1429 -0.1510
16529W        W33003   9.853   6.579  16.059  0.0418  0.2692 -0.1982
16530W        W33004  10.684   6.736   4.912 -0.2874 -0.0130 -0.2009
16531W        W33005   2.203   6.052  13.303 -0.0569 -0.3664 -0.0546
16532W        W33006  15.223  14.574  13.108 -0.1768 -0.0893 -0.0044
16533W        W33007   7.707  18.068   3.576 -0.0212 -0.0767 -0.1540
16534W        W33008   6.753   1.324  12.736  0.0938  0.4035 -0.0356
16535W        W33009   2.173  12.841   1.496 -0.1676  0.0518  0.2259
16536W        W33010   6.939   2.382  10.942 -0.2617 -0.1407  0.1322
16537W        W33011  12.987  17.360  15.452 -0.0469 -0.1620 -0.0043
16538W        W33012  17.951   5.266  13.535  0.2878 -0.1901  0.0438
16539W        W33013  15.816  10.038   2.028  0.0032 -0.1111 -0.0691
16540W        W33014  10.328   4.588  12.592  0.3059  0.1101 -0.1247
16541W        W33015  17.309  12.036  13.657  0.2239 -0.0395  0.2251
16542W        W33016  15.099  16.062  12.123 -0.2651  0.1341  0.0897
16543W        W33017   0.658   9.013  15.107  0.0418 -0.1447 -0.3176
16544W        W33018   7.155  10.422  14.945 -0.3637 -0.2460 -0.2758
16545W        W33019  16.663   6.233  15.725 -0.0708 -0.4418  0.0632
16546W        W33020  14.235   4.814  14.650 -0.1093  0.0060 -0.1828
16547W        W33021   3.260  16.905   4.458  0.3747  0.2034 -0.1580
16548W        W33022  13.901  12.461  13.310 -0.0430  0.1480 -0.0350
16549W        W33023   8.604  15.047   1.048 -0.0299  0.2998 -0.1031
16550W        W33024  11.667   2.157   2.152 -0.0628  0.1855  0.1046
16551W        W33025  15.207  10.008  14.202  0.2721  0.2687 -0.1673
16552W        W33026   7.384   9.579  12.508  0.2595  0.1380  0.2334
16553W        W33027   7.221   8.906  13.697  0.1722  0.2638  0.1943
16554W        W33028  11.731  14.161   4.625 -0.1594 -0.1309  0.1936
16555W        W33029  13.330  17.599   6.080  0.2260  0.1191  0.5077
16556W        W33030   8.506   9.704   1.314 -0.2409  0.2308 -0.3158
16557W        W33031  13.824  18.220  15.131  0.1954  0.4833 -0.2611
16558W        W33032  15.235  13.504   1.365 -0.0265 -0.0559  0.0704
16559W        W33033  17.433   6.763  16.276 -0.1053  0.2571  0.0156
16560W        W33034  16.917  11.565  12.702 -0.2550  0.3211 -0.3848
16561W        W33035   5.543  10.846  13.765  0.3403  0.1728  0.1638
16562W        W33036   2.608  10.664  14.837 -0.0688  0.2514 -0.0699
16563W        W33037  17.003   0.671   5.316  0.0514  0.0083 -0.2420
16564W        W33038   2.499   9.674   4.909 -0.0894 -0.3615 -0.0611
16565W        W33039  12.075  16.210  14.052  0.3994  0.0826 -0.1095
16566W        W33040   4.827  10.492   2.915 -0.1455 -0.0042 -0.2827
16567W        W33041  15.549  16.139   0.388 -0.0421 -0.3034 -0.0487
16568W        W33042  16.245  15.429  15.231 -0.0679 -0.0111 -0.3449
16569W        W33043   1.136  17.517  13.591  0.0035  0.1949  0.3617
16570W        W33044  13.113  17.697  14.354 -0.0122 -0.3336 -0.4838
16571W        W33045   3.309   7.555   1.649  0.1334  0.1646  0.0383
16572W        W33046  10.239  15.332   3.520  0.2605 -0.2664 -0.1245
16573W        W33047  17.396  12.847   3.489  0.2759 -0.1004  0.0983
16574W        W33048   3.968  15.145   2.472 -0.1874  0.3313 -0.0315
16575W        W33049   3.806   8.122  14.771 -0.3294  0.1293  0.1140
16576W        W33050  12.671   2.496   2.648 -0.0534 -0.0422 -0.1143
16577W        W33051   9.635   3.394  15.623  0.3794  0.1060  0.1723
16578W        W33052  13.255   5.120  14.702  0.0556  0.0354  0.1368
16579W        W33053   0.622  11.204  13.866 -0.0818 -0.0986 -0.0215
16580W        W33054   2.063  10.080  12.838 -0.1418 -0.0846 -0.2543
16581W        W33055  13.521  11.079   0.051 -0.2148 -0.1851 -0.0877
16582W        W33056  16.344  10.262   0.320  0.1943 -0.2110 -0.0177
16583W        W33057   6.459   8.286  13.798  0.0554  0.0349  0.0921
16584W        W33058  17.904   2.045  15.782 -0.0526 -0.2944  0.0119
16585W        W33059   4.468   9.643  14.467 -0.2089  0.1903 -0.3363
16586W        W33060   1.443   6.162   5.269  0.1689 -0.2062  0.2173
16587W        W33061  13.999   0.261  13.732 -0.1116 -0.0585 -0.2060
16588W        W33062   2.570  13.682  14.027  0.0734 -0.1807 -0.2628
16589W        W33063   4.993  15.401  15.419 -0.2399  0.0143 -0.2039
16590W        W33064  13.241  17.223  12.963 -0.1069  0.0623 -0.1129
16591W        W33065   7.780   7.070   2.736 -0.2355  0.0214 -0.1976
16592W        W33066   6.769   0.571  13.976  0.0365  0.2261 -0.0335
16593W        W33067   9.799   4.267   3.370 -0.1009 -0.3401  0.1424
16594W        W33068   0.593   4.533  15.073 -0.1790 -0.2124  0.2460
16595W        W33069   4.125   5.399  14.840 -0.0867 -0.0178 -0.0478
16596W        W33070  16.477   8.557   1.891  0.0967  0.1667  0.1244
16597W        W33071  15.703  14.381  13.217 -0.0231 -0.0067 -0.0372
16598W        W33072   5.660   2.997  14.583 -0.1956  0.0181  0.3328
16599W        W33073  17.514  18.318  16.245 -0.2430 -0.0681  0.2115
16600W        W33074  10.109   2.772  12.612 -0.0184 -0.0615 -0.0630
16601W        W33075   7.593   2.125   2.150  0.0064  0.0744 -0.1037
16602W        W33076  11.871  15.389  13.521  0.0532 -0.0775 -0.0471
16603W        W33077   0.603  13.409   1.474  0.0648 -0.0327 -0.0795
16604W        W33078   9.116  10.350  14.603 -0.0859 -0.0333  0.0299
16605W        W33079  11.628  16.468   1.447  0.0099 -0.3168 -0.4360
16606W        W33080   4.838   0.855   2.015 -0.2497  0.0219  0.0828
16607W        W33081   1.405   5.070   1.421 -0.0541 -0.0847  0.1016
16608W        W33082  16.681  16.201   6.007  0.1323  0.1019  0.2641
16609W        W33083  10.113  15.628  15.575 -0.0803  0.0666  0.1173
16610W        W33084  13.733   2.119  14.580  0.3811  0.0496 -0.1453
16611W        W33085  17.178   3.585  11.417  0.0248  0.2158 -0.2090
16612W        W33086   0.932   3.504  12.296 -0.1855  0.0992 -0.2749
16613W        W33087   7.349   9.718  14.348  0.0956  0.2291  0.0748
16614W        W33088  16.357   7.499  13.922  0.0355 -0.1492  0.0233
16615W        W33089   3.602  17.568  14.590  0.1694 -0.0685  0.0081
16616W        W33090   4.116  12.631   3.257  0.0705  0.3503  0.0488
16617W        W33091   6.270  13.837   2.999  0.1825  0.1958 -0.0599
16618W        W33092  17.260   1.536   2.773 -0.1995 -0.4765 -0.0749
16619W        W33093   8.241  10.002  13.531 -0.0001 -0.2567 -0.0573
16620W        W33094   5.596  14.416  13.405  0.0468 -0.0317  0.0466
16621W        W33095   3.555   1.721   1.966  0.1935 -0.1682 -0.1286
16622W        W33096   7.980  15.314   0.441  0.1424  0.1466 -0.0067
16623W        W33097  15.608  15.052   1.487 -0.1136  0.0919 -0.1558
16624W        W33098  11.193  15.030   5.351  0.3148  0.1470 -0.2410
16625W        W33099  10.175   3.171  12.365 -0.0972 -0.0520 -0.0640
16626W        W33100   4.989  17.360   2.348  0.0579  0.0416  0.0276
16627W        W33101   6.741   2.443  13.492 -0.0928  0.1457  0.1797
16628W        W33102  15.132   0.211   0.870 -0.0790  0.1374  0.4619
16629W        W33103  10.640  13.846   1.920  0.1051  0.1471 -0.1313
16630W        W33104   9.645   6.467   3.193  0.1437 -0.5722  0.1782
16631W        W33105  13.305   6.363  12.817  0.0477  0.1815 -0.0120
16632W        W33106  13.138  12.912  13.311  0.3044 -0.0144 -0.0096
16633W        W33107  11.094  12.507  14.830 -0.2759 -0.1697  0.0087
16634W        W33108   6.073  14.850  14.423 -0.2689 -0.1373  0.2540
16635W        W33109   0.774   0.894  15.054 -0.0826  0.0968 -0.0996
16636W        W33110   1.937  12.313  11.681  0.1142  0.1727  0.1154
16637W        W33111  16.652  17.950  14.628  0.0424 -0.1780 -0.3453
16638W        W33112  14.694   7.555  13.214  0.0723  0.0266  0.3140
16639W        W33113  14.033  15.260   2.537  0.0725 -0.0773  0.0845
16640W        W33114  11.859  13.111   0.252  0.2170 -0.2154 -0.1181
16641W        W33115  15.552   1.026   2.748  0.4019  0.0189 -0.1558
16642W        W33116   9.421  17.817   5.097  0.3071 -0.0979 -0.4209
16643W        W33117  10.031   3.234  11.716  0.0198  0.3233 -0.0872
16644W        W33118   7.667  17.180   2.662  0.1941  0.1655 -0.1255
16645W        W33119   6.070  13.725   3.939  0.1382 -0.2248 -0.1137
16646W        W33120   4.941   7.993   0.376 -0.1477 -0.0470 -0.0154
16647W        W33121  18.246   3.048   2.635 -0.2618 -0.3596 -0.1426
16648W        W33122  12.196   8.309   3.413 -0.1315  0.0380 -0.2909
16649W        W33123   4.775   5.304  14.173 -0.2216  0.0920 -0.3510
16650W        W33124  16.478   9.250   2.668 -0.0961 -0.1839  0.0725
16651W        W33125  15.076  10.866   1.962  0.2328 -0.2262 -0.0646
16652W        W33126  12.385  11.748  13.620  0.2102  0.2057 -0.0700
16653W        W33127   4.036   5.825   1.553 -0.0034 -0.1321  0.0551
16654W        W33128   8.663   5.618  11.511  0.1083 -0.0802  0.1479
16655W        W33129   3.273  11.701  13.545  0.0267  0.2216 -0.1551
16656W        W33130   4.327   6.373  13.093 -0.0797 -0.1315 -0.0092
16657W        W33131  17.537   2.301  15.551  0.0147 -0.0624 -0.0202
16658W        W33132  11.889  16.609   0.552 -0.0335  0.0731 -0.3141
16659W        W33133  15.508   7.488   2.359  0.0507 -0.3073 -0.0381
16660W        W33134  12.123  16.039  12.801 -0.2779 -0.0430  0.1498
16661W        W33135   8.150  15.664  15.937 -0.1740  0.3349  0.0164
16662W        W33136   7.577   8.866  14.453 -0.3791  0.2857  0.1365
16663W        W33137  11.475  12.065   1.320  0.0238 -0.0639 -0.0724
16664W        W33138  15.009   3.229  15.530 -0.1615 -0.0132  0.0327
16665W        W33139  15.647  14.129   0.904 -0.4511  0.1463  0.1545
16666W        W33140  12.672  10.023   3.609  0.4403  0.1344  0.1049
16667W        W33141   0.776  16.389   3.391  0.0387  0.1500  0.2838
16668W        W33142   1.144  15.249  15.928 -0.2270 -0.0562  0.1575
16669W        W33143  11.987  14.936   0.572 -0.0669  0.0279  0.1721
16670W        W33144  12.861   1.547   1.909 -0.0356  0.0382 -0.1067
16671W        W33145  15.120  15.305   3.643 -0.0847  0.0956 -0.2266
16672W        W33146  10.534   7.263  14.753 -0.2866 -0.3387 -0.2699
16673W        W33147  11.412  17.972  12.788  0.0197 -0.0277  0.0423
16674W        W33148  11.219   7.632  15.709  0.0702 -0.1587  0.2193
16675W        W33149   0.795  16.611  15.495 -0.0809 -0.1430  0.0311
16676W        W33150   7.761  17.118  14.504  0.0872  0.2090  0.0635
16677W        W33151   4.747   8.813   2.904  0.2963 -0.1586  0.0659
16678W        W33152   1.518  12.632  11.824  0.0193 -0.1377  0.1460
16679W        W33153   0.622   1.631   4.917  0.2822 -0.2561  0.0530
16680W        W33154   4.217  16.758  14.437  0.1218  0.0765  0.0022
16681W        W33155  13.418   3.231  16.236  0.0048  0.3638  0.1348
16682W        W33156   8.139  11.209  15.867 -0.0048 -0.0943  0.0022
16683W        W33157   3.816  12.609  11.672 -0.0555  0.0790 -0.2041
16684W        W33158  13.481  15.135   1.562  0.1143  0.1265  0.1798
16685W        W33159  14.655  14.511   3.661  0.0869 -0.0515  0.1206
16686W        W33160   3.658   4.486   0.051 -0.3013 -0.2666 -0.1400
16687W        W33161   5.048   5.171   1.547  0.0333  0.1297 -0.4442
16688W        W33162  13.506  17.361   4.436  0.0643  0.1623 -0.2490
16689W        W33163   5.697   9.367   3.507 -0.2246  0.4131  0.1457
16690W        W33164  16.024  12.733   3.597  0.0368 -0.0536 -0.2319
16691W        W33165   2.199   9.596  15.050 -0.1059 -0.0562 -0.0300
16692W        W33166  11.871   0.088   4.951  0.2861 -0.2597 -0.1272
16693W        W33167   2.842  15.211   0.274 -0.0290 -0.1304 -0.1728
16694W        W33168   9.563  16.879  13.523  0.0317 -0.0039 -0.6473
16695W        W33169   1.995  11.304   2.967 -0.2663  0.3082  0.1126
16696W        W33170  14.224  12.890   3.171 -0.4578 -0.0370 -0.1940
16697W        W33171  13.409   4.964  12.498 -0.1453 -0.0668  0.2598
16698W        W33172  13.218   1.281   0.212 -0.0288 -0.0775 -0.3134
16699W        W33173   8.734  12.162   4.261 -0.4989  0.1637 -0.2331
16700W        W33174  12.024  17.755   2.628  0.0482 -0.2305  0.4178
16701W        W33175   0.149   1.121   4.016 -0.1973 -0.1446  0.1791
16702W        W33176   5.690  18.113  11.343 -0.2317 -0.0737  0.1640
16703W        W33177   8.315   8.710  11.489  0.0353 -0.0592  0.0430
16704W        W33178   8.167  13.783  12.638  0.2745  0.0944  0.1099
16705W        W33179  14.271  10.016   3.002  0.0409 -0.0973  0.1304
16706W        W33180  13.305   7.990   4.868  0.0158  0.2863  0.0301
16707W        W33181   7.822  12.492   0.513  0.1417 -0.2907  0.0022
16708W        W33182  12.133   0.569  14.753 -0.1514 -0.2438 -0.1466
16709W        W33183   9.561   5.969  10.387  0.1455  0.2510 -0.1308
16710W        W33184  11.069   3.230   2.036  0.2603  0.0893 -0.4429
16711W        W33185   9.106   5.916   2.479 -0.0986  0.1841 -0.0265
16712W        W33186   8.946  14.679   1.753 -0.3290 -0.1073  0.3285
16713W        W33187   8.640  10.083   5.707 -0.2838  0.1743 -0.0776
16714W        W33188  12.523   2.298   5.183 -0.1078 -0.1605  0.1121
16715W        W33189   0.772   6.699   4.069 -0.0662 -0.1759  0.1797
16716W        W33190  16.943   3.974  11.113  0.2147 -0.0730 -0.2448
16717W        W33191  15.806   2.836   4.989 -0.0705 -0.0152 -0.1119
16718W        W33192  13.707   3.124   2.763 -0.2159 -0.1255 -0.0581
16719W        W33193   0.468   7.533  11.714  0.1230 -0.2378  0.0085
16720W        W33194   9.018   3.403  13.351  0.0366 -0.0846  0.0282
16721W        W33195   1.365  16.612   4.444 -0.1788  0.0436  0.0441
16722W        W33196  17.080  16.853   5.170 -0.0646  0.0897  0.1649
16723W        W33197   4.394  13.554   3.493  0.0281  0.1846  0.2240
16724W        W33198  13.717  17.723  13.067 -0.0970  0.0400  0.3056
16725W        W33199   6.934   5.367   2.944  0.1103  0.0620 -0.0775
16726W        W33200   0.032   7.824  14.949 -0.2387 -0.2459  0.1644
16727W        W33201   1.327   8.460  15.552  0.3009 -0.3712 -0.0572
16728W        W33202  12.667   1.734  13.536  0.1928  0.2564  0.0977
16729W        W33203   7.673  11.516  12.391 -0.0073  0.0454 -0.0831
16730W        W33204  10.212  10.197  11.108 -0.2319  0.0874 -0.0635
16731W        W33205  14.650  10.092   4.372 -0.1739  0.0058 -0.0275
16732W        W33206  12.616  15.251   4.760  0.5089 -0.1715  0.1248
16733W        W33207   7.353   8.328   3.069 -0.0768  0.1518  0.3189
16734W        W33208  13.833  16.055   1.772 -0.1356 -0.0833  0.1374
16735W        W33209   5.397   1.023  13.402  0.0861 -0.0043 -0.4239
16736W        W33210   6.739   5.483  11.835  0.1507 -0.2343  0.0603
16737W        W33211  15.139   7.455   1.237  0.1006  0.0301 -0.0793
16738W        W33212   3.757  16.755   4.787 -0.1436  0.0990 -0.0600
16739W        W33213  15.089   1.475   4.138  0.2094 -0.0970 -0.1624
16740W        W33214   9.259   8.161  11.799  0.1037 -0.0200  0.0690
16741W        W33215   1.531  10.970  11.888 -0.0416  0.1857  0.1077
16742W        W33216  11.233   0.839  11.693  0.0973 -0.0401 -0.0259
16743W        W33217  11.311   7.114   1.517  0.2493  0.1423 -0.1738
16744W        W33218  13.293  13.034  14.275 -0.0962 -0.0084 -0.0434
16745W        W33219  14.342   9.859  13.266 -0.1239 -0.0187 -0.0935
16746W        W33220  11.388  17.571   5.646 -0.0167 -0.1361 -0.3439
16747W        W33221  13.031  14.735   2.920  0.0273  0.3496 -0.0327
16748W        W33222   5.144   9.992   0.276  0.1192 -0.0743  0.0631
16749W        W33223   6.934  10.694   2.556 -0.0059 -0.1893 -0.0883
16750W        W33224  13.138   7.666   5.358 -0.2185  0.2300 -0.2528
16751W        W33225  14.621   4.514  11.865  0.0950 -0.0545 -0.0380
16752W        W33226  14.586   8.239  12.950 -0.0446 -0.1231  0.1052
16753W        W33227  15.854  16.758  16.059 -0.4922 -0.0178 -0.0873
16754W        W33228  15.663   5.765  11.575  0.1595 -0.3006 -0.0662
16755W        W33229   5.817  11.619   1.092 -0.4628  0.2675  0.2945
16756W        W33230  13.959   1.818   0.892  0.0376  0.0949 -0.2057
16757W        W33231  18.189   1.730   4.475 -0.1109 -0.0054 -0.1109
16758W        W33232   3.457  15.150  11.929  0.0304 -0.0895 -0.0765
16759W        W33233   8.166   5.371  13.358 -0.0272  0.1768  0.1874
16760W        W33234  10.672   0.773   3.630  0.1991 -0.4274  0.3879
16761W        W33235   1.667  11.715  15.259  0.3524 -0.2571 -0.0797
16762W        W33236   2.203  13.346   0.029  0.3866 -0.1442 -0.1208
16763W        W33237   1.835   5.394   1.641  0.0393  0.0907  0.2217
16764W        W33238   7.517  17.744   3.862  0.0298 -0.1080 -0.1223
16765W        W33239  10.901   4.826   2.274 -0.0609  0.0313 -0.0591
16766W        W33240  10.556  11.278  13.817 -0.1435 -0.2781  0.2425
16767W        W33241  17.279  18.269  14.192  0.2662 -0.0872  0.1208
16768W        W33242  11.869  10.958  11.666  0.2365 -0.0113  0.1977
16769W        W33243   5.012   0.045  15.721  0.0648  0.3560 -0.0261
16770W        W33244  13.341  16.939   0.170  0.3755 -0.3467 -0.2049
16771W        W33245   4.902   5.617   4.876 -0.0165  0.0167  0.0346
16772W        W33246   7.153   3.228  10.931  0.2512  0.1503  0.0348
16773W        W33247  10.818   2.825   1.821 -0.0652 -0.0740 -0.0010
16774W        W33248  10.196  10.112  12.048  0.4528  0.4142  0.0284
16775W        W33249  14.172  18.198  11.655  0.0898  0.2548 -0.1052
16776W        W33250  10.808  10.272   1.093  0.0416  0.3987  0.1506
16777W        W33251   6.366  13.510  12.074  0.1375 -0.1698  0.0893
16778W        W33252   6.549  16.706  13.156  0.0158 -0.2470 -0.2566
16779W        W33253   1.865   6.030   2.236  0.2691 -0.0055 -0.2047
16780W        W33254   9.851  13.115   6.049 -0.1030 -0.0990 -0.1035
16781W        W33255  10.678  12.885  14.854 -0.1423 -0.1167  0.3492
16782W        W33256  15.130   9.305  15.688 -0.0637  0.2559  0.1951
16783W        W33257  10.320   0.021   2.011  0.0980 -0.1056 -0.0133
16784W        W33258   0.948   0.467  11.316  0.0203 -0.0229  0.3194
16785W        W33259   1.490  15.603   1.182  0.0996 -0.0880  0.0005
16786W        W33260  17.393  14.199   6.316  0.1532  0.0357  0.0722
16787W        W33261  11.126   1.890   5.063  0.1147  0.1824 -0.0841
16788W        W33262  16.439   6.196  12.420  0.1208  0.0959  0.1745
16789W        W33263   3.389  14.090  14.468 -0.0802  0.3068 -0.1065
16790W        W33264  15.858  15.520   3.910  0.0192 -0.2054  0.1513
16791W        W33265   9.983   9.311   1.683  0.0433 -0.1465 -0.1072
16792W        W33266  14.620   3.674   0.546 -0.0245 -0.0103  0.2242
16793W        W33267  13.991   7.939  11.602  0.2529  0.1915  0.0305
16794W        W33268   6.353   1.471  13.123  0.1106 -0.3020  0.1553
16795W        W33269   4.450  16.320  15.459 -0.0700 -0.2901 -0.0596
16796W        W33270   9.627   6.119   3.567 -0.0817 -0.0686 -0.1830
16797W        W33271   3.737  14.945   3.401 -0.0157 -0.0072  0.0422
16798W        W33272   9.833  13.309   3.887 -0.1077 -0.1327  0.3700
16799W        W33273  15.327   7.079  12.326 -0.0056  0.1962  0.0631
16800W        W33274   6.908   3.335   5.042  0.0194 -0.1671 -0.0859
16801W        W33275   9.531  10.925   1.523  0.1254  0.1476  0.0041
16802W        W33276   6.278   1.856   4.609  0.0509 -0.1318 -0.1170
16803W        W33277   8.104   2.797  10.506  0.1244 -0.0712  0.3155
16804W        W33278  16.071  11.954  10.867 -0.0833  0.1378 -0.1667
16805W        W33279   0.422   2.022   1.514 -0.1946 -0.0354  0.0961
16806W        W33280   1.915   1.563  15.878  0.3628  0.1283  0.1552
16807W        W33281  13.058   0.338   1.451 -0.1139 -0.2761 -0.3897
16808W        W33282  13.869  16.456   4.709 -0.1615  0.0357  0.0230
16809W        W33283   4.556   5.372  12.600 -0.2337 -0.1993 -0.0584
16810W        W33284   9.029   3.921   5.610 -0.4140 -0.3185  0.2890
16811W        W33285   5.055  15.469   3.037  0.0656 -0.0703 -0.3175
16812W        W33286  17.695   8.553   3.608 -0.0139 -0.1385  0.3628
16813W        W33287   1.812   7.981  14.993 -0.0164 -0.1036  0.1577
16814W        W33288  16.896   0.013  13.479  0.1819 -0.2525 -0.1636
16815W        W33289   2.100   2.789   2.994  0.0897 -0.4341  0.0661
16816W        W33290  12.388   5.484   1.591 -0.1375 -0.2230  0.0169
16817W        W33291   7.136  12.921  16.309 -0.0393 -0.0102  0.1540
16818W        W33292  10.000  14.525  11.483 -0.2486  0.2780  0.2433
16819W        W33293   2.650  17.501   4.881 -0.0448  0.3201  0.1233
16820W        W33294   7.009   3.198   0.652  0.1759  0.1735  0.1202
16821W        W33295  17.904   6.733  12.790  0.2259  0.0187 -0.0304
16822W        W33296  16.600  11.810  10.610  0.3343  0.1245 -0.2328
16823W        W33297  10.462  14.570  15.596 -0.0476  0.0394  0.0812
16824W        W33298   4.318   2.255   3.730 -0.1697  0.1113  0.1960
16825W        W33299  11.990  14.455   0.329 -0.1071 -0.0755 -0.0590
16826W        W33300   3.686  12.785  12.534  0.4083 -0.3939 -0.1542
16827W        W33301  10.039  18.211   4.694 -0.1821  0.0881 -0.2121
16828W        W33302  15.877  15.803  11.381 -0.0276  0.1988  0.3258
16829W        W33303   6.799   2.527  14.809  0.0902  0.0214  0.2623
16830W        W33304   6.225   9.450   2.634 -0.0521 -0.0200 -0.0374
16831W        W33305   5.998  10.607   0.116  0.0492  0.1899  0.1478
16832W        W33306  14.177  16.692   2.549  0.1189 -0.1093 -0.4460
16833W        W33307   8.801   4.450  16.173  0.0479 -0.1571  0.0736
16834W        W33308  11.099  13.144   0.148 -0.1418 -0.0143 -0.1813
16835W        W33309  15.465  10.991   3.642 -0.1414 -0.1475  0.0609
16836W        W33310  12.162  14.767  14.287 -0.1524  0.1081  0.3299
16837W        W33311   5.486   8.820   4.351 -0.1408  0.0800 -0.4284
16838W        W33312  15.805   4.453   4.292 -0.0661  0.3792 -0.2078
16839W        W33313  11.631   0.788   0.051 -0.0767  0.1977 -0.3180
16840W        W33314  16.627  16.227   3.602  0.0641  0.2158 -0.2340
16841W        W33315   3.383   5.498   3.697  0.3641  0.0860 -0.2775
16842W        W33316   3.764   9.803   1.575  0.1569 -0.0174  0.0812
16843W        W33317   5.700  16.111   1.306 -0.1070  0.0276  0.0213
16844W        W33318   6.743  10.232  11.880 -0.0716 -0.0045  0.1140
16845W        W33319   9.724   4.859   0.511  0.3454  0.1268  0.1673
16846W        W33320  14.140  15.392   1.193 -0.2414  0.0833 -0.2057
16847W        W33321   2.155  15.140   2.677 -0.5134 -0.0458  0.1686
16848W        W33322   9.957   1.172   4.479  0.1378 -0.0144 -0.1015
16849W        W33323   6.133  14.980   0.109  0.3864  0.0189  0.2437
16850W        W33324   6.503  15.284   0.383  0.1145  0.0047 -0.3301
16851W        W33325   3.870  15.794  11.322  0.2980 -0.0898 -0.2821
16852W        W33326   6.947   6.097  13.056  0.4791  0.1085  0.0665
16853W        W33327   8.330  11.733   3.482 -0.2691  0.3361  0.0828
16854W        W33328   2.728   1.229  16.073 -0.0520 -0.1392 -0.1446
16855W        W33329   9.180  15.079  14.839 -0.3806  0.1845  0.0739
16856W        W33330  15.192  10.391   2.690 -0.0508  0.0276 -0.2606
16857W        W33331  17.313   8.948  12.052  0.2035  0.0352 -0.0730
16858W        W33332   5.124   8.363   0.093 -0.0231  0.0891  0.0202
16859W        W33333  18.261   2.335  12.201 -0.2437 -0.1782  0.7154
16860W        W33334   2.519  18.127  12.081 -0.4098 -0.3715  0.4289
16861W        W33335  13.365  10.726  12.956 -0.2795  0.0270 -0.3078
16862W        W33336   8.118  13.339   1.399 -0.0435  0.1911  0.0418
16863W        W33337   9.005   5.841   3.435  0.0046 -0.4589 -0.0872
16864W        W33338   9.174  10.221   2.672  0.0825  0.1435  0.1688
16865W        W33339  16.835   9.826   3.947  0.1744 -0.0394 -0.1171
16866W        W33340  12.625   4.817   2.394 -0.1172 -0.1381 -0.1213
16867W        W33341   7.169  16.126   1.234 -0.1464  0.0712  0.0207
16868W        W33342   2.688  14.919  15.647  0.1260  0.1009  0.1045
16869W        W33343  18.285   2.494  15.712 -0.2998  0.0757 -0.0150
16870W        W33344  12.843  16.777  12.601 -0.1363 -0.3032  0.1850
16871W        W33345  18.301  14.240   4.052  0.1289  0.0256  0.0974
16872W        W33346   5.518   6.384  14.468 -0.3373  0.1723 -0.0787
16873W        W33347   2.123   3.034  14.645  0.0034 -0.1060 -0.1411
16874W        W33348   1.607   9.030  15.013  0.2647  0.0218 -0.0763
16875W        W33349   7.513   7.805   5.267 -0.0479  0.1053 -0.0786
16876W        W33350  16.002   8.952  11.234 -0.1609  0.1405  0.1011
16877W        W33351   6.128  17.830  11.152  0.1304  0.1458  0.0260
16878W        W33352  17.824   6.659  12.230  0.2181 -0.0359  0.0120
16879W        W33353  18.192  16.674  12.301  0.1122  0.2696 -0.1801
16880W        W33354   9.853  13.395   1.645  0.1833  0.0066 -0.2821
16881W        W33355  11.031  13.444   3.690  0.1028  0.0636  0.1911
16882W        W33356  14.646   2.334  12.977  0.2365 -0.1800  0.0254
16883W        W33357  14.068  11.185   5.063  0.3976 -0.2978 -0.1280
16884W        W33358  14.217   1.601   3.055 -0.1610 -0.2792 -0.3743
16885W        W33359   2.830  12.098  12.211 -0.2381  0.0631  0.2328
16886W        W33360  11.010   0.094  13.928  0.2081  0.2589  0.1773
16887W        W33361   2.554   4.997  12.567 -0.0472  0.0892 -0.0777
16888W        W33362   6.909   5.218  12.772  0.1518 -0.0031  0.3755
16889W        W33363   0.768   4.076  10.963 -0.2317  0.2422  0.1036
16890W        W33364  11.061   8.245  13.309 -0.1917 -0.2499  0.3080
16891W        W33365  13.720  17.116   6.101  0.0366  0.0730 -0.1567
16892W        W33366   6.106   5.175   2.873 -0.1668  0.1134  0.0236
16893W        W33367   6.396  12.242   3.353  0.1781  0.1897  0.1085
16894W        W33368   7.102   3.273  15.950 -0.1952  0.0921 -0.2162
16895W        W33369  17.173   5.208  14.055  0.2532  0.1977  0.2707
16896W        W33370   8.371   1.618   3.720 -0.5078  0.0191  0.2435
16897W        W33371  11.027   5.354  15.049 -0.0108  0.1025 -0.1343
16898W        W33372  11.824   9.473   4.343 -0.0222 -0.1821  0.0417
16899W        W33373  14.011  18.194   2.806  0.2001 -0.1141 -0.0772
16900W        W33374   1.838   8.373   2.474  0.1740  0.4849  0.1252
16901W        W33375  10.110   9.760   4.917  0.1440  0.3102 -0.0450
16902W        W33376  17.582   1.023   2.610 -0.1240  0.0518  0.1484
16903W        W33377   2.126  15.619   4.688  0.0070 -0.0080  0.4466
16904W        W33378   0.004  13.451  14.294  0.2592  0.0461 -0.0254
16905W        W33379  10.236   7.013   4.987 -0.2170  0.1304  0.0718
16906W        W33380  17.538  10.497  13.898 -0.2381  0.4238  0.1265
16907W        W33381   7.693   2.918   4.887  0.0769 -0.2935  0.0622
16908W        W33382   0.776   4.152   3.200 -0.0686 -0.1356 -0.1275
16909W        W33383  17.426  16.795  13.053  0.0395  0.0753  0.2942
16910W        W33384   6.327  16.854   2.404  0.1859 -0.3775 -0.3210
16911W        W33385   2.576   5.234  14.031  0.0123 -0.0369  0.2635
16912W        W33386   3.283   9.629  15.908 -0.0748  0.1721 -0.2432
16913W        W33387   1.828  18.246   1.714 -0.0466  0.5331  0.1058
16914W        W33388   5.397  10.009   1.644  0.0372  0.0293 -0.1513
16915W        W33389   4.564   0.034   2.444  0.0618 -0.1794  0.1499
16916W        W33390   9.468   4.119   0.018  0.1047  0.1489 -0.1774
16917W        W33391   8.800  14.377   4.796 -0.1167 -0.0604  0.1887
16918W        W33392  13.466   3.416  12.448  0.0696 -0.1577  0.2472
16919W        W33393   3.960   7.354  13.257 -0.1565  0.3349  0.1806
16920W        W33394   9.658  13.702  15.767 -0.1017  0.0666 -0.0513
16921W        W33395   7.563   0.932  10.428  0.1037  0.0467 -0.0530
16922W        W33396   3.953   4.928   2.414 -0.4089 -0.0239  0.0726
16923W        W33397  10.051   1.726  12.738 -0.0220  0.0143  0.1001
16924W        W33398   8.534  15.431   2.085 -0.0025  0.2128 -0.1727
16925W        W33399   1.398  16.845   3.991 -0.2841 -0.1030 -0.0839
16926W        W33400   0.518  10.938  14.885 -0.1178  0.0040  0.4533
16927W        W33401   7.375   6.949  12.020 -0.2122  0.3199 -0.1388
16928W        W33402   3.925  13.992   1.573  0.2331  0.0342  0.1628
16929W        W33403   9.570   4.577   2.929  0.1920 -0.1135 -0.0284
16930W        W33404  12.044  14.488   0.828  0.2110 -0.1582 -0.3092
16931W        W33405  16.344  11.527  12.706 -0.1145 -0.1074 -0.0774
16932W        W33406  12.617   2.888   0.412 -0.1961  0.1227 -0.0503
16933W        W33407   6.837  12.560   3.226  0.2086 -0.3906  0.1061
16934W        W33408   8.781  12.687   1.352  0.3301  0.1008  0.1260
16935W        W33409   8.350   6.463  16.327  0.2959  0.0200 -0.2485
16936W        W33410   2.955   3.707   4.386 -0.0921 -0.2563 -0.1298
16937W        W33411   3.200   0.847   2.889 -0.1057  0.1922  0.0666
16938W        W33412   1.603   0.793   2.225 -0.0839  0.1158  0.0477
16939W        W33413  12.867   4.278  12.214 -0.2702  0.1635  0.0369
16940W        W33414   6.582   2.662   0.100  0.0821 -0.0162 -0.0030
16941W        W33415   5.372  13.457   1.716 -0.0289  0.2936  0.3177
16942W        W33416  17.695   4.214   5.018  0.1709  0.2645 -0.1945
16943W        W33417   9.105  14.360   4.375 -0.0451  0.5856 -0.1842
16944W        W33418  10.039  15.833  14.209 -0.1311 -0.1577  0.3740
16945W        W33419  10.920   0.665  15.293 -0.0402  0.1519 -0.0383
16946W        W33420   5.435   6.340  12.555  0.2892 -0.0068 -0.1420
16947W        W33421   4.984  14.112   3.289  0.0100 -0.1947 -0.3118
16948W        W33422  12.484  13.748   3.966 -0.0395 -0.0479  0.4671
16949W        W33423  16.475  14.750   0.517  0.0440  0.4479 -0.0174
16950W        W33424   4.512   1.688  12.135  0.0962 -0.2675 -0.2108
16951W        W33425   9.517   6.703   1.039  0.0151 -0.0482 -0.3378
16952W        W33426   3.661  17.680   1.228 -0.0770  0.0270  0.1827
16953W        W33427  17.673   0.876   0.212 -0.0768 -0.1210 -0.0243
16954W        W33428  10.916   5.287   4.445 -0.1878 -0.2159 -0.0329
16955W        W33429  12.334  13.448  15.852  0.4967  0.2509  0.0056
16956W        W33430   1.310   8.043   2.285 -0.0826 -0.0026  0.0607
16957W        W33431  15.374  15.768   0.060  0.1180  0.0683  0.2788
16958W        W33432  15.924   2.043  15.318 -0.2405 -0.0936  0.2067
16959W        W33433   7.866  12.764  12.652  0.1520 -0.1719 -0.0952
16960W        W33434   8.848   4.643  15.655  0.0757 -0.0199 -0.2218
16961W        W33435   3.559  17.479   2.495  0.2194 -0.0989 -0.2269
16962W        W33436   9.112  15.654  13.851 -0.1733 -0.0146 -0.0446
16963W        W33437   8.427   2.826   2.342  0.0791  0.0352 -0.1110
16964W        W33438   5.117   6.218   3.838  0.1117 -0.0778 -0.0826
16965W        W33439  18.007   4.916  12.386 -0.0547  0.0716  0.0318
16966W        W33440   9.258   5.282   1.038 -0.1283  0.0302  0.0885
16967W        W33441  17.620   4.317   4.080  0.0262 -0.1507 -0.1252
16968W        W33442  16.453  16.837   2.552 -0.0034  0.1555 -0.0570
16969W        W33443   3.261  11.400   0.748 -0.1177  0.0089 -0.0337
16970W        W33444  10.508   7.967   4.175  0.1812  0.3481  0.1071
16971W        W33445  13.165  14.839  14.206  0.1468  0.2444  0.0312
16972W        W33446  10.993  15.863   2.543  0.0102 -0.0153  0.1265
16973W        W33447  14.726   1.710   1.577  0.0462 -0.0397  0.2420
16974W        W33448   1.450   0.101  15.816 -0.2162  0.0379  0.2077
16975W        W33449   8.019   2.010  15.161 -0.2100 -0.0719 -0.2687
16976W        W33450   6.458  16.108   4.954 -0.0342 -0.1393  0.1339
16977W        W33451   8.040   9.476  13.739  0.1285  0.1937  0.1974
16978W        W33452   0.176   1.701  13.569  0.2245 -0.2414 -0.1079
16979W        W33453  12.870  11.222  15.029  0.0065  0.0734 -0.1499
16980W        W33454  15.774  13.687  11.935 -0.0320 -0.2393 -0.0993
16981W        W33455   0.618   2.956   1.291  0.2219  0.1238  0.0059
16982W        W33456  15.990   2.021  14.266 -0.2190 -0.1034  0.1147
16983W        W33457  16.124   6.239  13.955 -0.1261 -0.0704 -0.0454
16984W        W33458   1.133   3.621  10.922 -0.1479  0.1309 -0.1572
16985W        W33459   5.066  17.054  16.188 -0.0341  0.1469  0.2635
16986W        W33460  18.217   5.891  13.121 -0.1638 -0.0546 -0.0858
16987W        W33461  14.994   9.969  11.469  0.4579 -0.0895  0.1297
16988W        W33462   5.268   2.717   2.205 -0.0313 -0.3251 -0.1940
16989W        W33463  13.364  17.986  13.309 -0.0069  0.1141  0.0757
16990W        W33464  14.398   4.668   4.420 -0.0239 -0.0852 -0.1539
16991W        W33465  17.830  12.070  11.228  0.0629  0.0721  0.2508
16992W        W33466  15.427   2.044   5.405 -0.3757 -0.1125 -0.0469
16993W        W33467  18.261  17.223   4.561  0.2116 -0.0984  0.1872
16994W        W33468   7.495   8.128  12.090 -0.0703 -0.2417  0.1001
16995W        W33469   4.183   2.031   2.654 -0.1803 -0.1364 -0.0908
16996W        W33470   8.737  10.504  11.658  0.2319 -0.0406 -0.1087
16997W        W33471   0.300  13.093  15.221  0.0783 -0.2414 -0.0852
16998W        W33472   6.947  15.450   4.073 -0.0986  0.1442  0.2459
16999W        W33473   5.257   7.466   2.929  0.1827 -0.1508 -0.2442
17000W        W33474   9.488  14.881  11.951  0.0695  0.0256  0.4839
17001W        W33475   0.406   2.435  15.591 -0.1177 -0.3428  0.0215
17002W        W33476  17.197  14.401   0.599  0.0198  0.2080 -0.0914
17003W        W33477   3.206   0.609   3.698  0.1245  0.0207 -0.1953
17004W        W33478   0.388   2.321   4.144  0.1303  0.0279 -0.2058
17005W        W33479   6.170  16.530  15.579  0.0071 -0.0831 -0.3513
17006W        W33480  11.861  15.916   4.575  0.1382  0.1847  0.1185
17007W        W33481  10.194  16.025   2.460 -0.1752 -0.1380 -0.1654
17008W        W33482   4.339   4.295  14.426 -0.0931 -0.0623 -0.1033
17009W        W33483   4.518   3.361   2.023 -0.1528  0.2781 -0.3980
17010W        W33484   4.309  15.374  15.252  0.0664 -0.2569 -0.0885
17011W        W33485  14.680  18.005   4.085 -0.3358 -0.0900 -0.0669
17012W        W33486  15.423  11.807  12.482 -0.0049 -0.1186 -0.0915
17013W        W33487   7.477  11.044  12.069  0.1228  0.2373  0.0550
17014W        W33488   9.306  17.415  14.862  0.0545  0.1280 -0.2869
17015W        W33489  13.342  11.559   1.723  0.3290 -0.0799  0.0623
17016W        W33490   4.838  10.133  12.773 -0.1299  0.1701  0.0447
17017W        W33491  10.680  16.050   0.837  0.2283  0.1440  0.0685
17018W        W33492   7.037  12.700   6.279 -0.1104 -0.4697  0.0260
17019W        W33493   2.973   6.717   1.316  0.0522  0.3175  0.0349
17020W        W33494   5.891   8.004  16.020 -0.2779 -0.1917  0.2051
17021W        W33495  17.437   2.830   3.831 -0.0784  0.0370 -0.3141
17022W        W33496   8.796   6.154  15.494 -0.0778  0.1356  0.0382
17023W        W33497   8.378  16.931   3.270 -0.1450 -0.2878  0.1973
17024W        W33498   5.040   9.684   1.926 -0.2594  0.3863  0.1720
17025W        W33499   2.382  11.274  11.035  0.1690 -0.0184 -0.1514
17026W        W33500   1.104  17.044   1.313  0.0632 -0.1347 -0.1070
17027W        W33501   1.032   2.443  14.938  0.4095 -0.2827 -0.2529
17028W        W33502   7.132   7.716  14.642 -0.0966  0.0411 -0.0054
17029W        W33503   1.228   0.110   3.310  0.1632 -0.0572  0.2294
17030W        W33504   3.654   9.855   3.158 -0.1079 -0.1093 -0.3550
17031W        W33505  15.671   2.596   1.054  0.1206  0.3043  0.1015
17032W        W33506   4.588   7.548   2.720 -0.2379  0.2336 -0.1066
17033W        W33507  15.902  11.324   2.109  0.0940  0.1257  0.2181
17034W        W33508  14.949  17.030  13.568 -0.1003 -0.0205 -0.0876
17035W        W33509   4.481  12.290   1.387 -0.0057 -0.2440 -0.1225
17036W        W33510  13.412   5.794  11.560  0.1700 -0.2098 -0.0307
17037W        W33511   2.582   1.664   5.911 -0.0777 -0.1068 -0.1576
17038W        W33512  15.646   6.689  12.279 -0.0504 -0.1300 -0.2812
17039W        W33513  13.449  14.840   4.978 -0.1338 -0.2751  0.1379
17040W        W33514   1.005  13.833  12.094 -0.1625  0.2268 -0.1323
17041W        W33515  14.768   0.006   4.492  0.3064  0.0805 -0.1207
17042W        W33516   6.078  13.544   0.824 -0.2156  0.2560  0.1808
17043W        W33517  15.081   6.207  13.919 -0.0717  0.0211 -0.2078
17044W        W33518   9.147   4.091   1.036  0.0593 -0.0416 -0.1683
17045W        W33519  10.490   1.824   4.393  0.3411 -0.1722 -0.0576
17046W        W33520   3.933  13.190  15.927 -0.1328 -0.1664 -0.1055
17047W        W33521   2.237   1.317   3.903  0.3807  0.0832  0.1158
17048W        W33522  17.904  12.944   3.689  0.0883 -0.0942 -0.0196
17049W        W33523  13.375  15.537  13.503  0.1024  0.1041  0.4636
17050W        W33524   0.337  17.540   1.038  0.1496 -0.0114 -0.0810
17051W        W33525   7.524  14.294  15.551  0.1119 -0.0992  0.2631
17052W        W33526  13.187  10.522  12.145 -0.1294 -0.2013  0.0445
17053W        W33527   2.506   7.125  11.017 -0.0149  0.1968  0.1298
17054W        W33528  11.885   0.595   0.955 -0.1599  0.1298  0.0288
17055W        W33529  10.022  11.083  12.069  0.3368 -0.0518  0.2452
17056W        W33530  18.127   2.490   1.318 -0.0024 -0.2886 -0.0665
17057W        W33531   8.570   1.638   2.240 -0.0399  0.4415 -0.2534
17058W        W33532   2.045  13.107  10.810 -0.2295  0.1382 -0.0146
17059W        W33533   9.147  16.242  16.187  0.1248  0.0028 -0.0542
17060W        W33534   9.225  17.521   5.467  0.0753 -0.1284 -0.0417
17061W        W33535  14.481  13.128   4.811  0.0621  0.2436  0.1562
17062W        W33536  12.235   2.932   5.849 -0.0790 -0.1001  0.0149
17063W        W33537   2.820   6.844   2.303 -0.0680 -0.1375 -0.1261
17064W        W33538  12.458   4.319   1.575 -0.1820 -0.2078  0.0391
17065W        W33539   1.846   8.438  15.692  0.1595  0.0011 -0.0612
17066W        W33540   8.154  14.970  11.689  0.0783  0.1934  0.1778
17067W        W33541   7.439   6.798  12.608 -0.4681 -0.1056  0.1177
17068W        W33542  15.470  14.818  11.274 -0.3827  0.1711 -0.0775
17069W        W33543   2.004   2.823   4.722  0.0714  0.1092  0.1198
17070W        W33544   0.729  16.511   0.847 -0.4653 -0.1386  0.2898
17071W        W33545   7.204  14.816   0.702 -0.0958  0.3643 -0.1221
17072W        W33546   2.983   2.174  14.737 -0.0271  0.0614 -0.0542
17073W        W33547   1.456   8.182  13.958  0.0048 -0.0143 -0.1221
17074W        W33548  16.531  11.830   4.312  0.0473 -0.0209 -0.1127
17075W        W33549  11.781   4.575  13.160 -0.0562 -0.4192  0.3209
17076W        W33550   8.040  11.369   5.234  0.0917  0.1312  0.3488
17077W        W33551  15.557  17.925  14.015 -0.1989  0.2087 -0.0504
17078W        W33552   8.661   1.239   3.464  0.0050 -0.0801 -0.1216
17079W        W33553  10.964   7.592   0.796  0.0283 -0.0052  0.1011
17080W        W33554   2.750  16.941  14.733 -0.2129  0.0917 -0.3023
17081W        W33555   5.818   6.515  15.726 -0.0096 -0.1337 -0.2402
17082W        W33556   7.380   0.347   1.025  0.1002  0.1733  0.2322
17083W        W33557  17.951  17.979  11.683  0.3392 -0.1956 -0.0677
17084W        W33558   9.982   7.662   5.130 -0.1416  0.0431  0.2321
17085W        W33559   4.728  17.236  13.560  0.1138 -0.1688 -0.0828
17086W        W33560   3.817  14.595  15.277  0.1013  0.0659 -0.1003
17087W        W33561  14.061   5.457   5.008 -0.2906 -0.2719  0.0772
17088W        W33562   4.615   7.336  14.423 -0.1032 -0.0202  0.1288
17089W        W33563   3.517  13.891  13.310  0.1183 -0.1858 -0.0512
17090W        W33564   3.588  16.992  14.454  0.2179  0.2394 -0.4802
17091W        W33565  11.797   8.769   0.635 -0.4518  0.5473 -0.0486
17092W        W33566  18.150  15.761  15.878 -0.2155 -0.0190  0.2307
17093W        W33567  12.999   2.051  13.890 -0.1439  0.0346  0.0886
17094W        W33568  17.536  15.362  11.845  0.1642  0.2050 -0.2194
17095W        W33569  17.246  14.824  11.906 -0.1790  0.1523 -0.1382
17096W        W33570  14.151   6.146  14.056  0.0309 -0.0060 -0.0924
17097W        W33571  10.900  12.927  11.851 -0.0439 -0.2375 -0.0614
17098W        W33572  17.229  11.242  12.976 -0.1701  0.0251  0.1506
17099W        W33573  16.860   7.608   0.517 -0.0940 -0.0496 -0.3878
17100W        W33574   7.615   4.845   1.711 -0.1481 -0.3190 -0.0741
17101W        W33575  13.401   3.182   0.825  0.2087  0.3716  0.2724
17102W        W33576   6.923  14.509   2.712 -0.1093  0.1302 -0.0972
17103W        W33577   0.125  17.882  11.933  0.0596  0.0530 -0.3038
17104W        W33578   3.621   9.619  12.193 -0.1420  0.1188  0.2382
17105W        W33579  10.009  15.235   2.134 -0.4071 -0.1366 -0.1491
17106W        W33580   0.368   3.371   2.575 -0.2325 -0.0181 -0.0695
17107W        W33581   1.061   8.737   0.640  0.1810 -0.2255 -0.0495
17108W        W33582  15.102   2.211   1.246  0.2548 -0.1783  0.0061
17109W        W33583  13.716   0.105  12.615  0.3653 -0.0127  0.0785
17110W        W33584   1.133   5.179  15.205  0.0651  0.1831  0.1529
17111W        W33585   1.736  18.032   4.305 -0.0767  0.2131 -0.0863
17112W        W33586   0.406  16.584   3.005 -0.1290 -0.1348 -0.1246
17113W        W33587  17.665   4.904   2.359  0.0232  0.2000 -0.0152
17114W        W33588   5.024   8.813  14.427 -0.3112  0.0302 -0.0052
17115W        W33589   9.112  11.685  12.428 -0.3275  0.3876 -0.2712
17116W        W33590   4.660   9.844   0.058 -0.1269  0.0497 -0.0126
17117W        W33591  14.383   2.641  15.331  0.0616 -0.2025 -0.0681
17118W        W33592   0.663   7.999  16.075 -0.0899  0.0006 -0.0340
17119W        W33593  14.438   2.127   5.124  0.1758 -0.2519  0.2524
17120W        W33594  13.656  10.995  15.419  0.0422  0.2388 -0.2742
17121W        W33595  15.677  15.765  14.579  0.0990  0.5381 -0.1320
17122W        W33596   4.904  10.567  14.594  0.3853 -0.5308  0.1117
17123W        W33597  14.875   1.038  11.151  0.1619 -0.1751  0.1602
17124W        W33598  11.546   7.778  15.326  0.0198  0.0205  0.2721
17125W        W33599  13.938   8.508   3.005  0.0721 -0.0073 -0.1715
17126W        W33600   0.468   9.397   2.769 -0.4004 -0.0811  0.0815
17127W        W33601   3.442   4.483  14.885 -0.2477 -0.0943  0.2044
17128W        W33602   6.903   2.758   4.246  0.0287  0.1773  0.0215
17129W        W33603   0.212   6.842   1.920  0.1698  0.0335 -0.0744
17130W        W33604  14.706   9.101  15.004 -0.0565  0.2369  0.0439
17131W        W33605   7.202  17.212   4.977 -0.0558  0.0611 -0.0934
17132W        W33606  11.271  16.117   0.292  0.1346  0.0155 -0.0078
17133W        W33607   2.301  17.142  13.018 -0.2239 -0.0210 -0.1710
17134W        W33608  11.269  15.387   3.404 -0.0313 -0.1250 -0.1291
17135W        W33609   1.320   7.125   5.071  0.3923 -0.3345  0.1984
17136W        W33610   7.214  13.364  12.051 -0.0829  0.0394  0.1032
17137W        W33611   5.150   2.350  13.721 -0.1543  0.1550  0.1251
17138W        W33612  11.311  15.705   4.678  0.0330 -0.0548 -0.3953
17139W        W33613  10.691   7.515   3.412  0.0241  0.3179 -0.0476
17140W        W33614   7.362  13.296  15.307  0.3017  0.1981 -0.0851
17141W        W33615  13.222  17.202   4.837 -0.0164  0.1759  0.2216
17142W        W33616  17.739  14.994  12.310 -0.0370 -0.0363  0.2138
17143W        W33617  11.627  10.042   4.328  0.4365 -0.3064 -0.0566
17144W        W33618   3.826   6.008   4.348  0.2597 -0.0110  0.2653
17145W        W33619  17.825   8.633  14.162  0.0028 -0.0497 -0.1677
17146W        W33620   8.894  16.041  10.769 -0.1831  0.1923 -0.1088
17147W        W33621  18.065  10.428  15.014 -0.2021  0.0162  0.0383
17148W        W33622   5.113   1.725  15.763 -0.0664 -0.1725 -0.0621
17149W        W33623   2.545   0.632   2.195  0.0470  0.1938 -0.1629
17150W        W33624   4.359  10.871   2.602 -0.1736 -0.0017 -0.2015
17151W        W33625   3.003  16.790   2.654 -0.1167 -0.3143  0.0694
17152W        W33626  12.532   9.908  14.521  0.0616 -0.0656  0.0350
17153W        W33627   4.285  15.930   4.251  0.0327 -0.0264 -0.1839
17154W        W33628   0.973  17.119  12.462 -0.2418  0.3594 -0.2632
17155W        W33629   3.200  10.479   0.690 -0.1431  0.0429 -0.0640
17156W        W33630   1.542   1.600   3.955  0.0824  0.5047 -0.0170
17157W        W33631  11.656   7.921   4.223  0.1122  0.1473 -0.1597
17158W        W33632   7.440  16.257   2.164  0.0520 -0.2160  0.0282
17159W        W33633  14.936  12.806   0.961 -0.2136 -0.3429 -0.1557
17160W        W33634  15.542  13.960   0.350  0.0982 -0.1394 -0.1245
17161W        W33635   6.121  14.119  12.801  0.0581 -0.1894 -0.1134
17162W        W33636  11.711   3.816  14.670 -0.0927 -0.2652  0.1503
17163W        W33637   7.351   2.467  15.539 -0.0856  0.2175 -0.2647
17164W        W33638  16.695   0.347  15.660 -0.0708  0.0724  0.0831
17165W        W33639  12.841   8.472   3.468 -0.3364 -0.0909  0.1896
17166W        W33640   2.937   2.381   3.667  0.0464 -0.1027  0.0933
17167W        W33641   1.357  17.496   1.149 -0.0824  0.0035  0.0282
17168W        W33642   6.973  16.800  15.654 -0.2072 -0.0748  0.1012
17169W        W33643  16.261   2.992   0.404 -0.0974 -0.2227  0.1176
17170W        W33644  10.925  15.047  11.719  0.1232  0.2524 -0.0708
17171W        W33645   5.459   9.025   1.851  0.0934  0.1514  0.0287
17172W        W33646   8.863   0.616  14.445  0.0515 -0.0746  0.0261
17173W        W33647   2.612   8.365  14.386  0.1623  0.4093 -0.1069
17174W        W33648   9.769   7.117   5.065 -0.0337  0.1072 -0.0084
17175W        W33649  11.093  14.024   5.076 -0.0258 -0.0152 -0.0595
17176W        W33650  14.700   6.125   3.196 -0.0319  0.0548  0.0654
17177W        W33651   8.485  12.772   5.607  0.1213 -0.0951  0.1475
17178W        W33652   6.891   3.727  12.243 -0.1260 -0.1030  0.0032
17179W        W33653  17.947  12.190   6.197  0.1084 -0.1103  0.4605
17180W        W33654   3.110   1.453   0.386  0.3313  0.0115 -0.0453
17181W        W33655  10.483   8.260  16.307  0.0843  0.0261 -0.6136
17182W        W33656   6.524   9.806  14.576  0.2416  0.0916  0.2542
17183W        W33657   9.418   1.809  13.488 -0.4286 -0.1688 -0.0015
17184W        W33658  13.353   6.851  15.838 -0.1211 -0.1875  0.0084
17185W        W33659   2.502   3.933  13.428 -0.1724  0.0169 -0.0881
17186W        W33660  10.563   5.649   4.513 -0.1074  0.1698  0.1373
17187W        W33661   8.136   9.579  13.273 -0.0636  0.1298 -0.1446
17188W        W33662   7.421  17.518  12.224 -0.0271 -0.0583  0.3857
17189W        W33663  13.595  18.126   0.385  0.1262 -0.0423 -0.3985
17190W        W33664   4.976  14.204   2.283 -0.2923 -0.3521 -0.0229
17191W        W33665   7.455   5.997  15.516 -0.3737  0.0310 -0.1606
17192W        W33666   7.573  11.471   4.042 -0.0638  0.2838  0.0366
17193W        W33667   2.672   4.089   4.576 -0.1934 -0.1801 -0.1645
17194W        W33668   4.768   4.438  12.002 -0.1341  0.3739  0.2931
17195W        W33669   9.845   6.280   0.152 -0.3907 -0.2479  0.0394
17196W        W33670   6.739  15.905  15.575  0.0886  0.2172 -0.0154
17197W        W33671   1.832   0.191   1.329  0.0753  0.0129 -0.0846
17198W        W33672  12.047   9.701  14.543  0.1282 -0.2034  0.1567
17199W        W33673  11.365   5.501  13.027 -0.0992  0.0202  0.0552
17200W        W33674  12.445  14.716  13.006  0.1698 -0.2119 -0.1262
17201W        W33675   6.582  13.027   4.267 -0.0224  0.0517  0.3385
17202W        W33676   2.714  14.856   0.602 -0.0088  0.1186  0.0474
17203W        W33677  17.991  10.265   2.889 -0.0810  0.6327  0.1280
17204W        W33678  11.912   4.910  14.940 -0.1641 -0.0029  0.1653
17205W        W33679   9.015   8.179  12.410 -0.2055  0.1596 -0.1512
17206W        W33680   3.315   6.847  15.257 -0.0013  0.0296 -0.0444
17207W        W33681  13.864   7.927  14.966 -0.0032 -0.0786  0.1408
17208W        W33682   3.010  17.419  11.529  0.0901  0.0537 -0.0321
17209W        W33683  12.617   0.237   3.823 -0.1543 -0.1767 -0.1555
17210W        W33684   7.227  14.243   0.798  0.0845 -0.3053  0.0987
17211W        W33685   7.539  12.945  11.834  0.1111 -0.2303 -0.0897
17212W        W33686  14.950  12.497   2.190  0.0157 -0.2772  0.1722
17213W        W33687   5.912  16.251   4.273 -0.2111  0.1851 -0.1543
17214W        W33688  17.875   7.847   0.957 -0.0526  0.0716 -0.1813
17215W        W33689   4.750  14.405  15.313 -0.0819  0.1812 -0.0105
17216W        W33690   0.277   2.010  11.184  0.2664 -0.1460 -0.0837
17217W        W33691  18.268   9.961   0.035 -0.1629  0.1412 -0.0160
17218W        W33692   7.666  13.958  15.904 -0.2552  0.1324 -0.0316
17219W        W33693   8.700  14.584   2.563  0.2308  0.0590 -0.2433
17220W        W33694   9.533  14.078  15.385  0.1044 -0.1286  0.1504
17221W        W33695  12.272  16.623   4.064  0.0655  0.0434 -0.2083
17222W        W33696   2.246  15.600   0.855  0.3030  0.1738 -0.2378
17223W        W33697   4.241   6.741   0.369 -0.0589 -0.2810 -0.0246
17224W        W33698   5.498  16.128  15.600 -0.2648 -0.1046 -0.0793
17225W        W33699  15.585   6.437   2.433 -0.0865 -0.0483 -0.2540
17226W        W33700   7.691   3.889  16.155  0.0956  0.0898 -0.0245
17227W        W33701   7.295   2.038  10.955 -0.0304 -0.0309  0.2722
17228W        W33702  12.184   3.505  13.732 -0.4223 -0.1544  0.0350
17229W        W33703   8.592   9.283  11.196  0.2512 -0.1978  0.3165
17230W        W33704  12.150   6.325  15.447  0.3398  0.0283 -0.0380
17231W        W33705   4.699   3.937   2.923 -0.2970  0.0066  0.0400
17232W        W33706  14.951   9.206   3.951 -0.3460 -0.1744  0.2748
17233W        W33707   4.927   2.465  11.753 -0.3461  0.2145  0.2735
17234W        W33708   9.925   1.847  11.650 -0.3314  0.2750 -0.0714
17235W        W33709   5.803   6.984   0.244  0.2250  0.1314  0.1361
17236W        W33710  17.637   7.927  12.093  0.0246 -0.0638 -0.1006
17237W        W33711  14.784   4.955   4.728 -0.1765  0.1715 -0.0312
17238W        W33712   3.405   3.362   5.258  0.0739 -0.1867  0.2345
17239W        W33713   2.792  17.698  16.131  0.1566 -0.4476 -0.0697
17240W        W33714   6.946   2.452  11.866 -0.2882 -0.0301 -0.0236
17241W        W33715   2.541  16.399   2.517  0.1073 -0.1501 -0.1170
17242W        W33716  15.048   1.357   1.146  0.1024  0.3687  0.4551
17243W        W33717  13.922   8.601  13.674  0.2514  0.0029  0.0193
17244W        W33718   9.792  15.601   0.328  0.0969  0.0916 -0.1394
17245W        W33719  12.082   2.490  12.689 -0.0052 -0.1969 -0.2692
17246W        W33720  16.201   0.699  13.554  0.1304 -0.3776  0.0086
17247W        W33721   6.747  14.806   0.611  0.2727 -0.1224  0.0164
17248W        W33722  10.225  14.233   5.798  0.2480  0.1156 -0.1921
17249W        W33723  12.155  16.209  14.553  0.4163  0.2592  0.0681
17250W        W33724  13.038   6.971  12.169  0.0921 -0.2980 -0.0907
17251W        W33725   9.486  15.216  11.588 -0.0213  0.0462  0.2059
17252W        W33726   4.578  15.222   3.603 -0.0160  0.1116  0.0793
17253W        W33727  10.515   3.702   1.479 -0.2607  0.1568 -0.0446
17254W        W33728  11.496  13.397   0.043 -0.2103 -0.1888 -0.0982
17255W        W33729  16.240  17.472  15.366 -0.2120 -0.3963 -0.0924
17256W        W33730   6.838   7.234   6.304 -0.0142  0.1612  0.1464
17257W        W33731  14.046   1.386   2.244 -0.0541  0.3713 -0.0325
17258W        W33732   2.073   0.385  11.310  0.2694  0.4281 -0.0156
17259W        W33733  13.615  13.440  11.433  0.0987  0.3219  0.1943
17260W        W33734  18.226  16.287  13.212 -0.2360 -0.3405 -0.0705
17261W        W33735   2.378   6.910  15.327  0.0181  0.2077 -0.2813
17262W        W33736   1.585   2.344  11.665  0.0963  0.0821 -0.0989
17263W        W33737  17.406  13.313   1.792 -0.2811 -0.0695 -0.0425
17264W        W33738   1.777  13.375  16.104  0.0817 -0.1647  0.0720
17265W        W33739   6.724   6.295  15.969 -0.3662 -0.0039  0.1765
17266W        W33740  16.501  12.003  11.612  0.1748 -0.3752 -0.0393
17267W        W33741  16.601  16.175  11.356 -0.3288 -0.0421 -0.1946
17268W        W33742   1.969  14.013  15.216 -0.0090  0.1675  0.0781
17269W        W33743  14.594  17.564  13.096  0.0654 -0.1044 -0.2169
17270W        W33744  17.419   5.664   4.997  0.1904  0.2207 -0.1083
17271W        W33745   6.862  10.830  14.783  0.1077  0.0433 -0.1803
17272W        W33746  13.699   2.858   0.382  0.1209  0.4235  0.1098
17273W        W33747   5.480   9.846   2.998  0.1827  0.2462 -0.4949
17274W        W33748  17.920   7.356   4.589 -0.2197  0.2089  0.0759
17275W        W33749   5.872   0.241  12.926  0.0308 -0.2572 -0.1400
17276W        W33750   3.302  16.691   5.608 -0.0853 -0.1695  0.3686
17277W        W33751   1.865  15.529   2.514  0.3171  0.0510 -0.1040
17278W        W33752   7.097  17.588  13.570  0.2059  0.1354  0.0482
17279W        W33753  11.671  10.290   0.952 -0.1733 -0.2156  0.2142
17280W        W33754  17.481   4.688   3.728  0.2272  0.0456  0.1815
17281W        W33755   1.774   4.162  10.900  0.1024 -0.0142  0.0325
17282W        W33756   7.072  12.024  10.909 -0.1292 -0.0455 -0.0719
17283W        W33757   9.237  10.867  13.397 -0.0749 -0.1353 -0.0509
17284W        W33758   2.721   5.443   1.216  0.0722 -0.3079 -0.2253
17285W        W33759   6.214   6.621   5.890  0.2966  0.1557  0.0189
17286W        W33760   7.789  11.405  16.311  0.0006 -0.2232 -0.2291
17287W        W33761   9.251  14.519  12.278 -0.0364  0.2392  0.0110
17288W        W33762  17.165  18.123  14.657 -0.0540 -0.2281 -0.0779
17289W        W33763  16.125   9.337   2.315 -0.2761 -0.0728  0.1184
17290W        W33764   4.998   4.477   0.017 -0.0822  0.0033  0.1976
17291W        W33765   2.377   9.355  15.480 -0.0503 -0.1567 -0.1178
17292W        W33766   2.968   5.315   3.130 -0.0967  0.1240 -0.1591
17293W        W33767  15.837  10.219   0.715  0.1169 -0.1302  0.2597
17294W        W33768   5.416  12.493  11.617  0.0273 -0.2777 -0.0912
17295W        W33769   5.712   5.159  14.761  0.4171  0.1968  0.1321
17296W        W33770  13.802  18.099   4.936  0.1457  0.0123 -0.0485
17297W        W33771  15.404  14.547  14.116  0.0627 -0.0297  0.4216
17298W        W33772   3.144   0.289   1.834  0.3044 -0.0235 -0.1810
17299W        W33773  11.923   2.548  13.520  0.2817 -0.0207  0.2223
17300W        W33774  14.333   2.933   1.254  0.1151  0.0457 -0.2666
17301W        W33775   7.258   4.460   5.209 -0.0855  0.2136 -0.1412
17302W        W33776   2.907  10.557   4.702 -0.0297  0.0481  0.2417
17303W        W33777   0.136  12.561  15.352 -0.1153  0.1413 -0.0034
17304W        W33778   8.709  14.176  15.792  0.1036 -0.2571 -0.0228
17305W        W33779  14.779  17.799  12.436 -0.2952 -0.2189  0.1021
17306W        W33780  11.730   4.402   1.295  0.0615  0.0367  0.2190
17307W        W33781  18.204  12.502   2.985 -0.1680  0.0410 -0.0151
17308W        W33782  10.749   7.941   0.297  0.0940 -0.1455 -0.0839
17309W        W33783   5.931  13.263   3.887  0.3335 -0.2543 -0.1343
17310W        W33784  17.514  10.547   3.391 -0.0245  0.1555 -0.1526
17311W        W33785   2.613  10.498  16.043  0.3705 -0.0681 -0.1338
17312W        W33786  14.789  12.912   3.074  0.1490  0.0939  0.1087
17313W        W33787   8.339   2.111  15.793 -0.3255 -0.0980  0.1601
17314W        W33788   3.287   1.791   5.404  0.1453  0.1844 -0.3653
17315W        W33789  10.314  18.235  14.837  0.0856 -0.1193  0.2107
17316W        W33790   7.650  14.500   1.460 -0.1189 -0.0499 -0.0942
17317W        W33791   1.640   2.448   2.554  0.0757 -0.1236  0.0609
17318W        W33792   1.487  10.457   2.258 -0.0264 -0.1265  0.2460
17319W        W33793   0.868  10.672  15.701  0.0164 -0.0172  0.2861
17320W        W33794  17.652   7.265   5.619 -0.2343 -0.1275  0.2137
17321W        W33795   1.863   8.296  13.175  0.4628 -0.2457 -0.4638
17322W        W33796  14.321  18.226  14.941  0.1411  0.0969  0.0132
17323W        W33797  17.482   8.650   4.135 -0.2499  0.0064 -0.0116
17324W        W33798  15.049  11.915  11.499 -0.0116 -0.0592 -0.3646
17325W        W33799   0.387  13.100   1.064  0.0128 -0.0770  0.0478
17326W        W33800   2.888   2.950  15.121 -0.2774 -0.2010  0.0868
17327W        W33801   4.418   6.400   5.033  0.1701  0.1103  0.2446
17328W        W33802  11.129   4.191  14.203 -0.3164  0.1364 -0.1920
17329W        W33803   2.181  13.624   5.174  0.0883  0.0339 -0.0666
17330W        W33804   5.162  15.480  13.166  0.2219  0.1196 -0.3094
17331W        W33805  16.660   3.037  14.527 -0.1423  0.1049  0.1482
17332W        W33806  16.002  10.323  11.271 -0.0261  0.4455 -0.0206
17333W        W33807   6.197  12.873  13.660  0.0781  0.0406 -0.1799
17334W        W33808   9.505   5.538  15.300 -0.0995 -0.0803  0.0874
17335W        W33809  13.783  18.224  13.053 -0.1320  0.1345 -0.2399
17336W        W33810   6.546  15.162   1.760 -0.1982 -0.1602 -0.0946
17337W        W33811   8.535   7.482   2.426  0.2231 -0.1571  0.1445
17338W        W33812  16.817   1.115   2.135  0.0097 -0.1333 -0.1402
17339W        W33813   9.139   2.756   1.767  0.1239  0.0297  0.2393
17340W        W33814   8.528   1.846   0.296  0.0340 -0.3781  0.2252
17341W        W33815   6.742   8.582   3.561  0.0824 -0.2427 -0.1747
17342W        W33816  14.714  14.715  12.863  0.1412 -0.2814  0.2456
17343W        W33817   1.969   3.121  12.484 -0.0571  0.0377  0.0028
17344W        W33818  16.594  11.330   5.518 -0.1876  0.1910 -0.3160
17345W        W33819  12.715  12.744   0.025  0.1095  0.1357  0.3698
17346W        W33820   0.866  14.382  15.167 -0.0611  0.0630 -0.0708
17347W        W33821  14.462   2.624   5.289 -0.1492  0.3610 -0.0109
17348W        W33822  13.203  13.175   2.578 -0.2425  0.0645  0.2553
17349W        W33823  13.755  11.209  11.649 -0.0590 -0.0617 -0.0870
17350W        W33824   3.692   3.191   2.268 -0.1679 -0.3030  0.0216
17351W        W33825  11.049   4.244  11.983 -0.2383  0.3902 -0.1185
17352W        W33826  10.267   8.212   2.205 -0.0406 -0.0508  0.2258
17353W        W33827   5.100  14.776  11.351 -0.0581 -0.0825 -0.1277
17354W        W33828   4.582   3.873   1.956 -0.0912  0.2579 -0.0819
17355W        W33829   2.410   7.042  14.276  0.0678  0.1057  0.2562
17356W        W33830  15.271   9.126  14.143  0.0799 -0.0840 -0.1184
17357W        W33831  10.936   5.679  12.810 -0.0096 -0.3342  0.0523
17358W        W33832   1.594   7.476  14.693 -0.2055  0.2259 -0.0363
17359W        W33833   2.175  16.716  14.655  0.0623  0.3299  0.0881
17360W        W33834  12.217   5.718   1.163 -0.1609  0.1669  0.0432
17361W        W33835  16.679   3.220  15.343  0.0436  0.0084  0.1532
17362W        W33836  12.531   6.821   3.573 -0.1677  0.2964  0.2671
17363W        W33837   7.226  15.075  13.599  0.1957 -0.2228  0.1850
17364W        W33838  15.179   6.233   5.585 -0.4406 -0.0468  0.0454
17365W        W33839   8.501   5.459  14.068  0.1460  0.1560 -0.1087
17366W        W33840  10.759  16.302  13.221  0.1419 -0.3350 -0.3185
17367W        W33841   7.642   6.429   5.200  0.4555 -0.3399 -0.0518
17368W        W33842  15.640  13.493   2.154  0.0401  0.0510  0.0124
17369W        W33843  10.340   7.997  13.051  0.0885  0.0690  0.1363
17370W        W33844  18.053  14.285   1.698 -0.2521 -0.1148 -0.1696
17371W        W33845   3.966  17.286  11.733 -0.0396  0.1604 -0.0010
17372W        W33846  10.892   3.194   2.659 -0.1349  0.1157  0.0100
17373W        W33847   6.508   3.130   4.287 -0.1109 -0.1390 -0.0241
17374W        W33848   1.334  16.702   1.831 -0.2843 -0.1902 -0.0144
17375W        W33849  10.487  15.655   1.577 -0.0616  0.0035 -0.2166
17376W        W33850   7.894   3.725  13.536  0.1998  0.1205 -0.2183
17377W        W33851  17.128  16.587   3.770  0.1958  0.1141  0.1332
17378W        W33852   2.644  14.919  14.567  0.1690 -0.0665 -0.0619
17379W        W33853  14.689   0.973   3.469  0.1764 -0.1832  0.0760
17380W        W33854  16.320  14.981  15.493  0.2265  0.0144 -0.3573
17381W        W33855  12.470   3.599  12.641  0.0042  0.1119 -0.0049
17382W        W33856  16.517  10.761  12.954 -0.0051 -0.0494 -0.1009
17383W        W33857   3.403  15.637   2.316  0.0599  0.2646  0.0541
17384W        W33858  14.146   3.689   1.420 -0.1813 -0.1182 -0.3175
17385W        W33859  14.119  17.055   3.799  0.0779  0.1630  0.0706
17386W        W33860  14.229   1.701  13.075 -0.2698 -0.2187  0.1662
17387W        W33861   0.057  11.920  14.620  0.0678 -0.4269 -0.0619
17388W        W33862  11.485   0.112  12.954  0.2105 -0.4148  0.1903
17389W        W33863   2.729  11.030  15.283 -0.0731 -0.2824 -0.2874
17390W        W33864  13.849  10.147  12.377  0.0401  0.4694 -0.1493
17391W        W33865  16.046   5.246  14.709 -0.1155 -0.0406  0.0260
17392W        W33866  15.231  17.519  13.629  0.0009  0.0640  0.0310
17393W        W33867   3.734   4.650  11.712  0.1953  0.1829 -0.1231
17394W        W33868  13.925  10.117  13.316  0.1062  0.0141  0.4095
17395W        W33869   6.145   4.938  13.233  0.3631  0.2693  0.0151
17396W        W33870  12.174   8.964   1.418  0.1721  0.0976  0.0581
17397W        W33871  15.078   6.399   1.553 -0.0687  0.1110  0.0335
17398W        W33872  12.558   4.249  14.812 -0.3619 -0.1704 -0.0837
17399W        W33873  13.299   4.897   3.524 -0.1269 -0.0357  0.1196
17400W        W33874   6.871   5.501  15.605 -0.1774  0.2614 -0.1208
17401W        W33875  14.358   9.613   5.755 -0.1220 -0.1062  0.3235
17402W        W33876   0.843  18.118   2.951 -0.0422  0.0200 -0.0071
17403W        W33877  14.166  11.053  11.869  0.0309 -0.0469  0.2141
17404W        W33878  14.555  11.266  12.514  0.1173  0.2539 -0.0404
17405W        W33879   9.637   2.274  16.200 -0.0732 -0.3106  0.1738
17406W        W33880   7.486  16.136  11.660 -0.1570  0.1210 -0.3658
17407W        W33881   7.996  14.126   5.016 -0.0441 -0.0022 -0.1323
17408W        W33882   8.678  17.253   1.192 -0.0175  0.2384 -0.0591
17409W        W33883   6.001  16.618   5.526  0.0311  0.2003  0.3163
17410W        W33884  11.508   9.409   5.160  0.3180 -0.2810  0.3225
17411W        W33885  11.259  10.985  15.571  0.5020  0.1375  0.1229
17412W        W33886  16.038   0.130  12.608 -0.2209 -0.1517  0.1360
17413W        W33887  17.223   0.366  12.091  0.0173  0.1314  0.0319
17414W        W33888   3.735   3.374  14.813 -0.2195 -0.0660 -0.0416
17415W        W33889   1.130  15.327  14.009  0.1332 -0.2153 -0.0268
17416W        W33890   6.939  17.087   3.211  0.0740 -0.3238 -0.0503
17417W        W33891  17.301   6.406  11.534  0.0139  0.1950 -0.2541
17418W        W33892  16.344  14.647  11.497  0.3224  0.1226  0.3248
17419W        W33893  11.694   8.015   0.385 -0.0327 -0.1440 -0.0585
17420W        W33894  13.829  11.745  11.703  0.0382  0.0869 -0.2672
17421W        W33895   7.509   0.514  15.309 -0.3717  0.1805 -0.0002
17422W        W33896   1.971  12.791  13.987  0.1184 -0.2485 -0.0452
17423W        W33897  18.120  13.083  15.139  0.2175  0.0222 -0.1380
17424W        W33898  17.963   8.277   3.263  0.2534  0.0631  0.0829
17425W        W33899   2.300  17.231  11.031 -0.1115 -0.1354 -0.1780
17426W        W33900  10.423  11.378   0.013  0.2376 -0.0193  0.0621
17427W        W33901   8.599  18.083  14.506  0.0864 -0.0302  0.5447
17428W        W33902  16.776  11.531  14.774  0.0556  0.0135  0.0040
17429W        W33903   6.605  12.511   4.308 -0.0125  0.1558 -0.0646
17430W        W33904  13.900   8.305  15.855  0.1793  0.0182  0.0863
17431W        W33905   6.335   9.087  15.338 -0.6362  0.0864  0.0868
17432W        W33906  15.845   6.676  15.747  0.0407 -0.1527 -0.0101
17433W        W33907  12.507   1.194   1.638 -0.1558 -0.2251  0.3972
17434W        W33908   8.562  10.147  12.582  0.0901  0.0744  0.0920
17435W        W33909   6.056  15.113  12.790 -0.1513 -0.0898  0.2145
17436W        W33910  10.282  15.226   3.014  0.0614  0.2146 -0.2146
17437W        W33911   3.962   9.615   6.224  0.3359 -0.0241 -0.3791
17438W        W33912   7.993  10.728   2.296  0.1991 -0.1924  0.1457
17439W        W33913  12.545  14.795  16.217 -0.1357  0.0022 -0.2075
17440W        W33914   9.258   8.057  15.483  0.1760 -0.1311 -0.2666
17441W        W33915  18.154   8.332  12.328 -0.1390 -0.2593  0.3478
17442W        W33916   2.635  11.985   3.786  0.1435  0.0028  0.0938
17443W        W33917  15.668  10.790  16.247  0.0354  0.1384 -0.0150
17444W        W33918  15.183  11.799   4.291 -0.2779 -0.2488 -0.3512
17445W        W33919   5.389   5.344  11.189 -0.1316 -0.0765 -0.0006
17446W        W33920   2.270  13.510   1.441 -0.0856  0.3871 -0.0350
17447W        W33921   3.637   6.879  12.536 -0.2756  0.0130 -0.0611
17448W        W33922   4.807  13.170  15.040 -0.2870  0.2983 -0.4237
17449W        W33923  14.451  15.639  11.706 -0.2346 -0.0246 -0.1765
17450W        W33924   8.774   1.765   1.228  0.0682 -0.2286  0.0750
17451W        W33925  10.249   8.524   4.301  0.1071 -0.4936  0.0665
17452W        W33926  16.990   4.736   3.611  0.1070 -0.0861  0.0077
17453W        W33927   4.205   5.006   4.602  0.0337  0.1320  0.0922
17454W        W33928  11.971  12.147   2.529 -0.2399  0.0809  0.0809
17455W        W33929  13.351   4.018   4.888  0.3421  0.0797  0.1048
17456W        W33930  13.375   1.657   4.385  0.0492 -0.1534  0.3309
17457W        W33931   3.373   0.343   0.161  0.0442  0.0173 -0.1983
17458W        W33932  16.083   4.198  13.441  0.1731  0.2962  0.0184
17459W        W33933   7.510   9.326  14.772  0.2025  0.0721 -0.2658
17460W        W33934  13.467  16.757  11.782 -0.0840  0.1099  0.2961
17461W        W33935  17.625  15.476   3.909 -0.2602  0.4591  0.2447
17462W        W33936   2.047  14.871   2.304 -0.2779 -0.1928  0.0134
17463W        W33937   7.167   4.040   3.021 -0.1697 -0.1483 -0.1295
17464W        W33938   3.224  13.869   4.650  0.0168 -0.3834 -0.0670
17465W        W33939   3.585  16.762   1.235  0.0062 -0.0056  0.3441
17466W        W33940   6.599   4.448  16.199  0.0908  0.0573 -0.0333
17467W        W33941   6.611   5.786   1.050 -0.1828 -0.2228  0.3422
17468W        W33942  12.358   0.079   4.897  0.0004  0.1048 -0.2311
17469W        W33943   6.106  14.167   3.666  0.2108 -0.0435  0.0714
17470W        W33944   2.357   5.415  11.971  0.3665  0.4104 -0.1496
17471W        W33945   8.033  11.107   4.627 -0.3165  0.0398  0.0201
17472W        W33946  11.023   0.245   0.841 -0.3040 -0.1257  0.1535
17473W        W33947   7.161   6.076   2.164  0.0887 -0.0184  0.1699
17474W        W33948   7.444  17.305  11.643  0.1209 -0.2688 -0.2254
17475W        W33949  12.658   8.655  14.866 -0.1607  0.2214  0.1227
17476W        W33950   4.504   7.061   3.846  0.0122 -0.0641 -0.0409
17477W        W33951   5.717   5.962  11.632  0.0228 -0.2782 -0.0698
17478W        W33952   9.619   8.460   1.630 -0.1670 -0.1781 -0.1225
17479W        W33953   8.710   4.158  12.589  0.0366  0.2083 -0.0344
17480W        W33954   2.910  13.471   3.128  0.4022 -0.0594  0.0001
17481W        W33955   1.975  15.314   4.061 -0.0336  0.1541 -0.0157
17482W        W33956   8.000   2.245   0.895 -0.0499 -0.1772  0.1368
17483W        W33957   3.576   2.645   1.017  0.1153  0.0877 -0.4092
17484W        W33958   5.521   9.673   2.096  0.1133 -0.2603 -0.0107
17485W        W33959   7.661   5.975   5.419  0.1088  0.2866  0.1213
17486W        W33960   6.682  15.298   5.300 -0.0351  0.4541  0.0170
17487W        W33961   1.644  11.758   1.775  0.0563 -0.2450  0.0314
17488W        W33962   6.321   3.143  10.284 -0.0869  0.2287  0.1024
17489W        W33963  16.329   6.115   1.957  0.0543 -0.0172  0.1603
17490W        W33964  17.489   5.964  13.808 -0.0090  0.0890  0.0643
17491W        W33965  13.565   2.173  13.890 -0.1324 -0.0416 -0.0487
17492W        W33966   2.230   6.376  12.210  0.3549 -0.0112  0.3066
17493W        W33967   2.848  12.876  13.725 -0.2894  0.1810  0.1435
17494W        W33968   1.337   0.169  11.100  0.2094  0.0718 -0.1367
17495W        W33969  17.106  10.270  15.382  0.0750 -0.3623 -0.2564
17496W        W33970  18.063  14.838  13.097  0.1577 -0.2909 -0.1089
17497W        W33971   1.664   0.672  15.153 -0.0110  0.1634  0.0431
17498W        W33972   8.589   0.076   2.613 -0.2615 -0.1363  0.0756
17499W        W33973   2.956   9.644   3.493 -0.1021  0.1278 -0.0367
17500W        W33974   7.225  11.752  15.166 -0.0514 -0.0203  0.1686
17501W        W33975  10.397  15.577   2.100  0.1859 -0.3115 -0.3204
17502W        W33976   5.374  17.836  15.911  0.1968 -0.0414 -0.3874
17503W        W33977  10.878  12.040  13.948  0.2954  0.0751 -0.0087
17504W        W33978  12.092   2.031  12.172 -0.1002  0.1029 -0.0204
17505W        W33979   0.200   4.850  15.412  0.4201  0.3651 -0.0065
17506W        W33980  13.681  14.942   3.522  0.1691  0.2186 -0.2418
17507W        W33981  12.298   3.058   3.335  0.0928  0.3544 -0.1363
17508W        W33982   2.263  16.382   5.364  0.3840 -0.0329 -0.2578
17509W        W33983  15.705  11.965   3.502 -0.3247 -0.3151  0.2542
17510W        W33984  12.364  11.166  11.767  0.0307 -0.2240 -0.0920
17511W        W33985   5.288   4.748   6.373  0.1564 -0.1092 -0.2745
17512W        W33986   6.123  17.365  11.468  0.3551 -0.2929  0.1831
17513W        W33987   5.538   0.349   6.031 -0.1419 -0.0735  0.0802
17514W        W33988  17.136   9.409  15.605 -0.0094  0.0862  0.3146
17515W        W33989   8.845   8.093  15.116  0.2031 -0.0185  0.0351
17516W        W33990  17.047  10.240  14.537  0.5584  0.0992 -0.0547
17517W        W33991   3.679  10.887   5.416 -0.0202 -0.2450  0.0003
17518W        W33992  12.666   5.314  12.761  0.3969 -0.2578  0.1054
17519W        W33993   5.672   5.409   2.924  0.0291 -0.0406 -0.1608
17520W        W33994   5.978   1.901  16.225 -0.0531  0.0274  0.1359
17521W        W33995  15.723  14.160  14.214  0.2194  0.3839 -0.2215
17522W        W33996   7.552  10.722  15.362 -0.1747 -0.0839 -0.1407
17523W        W33997   1.379   7.523   0.977 -0.2515 -0.0003 -0.2810
17524W        W33998  17.216   2.069   0.960  0.1919 -0.1652 -0.0835
17525W        W33999  12.888   8.757  11.709 -0.0988  0.3260 -0.2172
17526W        W34000  13.117   8.011   2.573 -0.1823 -0.1462  0.2562
17527W        W34001  17.832  11.766  15.544 -0.5085  0.0480 -0.1958
17528W        W34002   5.357   6.037  15.355  0.0881  0.1410  0.0165
17529W        W34003   2.802   5.734  16.107 -0.2447 -0.2093 -0.2040
17530W        W34004  10.617   4.780  14.018 -0.0712  0.1513 -0.2279
17531W        W34005  10.329  14.122  15.116  0.0862 -0.0680 -0.2095
17532W        W34006  15.905  17.202  13.802 -0.1871  0.6567  0.0266
17533W        W34007   6.150   4.430  11.743 -0.1055 -0.2780 -0.3970
17534W        W34008  17.484   7.497  11.848 -0.0005  0.0508 -0.1148
17535W        W34009  12.970   2.150  11.690 -0.0210 -0.0772  0.1906
17536W        W34010   9.200   4.392   2.564 -0.3663 -0.2407  0.3849
17537W        W34011  15.817  15.125   3.635  0.0014  0.0313 -0.0329
17538W        W34012   7.085   0.402   0.382 -0.0324 -0.0626  0.1856
17539W        W34013  18.292   4.087   1.949  0.2900 -0.0418  0.1556
17540W        W34014   3.148  13.713  14.687  0.5623  0.1525 -0.0247
17541W        W34015  16.426   5.391  12.959  0.2676 -0.0096 -0.2424
17542W        W34016   6.779  18.103   4.007 -0.3275  0.2917 -0.1222
17543W        W34017   0.135  13.864  12.205  0.0395  0.1982  0.2531
17544W        W34018   1.663   4.788  12.916 -0.0898  0.0303  0.2175
17545W        W34019  16.058   8.881   3.027 -0.4835 -0.0187  0.0396
17546W        W34020  17.993  10.038  11.409 -0.0139  0.1044 -0.1079
17547W        W34021  12.803   0.907   0.512  0.0538  0.3451  0.0234
17548W        W34022   1.472   8.478  12.984 -0.0600 -0.0724 -0.2566
17549W        W34023   0.414  11.486   4.982  0.0577 -0.0827 -0.0209
17550W        W34024  17.183   7.403   5.040 -0.0541 -0.1589  0.0877
17551W        W34025  13.551   1.170  14.508  0.1156 -0.0373 -0.0915
17552W        W34026  16.553   4.527   1.827 -0.2120 -0.1204 -0.3475
17553W        W34027   0.087   2.215  13.841  0.1342  0.0843 -0.3836
17554W        W34028  16.424   5.456   4.797 -0.1125 -0.0508 -0.3696
17555W        W34029  10.487  17.795   0.413  0.0202 -0.2668 -0.2459
17556W        W34030   9.615  17.871  12.759 -0.1990  0.0639 -0.2056
17557W        W34031  14.560   0.686  14.258 -0.1273 -0.1729 -0.0031
17558W        W34032  11.259   5.082  11.824 -0.1709  0.0258  0.0675
17559W        W34033   6.088  13.659  14.145  0.2948  0.0946 -0.3013
17560W        W34034  10.811  10.279   4.422 -0.1960  0.0525 -0.0152
17561W        W34035  11.303   2.604   3.443  0.1672  0.2021 -0.0032
17562W        W34036   6.000  10.581   1.909  0.2930  0.2247 -0.3906
17563W        W34037   3.616  17.429  12.930  0.2982 -0.4235  0.0660
17564W        W34038   0.857   7.603   1.147 -0.1033 -0.3098 -0.1227
17565W        W34039  18.014  17.618  12.474 -0.0639  0.3337 -0.2518
17566W        W34040   8.564   7.256   3.757 -0.1993 -0.0594 -0.0299
17567W        W34041  15.832   1.692   1.047 -0.0209 -0.0114 -0.1621
17568W        W34042   6.300   7.505   2.474  0.0597 -0.1773  0.0689
17569W        W34043  12.118  17.448  13.667  0.1150  0.1272  0.1424
17570W        W34044   2.549  14.061   3.184 -0.1643  0.3813  0.1251
17571W        W34045   3.104  15.556   0.511  0.0493  0.0714  0.2299
17572W        W34046   5.299   9.120   4.719 -0.1864  0.1227 -0.3012
17573W        W34047   0.697   4.389   4.674 -0.2980  0.1730 -0.1976
17574W        W34048  17.130  13.347   5.096  0.2661 -0.1611  0.3557
17575W        W34049   2.557   0.371  13.795 -0.2239  0.1410 -0.1755
17576W        W34050  14.600  18.198   0.482 -0.1866  0.4232 -0.1283
17577W        W34051   3.880   4.724  12.613 -0.0543 -0.2508  0.1590
17578W        W34052  16.308   1.137   1.899  0.0637 -0.1478  0.2380
17579W        W34053   7.211   6.147   2.694 -0.1580  0.2036 -0.0428
17580W        W34054   3.356   7.642   3.126 -0.1004  0.0794  0.2296
17581W        W34055   2.127   4.204   0.365  0.0524  0.3574 -0.0195
17582W        W34056  13.111   9.141   1.433  0.3543 -0.0215  0.1561
17583W        W34057   5.284   7.384  14.621  0.1662  0.2737 -0.0955
17584W        W34058  11.849  10.744   1.069 -0.1978  0.0172 -0.1168
17585W        W34059   7.438  16.684  14.301 -0.1595 -0.1782 -0.0339
17586W        W34060  15.437   2.324  11.319 -0.1111 -0.2799 -0.0404
17587W        W34061   0.733  12.953  11.687  0.0216 -0.1190 -0.0177
17588W        W34062  11.903  15.332  11.995 -0.1352 -0.2903  0.2117
17589W        W34063   3.006  15.834  11.572 -0.1238  0.1027  0.0570
17590W        W34064   7.310   0.446   2.612  0.1976  0.0476  0.1677
17591W        W34065   6.476   3.739   3.425 -0.3508  0.1620 -0.2162
17592W        W34066  12.683  12.362  14.033 -0.1712  0.0214  0.2854
17593W        W34067  15.284   1.877  11.537  0.2632  0.2978  0.4408
17594W        W34068  16.602  14.217   0.570 -0.1947 -0.0580 -0.0991
17595W        W34069   7.816  14.075  11.265  0.0058 -0.3470 -0.0244
17596W        W34070   7.673  13.407   1.184 -0.0748  0.3299 -0.0481
17597W        W34071  17.528   0.698  13.687  0.0855 -0.1432  0.0403
17598W        W34072  16.107  17.302  16.194 -0.1100 -0.0252  0.0284
17599W        W34073   1.584  17.058  15.739 -0.2570 -0.2244  0.1103
17600W        W34074  16.381   0.180   2.114 -0.0891  0.0853  0.1112
17601W        W34075   9.683   5.524  12.411  0.4372 -0.1255 -0.0292
17602W        W34076   2.373  10.295   1.322 -0.1460 -0.1499 -0.5049
17603W        W34077  10.974   6.361   4.658 -0.2476  0.0728  0.1159
17604W        W34078   9.038   5.825   0.689 -0.1023 -0.0203  0.1576
17605W        W34079   3.074  11.989  15.306 -0.0373  0.1149  0.0635
17606W        W34080  12.958   4.390  11.372  0.0916 -0.2016  0.2433
17607W        W34081  17.036  10.414  11.248 -0.1201 -0.3004  0.2962
17608W        W34082  13.937   2.168   1.208  0.1648 -0.0980  0.1600
17609W        W34083  16.660   1.608  14.341  0.1362  0.1055 -0.0298
17610W        W34084   6.413  11.122  13.735 -0.2233 -0.0568 -0.2036
17611W        W34085   4.326   0.645  15.461  0.0993 -0.2477  0.2146
17612W        W34086   9.607  12.909   2.409 -0.0751  0.3124  0.0828
17613W        W34087  12.002   6.857  16.155 -0.1928  0.1103 -0.0462
17614W        W34088   3.960  12.691   5.258  0.0551 -0.2013  0.0212
17615W        W34089   4.249  15.701  13.066 -0.2226 -0.1086 -0.0922
17616W        W34090   0.251   4.694   2.824  0.2098  0.2796 -0.1874
17617W        W34091   2.065  11.736   1.477  0.1623 -0.1734 -0.3674
17618W        W34092  14.501   0.646   0.498 -0.3240  0.1632  0.0926
17619W        W34093   8.274  17.055  11.210 -0.2135 -0.0060  0.1756
17620W        W34094   9.912  10.414  12.877  0.0761  0.0173  0.1886
17621W        W34095   9.130   8.619  12.182  0.3971  0.1435  0.0254
17622W        W34096   2.222   1.965  15.770 -0.0659  0.2913 -0.2361
17623W        W34097   9.239  16.237   0.917  0.0598 -0.0953  0.0382
17624W        W34098   2.251   3.827  15.300  0.1648 -0.1643  0.1833
17625W        W34099  15.048   1.343  12.255  0.2745  0.0437 -0.7765
17626W        W34100   6.626   1.065   1.646  0.3062 -0.0570  0.1693
17627W        W34101   8.966  17.877  14.192 -0.1379 -0.3980  0.4912
17628W        W34102  10.953  16.612  11.822  0.0034 -0.0931  0.0720
17629W        W34103  16.679  13.121   2.345  0.1548  0.1935  0.1243
17630W        W34104   4.745  14.747   4.699 -0.1452 -0.0660  0.1167
17631W        W34105   0.705   2.156  15.140  0.0676  0.0361 -0.0182
17632W        W34106  16.115  11.907  12.902  0.0790 -0.1129 -0.3904
17633W        W34107  13.653  16.157  14.445 -0.1064 -0.2897 -0.0657
17634W        W34108  16.979   4.764   5.603  0.0030 -0.3279 -0.0952
17635W        W34109   9.499   9.016  14.477 -0.4938  0.0491 -0.1409
17636W        W34110  14.749  12.722   4.648  0.0239  0.1946 -0.5987
17637W        W34111   8.187  10.600  14.332  0.0238  0.0137  0.0571
17638W        W34112  14.823   6.994  11.653  0.0468 -0.1214 -0.2777
17639W        W34113   4.522   8.181   0.681 -0.1950  0.1116 -0.0651
17640W        W34114  13.603  14.032  14.838 -0.0602 -0.0625  0.0082
17641W        W34115  15.406  11.243   2.035  0.4920  0.3802  0.0212
17642W        W34116  14.526  15.659   1.071 -0.0516 -0.1742 -0.1161
17643W        W34117  13.950  16.490  15.997 -0.0229 -0.0503 -0.1184
17644W        W34118   5.996  13.392   1.977  0.0247  0.2590  0.2206
17645W        W34119  17.220  15.581  14.126 -0.3872  0.0930  0.0366
17646W        W34120   6.155  12.337   1.531 -0.0842 -0.0863 -0.0923
17647W        W34121  15.158   0.431   1.467  0.0790  0.1180 -0.0686
17648W        W34122   2.226  17.648  14.532  0.1699  0.1885 -0.1829
17649W        W34123  15.594   2.006  13.585 -0.2570  0.2317  0.3087
17650W        W34124  16.947  11.696  13.768 -0.1820  0.1753 -0.2986
17651W        W34125  13.927  18.120  13.615  0.2106 -0.2351  0.0013
17652W        W34126  10.048  15.724   2.879 -0.0685  0.0615 -0.0353
17653W        W34127   6.448   2.158   5.047  0.1839  0.0542  0.0167
17654W        W34128  10.374   5.933  14.807 -0.0063 -0.1347 -0.0467
17655W        W34129   7.047  13.211   5.933 -0.0115  0.0035  0.1671
17656W        W34130  15.798   9.143   1.584 -0.1568 -0.1410  0.0677
17657W        W34131   0.573   5.060   5.151  0.1663 -0.1779 -0.0497
17658W        W34132  16.043   5.243   1.975  0.3636 -0.0702  0.2177
17659W        W34133   6.111  12.852  15.894  0.0060 -0.1375 -0.1190
17660W        W34134  10.853   7.442  13.490  0.0720  0.0334  0.0167
17661W        W34135   5.016   5.676  12.703 -0.0796 -0.4168  0.0951
17662W        W34136   5.119   8.782   1.572 -0.1340  0.1493 -0.0750
17663W        W34137   6.369  17.262   1.013 -0.2704 -0.0634  0.1321
17664W        W34138  12.452   8.285   4.115 -0.1110 -0.0709  0.1331
17665W        W34139   6.316  12.823  14.516  0.0285  0.2405  0.0232
17666W        W34140   1.885   1.241   0.238  0.2807  0.0580 -0.2179
17667W        W34141  15.514   0.010   3.867 -0.1409 -0.0939  0.0332
17668W        W34142   0.903   6.783   5.012 -0.1434 -0.0741  0.0417
17669W        W34143  15.639   1.819   2.068 -0.1934  0.2602 -0.1255
17670W        W34144   7.375  12.474   0.865 -0.0363 -0.1265  0.0998
17671W        W34145   4.170   1.830  11.721 -0.1074  0.3177  0.0211
17672W        W34146   1.614  17.548   2.765 -0.0692  0.0899  0.3077
17673W        W34147   8.357   0.553  10.767 -0.1957 -0.1356  0.2539
17674W        W34148   9.817  14.266  15.042  0.0263  0.0260  0.3058
17675W        W34149  15.658   8.636   2.301  0.1977  0.2067  0.0274
17676W        W34150   5.370  14.002  15.651  0.1099  0.0498 -0.0983
17677W        W34151   6.557   6.069  11.661  0.1590  0.1079 -0.1738
17678W        W34152  14.032   9.935   1.445  0.1186  0.0453  0.0065
17679W        W34153   0.724   0.046  13.084 -0.0010 -0.0234  0.0738
17680W        W34154   1.409  18.186   1.937  0.0455 -0.0638  0.0193
17681W        W34155   7.528   0.520  11.969  0.1250 -0.0672  0.1422
17682W        W34156  14.648  11.976  16.130  0.2157 -0.2397  0.2140
17683W        W34157   3.917   2.481   3.527  0.0798 -0.0914 -0.0336
17684W        W34158   7.418   5.812  13.114 -0.0561 -0.4228  0.2122
17685W        W34159  10.043   6.869   0.127 -0.0917 -0.0289  0.0003
17686W        W34160   7.257   1.216   1.016  0.3585  0.2366 -0.1364
17687W        W34161   4.873   3.051   1.212 -0.0309  0.2110  0.0190
17688W        W34162  13.601   0.927  13.181 -0.3934 -0.0040 -0.2389
17689W        W34163   3.382  14.313  15.443  0.1012 -0.4799  0.1162
17690W        W34164  16.511  15.297  12.045  0.0640  0.1568 -0.0320
17691W        W34165  14.020  10.106   2.558 -0.3134  0.2176  0.1470
17692W        W34166   6.260   1.829   1.166 -0.1659 -0.1662 -0.2606
17693W        W34167   3.182   8.375   1.074 -0.0875  0.0338  0.4771
17694W        W34168  13.603   7.709   6.216  0.2023  0.1019  0.0457
17695W        W34169  17.944   1.996  12.513  0.0447  0.1630  0.0569
17696W        W34170   2.754   4.823   0.313 -0.0011 -0.1274  0.1044
17697W        W34171  16.025   8.836  13.029  0.0426  0.0245 -0.0545
17698W        W34172   5.023  11.692   4.796 -0.3126  0.1959  0.2143
17699W        W34173   4.692   1.503  14.001 -0.2714 -0.0710 -0.1306
17700W        W34174   3.735   7.434   4.300  0.2047 -0.0701  0.1889
17701W        W34175  13.318   5.881   2.655  0.1441  0.0762  0.1318
17702W        W34176   8.407  11.739   4.432 -0.1667 -0.0058 -0.2758
17703W        W34177  11.471   6.745  16.074 -0.2941  0.1875  0.0556
17704W        W34178   8.541   9.111  11.674 -0.4054  0.2497  0.1626
17705W        W34179   1.029   9.715   5.137 -0.1021  0.0785  0.0333
17706W        W34180   0.608  15.281  11.487 -0.2441 -0.3089  0.0196
17707W        W34181   0.718   3.859   1.756 -0.1131 -0.4075  0.0182
17708W        W34182   6.370   7.045   5.490 -0.2222  0.0404  0.3366
17709W        W34183  14.852  10.997   0.249 -0.1554 -0.1337 -0.2372
17710W        W34184  12.160  13.132  15.303  0.2020  0.0128  0.1472
17711W        W34185  15.159  10.292   4.156  0.0763  0.1207  0.0926
17712W        W34186   9.620  10.997   5.966  0.0159 -0.2612  0.2901
17713W        W34187   3.117  10.549  11.463 -0.1429 -0.0081 -0.0861
17714W        W34188  14.361   7.938  14.949 -0.0118 -0.0528  0.2335
17715W        W34189   1.792   9.697  12.552  0.2362 -0.1041 -0.0317
17716W        W34190   4.150  14.619   5.435 -0.2556  0.0477 -0.1207
17717W        W34191   2.932   3.698   0.011  0.2509 -0.0168  0.1348
17718W        W34192   5.251   3.585  15.824 -0.1718  0.1584 -0.1906
17719W        W34193   4.112   9.248   2.386 -0.0716  0.2683  0.1150
17720W        W34194  12.894   9.782  13.627  0.0022 -0.2167  0.0039
17721W        W34195   7.890  10.428   5.714 -0.0797 -0.2482  0.0297
17722W        W34196   3.667   3.610  15.227 -0.0203  0.1500 -0.0300
17723W        W34197  12.786  14.211   1.772 -0.0851 -0.0684 -0.1469
17724W        W34198  15.267  17.148  11.422  0.1782  0.0389 -0.1761
17725W        W34199   1.607  12.251   1.748  0.0508  0.0426 -0.2653
17726W        W34200  18.083   2.235  12.984  0.1737 -0.1813 -0.0813
17727W        W34201  15.985  16.634   2.428  0.1871  0.0629 -0.2551
17728W        W34202   6.104   2.656   0.478 -0.0080  0.1335  0.1995
17729W        W34203  11.516  12.537  14.593  0.2981  0.2502 -0.0782
17730W        W34204  17.704  11.378   5.656 -0.1453  0.2381 -0.2600
17731W        W34205   0.179  17.423   2.118 -0.1269 -0.0066  0.0668
17732W        W34206   7.549  12.753   1.763  0.1788  0.0045 -0.2921
17733W        W34207  14.835  12.659  11.932  0.0479 -0.0638 -0.2440
17734W        W34208  14.839   0.024   2.153  0.0164 -0.0695 -0.3569
17735W        W34209   5.582   8.179   4.012 -0.0124 -0.1838  0.3322
17736W        W34210  16.673  16.165  13.084 -0.1068  0.1197 -0.1741
17737W        W34211  16.187   9.812  14.187 -0.1337 -0.1900 -0.1010
17738W        W34212  11.292   2.891   0.457 -0.0074 -0.1882 -0.0967
17739W        W34213   3.718   7.876   2.440  0.2774 -0.1905  0.2021
17740W        W34214   1.461  18.042   3.478  0.0762 -0.1802  0.1124
17741W        W34215  16.583   6.675  11.153  0.0429  0.0938  0.2148
17742W        W34216   9.484   6.467  15.051  0.0058  0.1547 -0.0624
17743W        W34217  16.590   6.129   2.984 -0.2045  0.1320 -0.2092
17744W        W34218   9.031   4.469  13.321  0.4754  0.0701 -0.1198
17745W        W34219   8.347  16.032   1.964  0.2047 -0.3339  0.1066
17746W        W34220   0.586  16.360  13.443 -0.1681  0.1944 -0.1962
17747W        W34221   1.062   5.539  12.519  0.0006  0.2961 -0.1382
17748W        W34222   4.984   5.405  16.105  0.1913 -0.1298 -0.0445
17749W        W34223  14.513  13.165  14.835  0.0721  0.3359 -0.0290
17750W        W34224   9.950  14.924  15.172 -0.1161 -0.0304 -0.0772
17751W        W34225  17.117   8.705  14.457 -0.1542 -0.2669  0.0658
17752W        W34226  12.667  15.547   0.892  0.0470 -0.0598 -0.0559
17753W        W34227   0.225  15.326   5.121  0.3391  0.1078  0.2325
17754W        W34228   6.113  16.723  11.644 -0.1944  0.1562 -0.0759
17755W        W34229  17.050   2.695   2.324 -0.4156 -0.0660  0.0682
17756W        W34230   2.531   4.115   4.039  0.1704 -0.0021  0.0944
17757W        W34231   4.890  14.298   5.003  0.0166 -0.1660  0.5031
17758W        W34232  11.400  13.695   0.471  0.3486 -0.2433 -0.0846
17759W        W34233  16.554  16.858  14.397 -0.0706 -0.0194  0.0210
17760W        W34234   6.741   0.621   3.682 -0.2867  0.1199  0.0202
17761W        W34235   6.511   0.343  11.575  0.0295  0.4131 -0.0523
17762W        W34236   7.387   2.000  15.851  0.0780 -0.0043 -0.2630
17763W        W34237  17.216   3.755  14.533  0.2352 -0.2376 -0.1828
17764W        W34238   4.423  15.618   3.381  0.1634 -0.1881  0.3023
17765W        W34239   5.366   2.877   3.506  0.2578 -0.1963  0.1418
17766W        W34240   4.537   7.655  14.827 -0.3561  0.0556  0.0433
17767W        W34241   2.752   2.467  15.123  0.1027 -0.1830  0.5431
17768W        W34242   4.069   6.829   3.716  0.1442  0.0715 -0.0713
17769W        W34243  13.411  14.084   2.473 -0.2058  0.0222  0.0698
17770W        W34244   5.700   9.733  16.090  0.1181  0.0887  0.1383
17771W        W34245   1.954   9.422  16.080  0.0764 -0.0159 -0.2251
17772W        W34246   5.647   3.908   3.947  0.1296 -0.2560  0.0101
17773W        W34247  12.190  10.674   4.916 -0.1007  0.1357  0.1629
17774W        W34248   1.299   2.837   4.229 -0.1033 -0.3290 -0.4539
17775W        W34249   8.046   4.704  15.711  0.2295  0.0624  0.0250
17776W        W34250   5.460   7.808   2.608  0.1097 -0.3566  0.0702
17777W        W34251  15.252   7.833  12.566  0.0441 -0.1152  0.1398
17778W        W34252  14.634   4.247  11.057  0.0527  0.1265  0.2867
17779W        W34253   0.002  17.815   0.099  0.0114 -0.3397 -0.0864
17780W        W34254   3.597   7.228  15.125  0.0512 -0.0643  0.1753
17781W        W34255  15.259  14.318   0.036 -0.3249 -0.0190 -0.0351
17782W        W34256  10.252  13.608   1.564  0.1119 -0.1385 -0.0305
17783W        W34257  11.355  15.720   2.029 -0.0055  0.1214 -0.2410
17784W        W34258  15.273  14.774   1.849 -0.1963  0.2518  0.1392
17785W        W34259   1.095   9.211   0.511 -0.3715 -0.1241 -0.0411
17786W        W34260  14.309  16.216   1.567  0.1169  0.0078  0.0033
17787W        W34261   2.238  15.284  13.328  0.2035 -0.0818 -0.0394
17788W        W34262   8.150  16.077  12.833 -0.2215  0.0639 -0.2590
17789W        W34263   3.332  17.326   0.058  0.4440 -0.0269  0.1393
17790W        W34264   2.210   3.254   4.852 -0.1400 -0.0103  0.2016
17791W        W34265   8.895   9.112  14.443  0.1401 -0.0755 -0.1320
17792W        W34266  18.184   1.108   0.291  0.0807 -0.1162  0.0592
17793W        W34267   1.056  10.961   3.343  0.1882 -0.0105  0.1405
17794W        W34268   4.750   3.372   2.496 -0.1760  0.0094 -0.2754
17795W        W34269  14.046  13.529  12.700  0.4420  0.3026 -0.0950
17796W        W34270   2.242   6.407   3.159  0.3954 -0.0811 -0.1152
17797W        W34271   4.616   4.035  15.378  0.4049  0.3019  0.1064
17798W        W34272  11.855  12.416   0.968 -0.2503 -0.0561 -0.1972
17799W        W34273  11.997   7.805  15.097 -0.2276  0.3226 -0.0774
17800W        W34274  17.570   1.840   2.414 -0.3406  0.0577 -0.0528
17801W        W34275   3.142  12.340   1.702  0.0433 -0.2277 -0.0315
17802W        W34276   4.562   6.573   3.654 -0.0224  0.1733  0.1893
17803W        W34277  13.660  14.331   1.695  0.0288 -0.1564 -0.3083
17804W        W34278   0.569  10.886   1.284 -0.0248 -0.1368 -0.0777
17805W        W34279   2.964   1.993   4.206  0.1624 -0.1316 -0.0192
17806W        W34280   8.401  10.897   5.061 -0.0733 -0.0126 -0.0104
17807W        W34281   3.514   5.264   4.123  0.1708  0.1605  0.0839
17808W        W34282   5.489   8.302  14.552 -0.0977  0.1912  0.0010
17809W        W34283  13.283  17.762   2.293 -0.0219 -0.0584 -0.1023
17810W        W34284   0.854   2.165   3.247  0.0092 -0.1202  0.0263
17811W        W34285  15.967  14.739  15.757 -0.1147 -0.4432 -0.0962
17812W        W34286  13.787   5.623  14.668  0.0464  0.1417 -0.0466
17813W        W34287  14.589   1.151   0.877  0.3505  0.0138  0.5164
17814W        W34288  11.285  17.080   4.087  0.0605 -0.2724 -0.0007
17815W        W34289   7.277  15.491  14.954 -0.1889  0.2867 -0.0479
17816W        W34290   1.435   8.651   3.694 -0.0604  0.3745  0.0817
17817W        W34291   9.649   5.206   1.467 -0.3038  0.0283 -0.2518
17818W        W34292   6.956  13.681  14.951 -0.1406  0.2452 -0.0934
17819W        W34293   0.230   6.390   5.059  0.1415 -0.0322 -0.2417
17820W        W34294   0.316   0.708   1.183 -0.0598 -0.1680  0.2470
17821W        W34295   2.002  13.903  14.069  0.5340  0.0163 -0.0888
17822W        W34296   0.911  14.982  13.476  0.0475 -0.1777  0.2123
17823W        W34297   2.800   0.011   4.167 -0.1204 -0.1903 -0.1719
17824W        W34298   3.264   0.195  12.580  0.0475 -0.2099  0.0656
17825W        W34299   0.699   5.200  14.278 -0.1893  0.1137  0.1895
17826W        W34300   4.538   0.359  15.841 -0.0458  0.1625  0.1516
17827W        W34301   3.401   8.727  14.644  0.3789  0.0551  0.0130
17828W        W34302   8.484  15.358   1.400  0.1618  0.3158 -0.0645
17829W        W34303  16.519   7.885   3.157 -0.1339  0.1268 -0.0090
17830W        W34304   0.661  11.438  13.419  0.2002 -0.0572 -0.0044
17831W        W34305  11.316  15.893  14.389 -0.1018 -0.1960  0.1165
17832W        W34306   7.620  13.546   0.706 -0.0660 -0.0927 -0.4113
17833W        W34307  18.289   7.305   1.329 -0.0227  0.1814  0.1677
17834W        W34308   4.941   6.971  14.612  0.1033  0.0222 -0.3317
17835W        W34309   4.317   3.898   0.343  0.1125  0.0450 -0.2080
17836W        W34310   1.350   7.717  13.751 -0.1025  0.3271  0.4650
17837W        W34311   1.201   0.565  14.938 -0.0702 -0.0198 -0.1819
17838W        W34312   7.354   4.954  11.545  0.3034 -0.0472  0.0679
17839W        W34313   2.217   4.444  15.803  0.2268  0.1471 -0.0124
17840W        W34314   6.842  11.455   4.302  0.2041 -0.0746  0.0740
17841W        W34315   0.005   0.512  15.050 -0.2610 -0.0296 -0.0931
17842W        W34316   8.281  15.935  14.551  0.1378  0.1756  0.0152
17843W        W34317   7.708  14.869   4.358  0.2977 -0.2270  0.1246
17844W        W34318  14.075  12.393   2.326  0.1750  0.0360  0.3142
17845W        W34319   8.983   3.508  11.305 -0.0841 -0.1160  0.1991
17846W        W34320   7.793   4.549  12.739 -0.3416 -0.0287 -0.0172
17847W        W34321   4.595   6.441   5.495  0.1837  0.1976  0.4422
17848W        W34322  10.054  11.751  15.152  0.1618 -0.1434  0.1694
17849W        W34323  16.751  17.133   2.168  0.4155  0.0431  0.2182
17850W        W34324   0.703  18.301  11.418  0.1706 -0.0127 -0.1152
17851W        W34325   8.079  10.890   0.786 -0.1647  0.2948 -0.2255
17852W        W34326  15.857  14.885  13.238  0.1741 -0.0975 -0.3076
17853W        W34327   9.579   9.093   0.890  0.0064  0.0168  0.3273
17854W        W34328   7.265  15.783   3.276 -0.0034 -0.2223  0.0287
17855W        W34329   2.930   6.773   4.656  0.1447 -0.0160 -0.3106
17856W        W34330  18.066  10.458   3.362 -0.3735 -0.1201  0.5019
17857W        W34331   0.372   1.901   3.320 -0.1124 -0.0136 -0.0242
17858W        W34332  10.964  14.241  14.006 -0.3389 -0.2735 -0.0573
17859W        W34333   6.811   7.443  13.617 -0.0587  0.2192  0.0725
17860W        W34334   3.488  14.933  15.598  0.0095 -0.0566 -0.0114
17861W        W34335   9.695   7.792  14.699 -0.0291  0.0683  0.1941
17862W        W34336   9.843   0.062  14.809  0.0422  0.0744 -0.2114
17863W        W34337   5.469  16.434   3.675 -0.0853  0.2210 -0.2386
17864W        W34338  11.853   3.518  11.776 -0.1390 -0.1523 -0.1010
17865W        W34339  15.281   0.823   3.556  0.1351  0.0507 -0.1259
17866W        W34340   1.887  12.642   3.802 -0.1601 -0.0995  0.0088
17867W        W34341   8.471   6.015   1.321 -0.1058 -0.1229  0.2791
17868W        W34342  16.797   0.111  12.310  0.3067  0.2049  0.1927
17869W        W34343   1.607   1.216  11.337  0.0567  0.1023  0.1320
17870W        W34344  15.205  10.934   4.886  0.0786 -0.2363 -0.0491
17871W        W34345   2.286   7.313   1.645  0.0718  0.0512 -0.3343
17872W        W34346  13.092  11.996  11.533  0.0568  0.1552  0.2494
17873W        W34347   7.354  17.091   4.505 -0.0363  0.2735 -0.1633
17874W        W34348  14.967   0.419  12.239  0.0115 -0.0154 -0.1409
17875W        W34349  10.037   5.894  12.389 -0.0913 -0.1784  0.2521
17876W        W34350   6.001  10.160  13.480 -0.3467  0.3380 -0.1611
17877W        W34351   4.129  14.428  16.071  0.0044 -0.0675 -0.0450
17878W        W34352   9.396   9.713  15.930  0.0852  0.0248  0.0319
17879W        W34353   7.853   8.950  12.521  0.0294  0.0642 -0.0974
17880W        W34354   4.476   3.058   2.838  0.0467  0.0647 -0.0113
17881W        W34355   4.016   5.096  16.052  0.0671 -0.1819  0.4261
17882W        W34356  12.659  10.846   5.842  0.1575 -0.0439  0.0193
17883W        W34357  11.369   4.641   2.293 -0.2058 -0.0506  0.3952
17884W        W34358   6.572  12.134   3.819 -0.2469  0.2755  0.3228
17885W        W34359  14.259  10.134   4.024 -0.2497  0.3398 -0.1228
17886W        W34360  13.627   2.746   2.166 -0.0129  0.0178 -0.1659
17887W        W34361  10.623   6.143  14.354  0.0916 -0.0439  0.0297
17888W        W34362   0.937   9.301  11.951  0.2895  0.2516  0.0693
17889W        W34363   1.492  14.158  15.057  0.2215 -0.2010  0.0253
17890W        W34364   1.068   4.614  12.204  0.3349 -0.1955 -0.3882
17891W        W34365  18.028   0.223  12.926  0.2482  0.0717 -0.0066
17892W        W34366   4.358  11.925   5.932 -0.0460  0.1491  0.0852
17893W        W34367  10.508  10.409   3.113  0.0141  0.2119 -0.1786
17894W        W34368   8.218   7.234  12.124 -0.0245 -0.1096  0.1851
17895W        W34369   5.605   2.746  15.535  0.1312  0.4210 -0.0834
17896W        W34370  11.963  11.658  15.118 -0.3499 -0.0498 -0.1634
17897W        W34371  17.493   3.798   3.916 -0.0497  0.0738  0.0013
17898W        W34372  11.474   1.661  11.425 -0.2265 -0.1038  0.2142
17899W        W34373   6.492  10.661  13.666  0.1984 -0.0853  0.0655
17900W        W34374  17.661   6.727   3.296 -0.1144 -0.0475 -0.1287
17901W        W34375   2.389  14.607  11.556 -0.0881 -0.0188 -0.1518
17902W        W34376  12.038   6.328  13.169  0.2855 -0.0421  0.1858
17903W        W34377  11.978  17.013  15.527 -0.0505  0.0614  0.1742
17904W        W34378   5.892  15.575  13.632 -0.0775 -0.2845  0.1982
17905W        W34379  12.729  13.243   5.147 -0.0398  0.1891  0.1780
17906W        W34380  11.702  14.363  11.932  0.0207  0.2236 -0.3991
17907W        W34381  10.690   2.541  12.584  0.2330  0.0664 -0.2700
17908W        W34382  12.414  17.523  16.114  0.3485  0.0126 -0.0517
17909W        W34383   2.470  11.410  13.685 -0.1249 -0.1399 -0.1833
17910W        W34384   4.060   9.684  14.071 -0.1439  0.0903  0.1190
17911W        W34385   5.038  15.873  11.616  0.0934 -0.0120  0.2988
17912W        W34386  16.466  12.510  16.025  0.0612 -0.2160 -0.4404
17913W        W34387   2.243  13.929  14.497 -0.3857 -0.0361  0.2335
17914W        W34388   1.724   1.013  13.072  0.0321 -0.3249  0.1189
17915W        W34389  11.832  13.802   3.177 -0.1115  0.0288 -0.1505
17916W        W34390   7.329   4.609   4.707 -0.0667 -0.0778  0.2997
17917W        W34391  11.588  14.207   2.339  0.0905  0.1350  0.1435
17918W        W34392  14.167  14.095  14.187  0.1715  0.0304 -0.0304
17919W        W34393  15.460  10.223  11.251 -0.1161 -0.0102 -0.2320
17920W        W34394  16.462   0.282  11.896  0.0756  0.1657  0.0600
17921W        W34395  16.421   5.575   3.968 -0.1711 -0.1295 -0.2556
17922W        W34396   0.855  16.415   2.877  0.2838  0.0154  0.2118
17923W        W34397  18.115  11.340  11.670  0.0197  0.2716 -0.1549
17924W        W34398   0.666  15.871  11.474  0.0027 -0.2328 -0.0293
17925W        W34399  12.918   6.098  12.659  0.0206  0.4353 -0.3119
17926W        W34400   1.254   5.215   3.346  0.2510  0.0190 -0.1816
17927W        W34401   1.085   9.217  14.272  0.0800  0.2891 -0.3361
17928W        W34402  11.212  10.475   3.614  0.0999 -0.1219  0.0646
17929W        W34403   4.791  17.151   1.867 -0.1430 -0.0073  0.0577
17930W        W34404   8.359   8.748  11.956 -0.1810  0.0113 -0.1260
17931W        W34405  10.912  15.209   2.167  0.0753  0.0781  0.1004
17932W        W34406   0.676   1.936  11.907  0.1181  0.3373 -0.0167
17933W        W34407  11.624   3.082   1.933 -0.1162  0.3146 -0.0429
17934W        W34408  16.686  10.969  15.061  0.1954  0.2620  0.2912
17935W        W34409  12.647   0.497   1.964 -0.0470 -0.1528  0.1830
17936W        W34410   9.167  11.733   4.587 -0.1138  0.0783 -0.1277
17937W        W34411   6.699   9.096   3.722 -0.2476 -0.0203 -0.1212
17938W        W34412  15.499   0.305  11.377 -0.4005  0.2754  0.1818
17939W        W34413  16.778  15.925  12.617  0.2248  0.1359 -0.4500
17940W        W34414   3.952  11.478   5.281 -0.0921 -0.2938  0.3689
17941W        W34415  13.416  10.849   2.165 -0.2218 -0.1281  0.2986
17942W        W34416  16.058  16.369  13.896 -0.1346  0.0264  0.0315
17943W        W34417   1.820  15.641  12.083 -0.2352  0.1567 -0.2097
17944W        W34418   4.894  10.111  15.870  0.1317 -0.0418 -0.2631
17945W        W34419   9.873  18.022   1.849  0.0288  0.2458 -0.1773
17946W        W34420  13.203   6.557  14.495 -0.2047 -0.1846 -0.0795
17947W        W34421   4.825   1.632   4.558  0.0282 -0.2892  0.0164
17948W        W34422   0.236   1.745   4.143 -0.1335 -0.0966 -0.1204
17949W        W34423  17.552   9.599   2.056 -0.0397  0.2966  0.0358
17950W        W34424  14.474  12.555   0.686  0.2995  0.1002 -0.1270
17951W        W34425   1.088   7.148  11.994 -0.0915 -0.2155 -0.0091
17952W        W34426   4.510  15.679  14.105 -0.0779  0.1198 -0.0937
17953W        W34427   4.078  15.956   3.612  0.0160  0.0025 -0.0441
17954W        W34428  13.947  16.932   2.939 -0.1924 -0.0927 -0.1126
17955W        W34429  12.645   9.748   0.393 -0.0974 -0.0371  0.0504
17956W        W34430   4.351   3.679  13.546 -0.1520  0.1588  0.0550
17957W        W34431   8.503   1.874  15.287 -0.1736 -0.0423 -0.2067
17958W        W34432  16.238  14.252   3.279  0.2083 -0.2517 -0.3352
17959W        W34433   4.144   4.663  10.478 -0.0590 -0.0739 -0.0192
17960W        W34434   4.582   1.352   4.202  0.0930  0.4291 -0.3125
17961W        W34435   6.959   6.883  13.553 -0.0233 -0.0043 -0.2328
17962W        W34436   2.659  17.790   1.196 -0.0876  0.1315  0.2819
17963W        W34437   9.449   9.228   4.669  0.1308  0.0528  0.1519
17964W        W34438  16.427   9.541   3.102  0.2587 -0.0074 -0.2595
17965W        W34439  12.302   2.587  15.347  0.1277 -0.0569  0.0272
17966W        W34440  18.002   1.272   3.034  0.0958  0.2070  0.0122
17967W        W34441  10.711  14.240   5.882  0.0747  0.1255 -0.1595
17968W        W34442  15.817  11.476  11.606  0.0850 -0.0446 -0.0812
17969W        W34443   0.763   2.527   1.539 -0.0275 -0.1092  0.4262
17970W        W34444  15.443   2.801   2.482  0.1290 -0.2425 -0.3177
17971W        W34445  11.603   7.759  12.826  0.2161  0.0347 -0.0312
17972W        W34446  15.667  12.479   3.358  0.0736 -0.1129 -0.1063
17973W        W34447  16.911  14.233  15.720 -0.3781  0.0744 -0.1371
17974W        W34448   2.509  13.038   1.212 -0.2954 -0.1191 -0.1283
17975W        W34449   6.642   7.814   2.726 -0.2592 -0.1380 -0.1266
17976W        W34450  14.567  12.926   0.326  0.0668  0.1858  0.1269
17977W        W34451   5.574  13.518  13.569 -0.3936 -0.2561 -0.0082
17978W        W34452   7.605  16.794   2.352 -0.1281 -0.1633 -0.0865
17979W        W34453  14.310  13.769   0.473 -0.3419 -0.3240 -0.0435
17980W        W34454  15.122   3.683  15.309  0.1735  0.0581  0.0042
17981W        W34455   0.664   9.933   4.792  0.2303  0.5763 -0.2469
17982W        W34456  10.910   7.016  15.465 -0.2571 -0.0659 -0.1120
17983W        W34457   8.647   2.386   2.573  0.1747 -0.1043  0.2865
17984W        W34458   1.480  10.801   0.185 -0.1971  0.2214  0.0722
17985W        W34459   7.254   9.852  13.397 -0.3620  0.1290 -0.2399
17986W        W34460   8.992  18.279   5.574  0.0315 -0.1364  0.1098
17987W        W34461  12.943  14.691   0.279 -0.1991 -0.0288 -0.0289
17988W        W34462   3.904   1.169  15.866  0.1774 -0.2615  0.1302
17989W        W34463   8.916  12.866   3.498 -0.1576  0.2061 -0.0673
17990W        W34464  15.693   5.281   0.494  0.1308  0.0228 -0.1270
17991W        W34465   0.870   1.538  15.764 -0.0501 -0.3629 -0.2240
17992W        W34466  12.926   0.383   4.212  0.0588  0.0654  0.0170
17993W        W34467   2.185  17.547   3.773  0.2031  0.0039 -0.0498
17994W        W34468   1.339  15.905   0.733  0.2686 -0.1032 -0.1055
17995W        W34469   0.595   4.158   2.738 -0.0103  0.0768 -0.0150
17996W        W34470   3.362  14.789  13.335  0.1255  0.2656  0.1801
17997W        W34471   8.560   1.990   3.451  0.2059  0.1046  0.0664
17998W        W34472   5.652  10.896   3.057 -0.1867 -0.0074 -0.0761
17999W        W34473  11.923   3.379  14.713  0.0031 -0.1941 -0.2808
18000W        W34474  18.286  11.687  15.067 -0.0987 -0.1885 -0.2774
18001W        W34475   4.435   6.980   3.126  0.1353  0.3288  0.1483
18002W        W34476   8.604  12.859  14.458 -0.1255  0.0822 -0.1604
18003W        W34477   4.512   1.140   0.279 -0.1626  0.0197 -0.1013
18004W        W34478  10.030  16.036   0.179  0.1566 -0.1265 -0.0915
18005W        W34479  14.387  15.246   4.763  0.1122  0.2933 -0.1245
18006W        W34480   5.951   1.436  15.760  0.0184  0.2578 -0.1268
18007W        W34481  15.700   1.556  15.566  0.2204 -0.0196  0.3267
18008W        W34482  17.947   2.891  14.534 -0.0381  0.1124 -0.1253
18009W        W34483  11.624  15.755   1.072  0.0367  0.1229  0.1093
18010W        W34484  17.293   3.581   3.516  0.0533  0.3028  0.3735
18011W        W34485   8.862   2.250  12.979  0.1018 -0.0611  0.4980
18012W        W34486   2.019  15.615  14.028  0.1800  0.1296  0.0195
18013W        W34487   2.831  10.957   5.023  0.3491  0.2000  0.2524
18014W        W34488   2.574  16.149   5.044  0.2884  0.3441  0.1492
18015W        W34489  17.218   6.096   5.393  0.0899  0.3349  0.1284
18016W        W34490   7.494  15.205  12.293  0.0992 -0.1494  0.0744
18017W        W34491   7.733  11.072   2.603  0.1102 -0.1529 -0.2360
18018W        W34492  15.426   3.147   2.135  0.0808  0.0876  0.3843
18019W        W34493  17.305  16.405  12.317 -0.0245  0.2349 -0.3003
18020W        W34494   2.725   3.164   0.618 -0.0269 -0.1025  0.0420
18021W        W34495  10.918  15.396   4.564 -0.2120  0.4852  0.0666
18022W        W34496  12.766  16.406   4.337  0.1215  0.0617  0.0063
18023W        W34497   9.532   5.790   2.702  0.1289  0.0236  0.0196
18024W        W34498   6.248  10.388  11.706  0.2119 -0.1190 -0.1270
18025W        W34499   2.417  12.765  14.168 -0.0796 -0.1233  0.0313
18026W        W34500   9.425   9.485  12.382 -0.1563  0.0167  0.1274
18027W        W34501   8.882  16.648  13.207  0.0643  0.0672 -0.1055
18028W        W34502   2.074  16.973  15.907  0.1319  0.0655 -0.0011
18029W        W34503  17.345   9.479  12.821 -0.0966  0.0391 -0.0163
18030W        W34504   8.226   1.967  10.908 -0.1639  0.0048  0.1956
18031W        W34505  13.730   0.634   0.735  0.0345  0.1286  0.0054
18032W        W34506   5.215   0.285   0.514 -0.0761 -0.2394  0.0308
18033W        W34507  13.052   6.580  12.480 -0.0370  0.1946  0.0166
18034W        W34508  13.116   1.194   4.442  0.1578 -0.0297 -0.0186
18035W        W34509   7.453  14.480   6.064 -0.1854 -0.0438 -0.0261
18036W        W34510   2.606   5.949   2.513 -0.3351  0.1416 -0.1880
18037W        W34511   6.809   1.213   2.084 -0.0567  0.1207  0.1963
18038W        W34512   4.441  16.317   4.583  0.1142  0.1686 -0.1561
18039W        W34513   2.935   9.908   5.099  0.2649  0.0712 -0.0032
18040W        W34514   4.716  13.356   1.988  0.0521 -0.1465  0.1998
18041W        W34515  10.945  16.759   1.353  0.2592  0.0915  0.2748
18042W        W34516   6.150   9.084  11.438 -0.2627  0.1010  0.1768
18043W        W34517   9.888   6.619   3.717  0.0416  0.0605 -0.1247
18044W        W34518   0.005  14.054   0.798  0.1589 -0.1452  0.1554
18045W        W34519  14.127   5.569  13.886  0.3227  0.2444  0.0864
18046W        W34520   2.428   3.191  10.901 -0.1520 -0.1237 -0.2519
18047W        W34521   1.753   8.162   3.053 -0.1187 -0.0031  0.0946
18048W        W34522  11.086  17.409   2.917  0.0359  0.2543  0.2651
18049W        W34523   3.965   0.852  14.337 -0.2350 -0.0522  0.0909
18050W        W34524   8.313   2.108  13.030  0.0895  0.3920  0.0356
18051W        W34525   5.670   8.812   4.896  0.2041 -0.0174  0.0276
18052W        W34526   7.413   8.013  13.370 -0.1917 -0.2803 -0.0640
18053W        W34527  16.603  10.316  15.629  0.0755  0.4237 -0.0628
18054W        W34528   1.833  16.037  13.617  0.0991 -0.1370  0.0814
18055W        W34529   0.882  17.476   1.043  0.0640 -0.1309  0.0700
18056W        W34530  11.448  16.705   4.443  0.2777  0.3720 -0.0954
18057W        W34531   7.685  11.026   3.214  0.0304 -0.0387 -0.1673
18058W        W34532   6.563  14.470  15.582  0.4658  0.1966  0.0386
18059W        W34533   1.965   4.449   3.138  0.3958  0.0159  0.1715
18060W        W34534   3.801  14.103   2.904  0.2073  0.1113  0.0638
18061W        W34535   3.946   0.225  13.672  0.1197  0.2295 -0.3086
18062W        W34536  13.118   7.140   2.345 -0.0393 -0.1984 -0.0220
18063W        W34537   0.198   2.689  14.661  0.0985  0.2965  0.3232
18064W        W34538  11.484   0.308   4.111 -0.0121 -0.0115  0.0703
18065W        W34539  10.161   4.061  13.767 -0.2541 -0.1834 -0.0593
18066W        W34540  10.029  14.940   3.342 -0.0203 -0.1445  0.0145
18067W        W34541   1.052  13.559  15.545  0.1788  0.1561  0.3107
18068W        W34542  10.256   0.164   4.279  0.0213 -0.0050 -0.3749
18069W        W34543   9.185  10.326   0.592  0.0293  0.0243  0.2543
18070W        W34544  14.512  16.674   1.147  0.3244  0.1698  0.3003
18071W        W34545  15.065   9.976   4.537  0.3047  0.0908  0.1023
18072W        W34546   9.106   9.223   1.699  0.1419 -0.0402 -0.1412
18073W        W34547  10.533   4.464  15.191  0.4445 -0.1599 -0.1405
18074W        W34548   8.225  16.155   6.471 -0.1300 -0.3667  0.1667
18075W        W34549  17.442  14.131   5.048 -0.1383 -0.2150  0.0587
18076W        W34550   5.557  15.825   4.528  0.0186 -0.0218  0.1243
18077W        W34551  12.020   3.409   1.928 -0.0305 -0.1449 -0.0111
18078W        W34552  13.466   9.009   5.257  0.1814 -0.0360 -0.1255
18079W        W34553   9.581   7.706   2.412 -0.2997  0.0507 -0.2467
18080W        W34554  12.077  15.165  14.989 -0.4407 -0.1917  0.0018
18081W        W34555  12.304   9.836   6.147 -0.3411  0.0274  0.0463
18082W        W34556  15.445  16.111  13.951 -0.1831  0.0066  0.0759
18083W        W34557   0.084   9.037   0.781  0.1036 -0.0179 -0.0549
18084W        W34558  12.401  12.512  14.404  0.1306  0.0901  0.0900
18085W        W34559  11.799   1.895  15.451 -0.2174 -0.3662  0.2178
18086W        W34560   1.678   0.158   3.595 -0.1904  0.1444  0.2659
18087W        W34561   3.494   3.419  13.237  0.0408  0.1431  0.0922
18088W        W34562  10.855   2.302   3.202 -0.2340  0.0714 -0.1782
18089W        W34563  13.663  11.553   0.767  0.0907 -0.2940 -0.1559
18090W        W34564   8.885  14.768   0.751  0.1581  0.0246 -0.2974
18091W        W34565   2.505   1.643   1.043  0.0004  0.0231 -0.0760
18092W        W34566  12.985   5.085  11.064  0.1476 -0.1187  0.1306
18093W        W34567   8.449  14.405   0.260  0.1050 -0.0947  0.2332
18094W        W34568   2.162   9.727  11.765  0.1777  0.0141  0.1413
18095W        W34569  14.951   4.967  11.832 -0.0311  0.1957  0.1173
18096W        W34570   5.306  16.816   0.676  0.0894 -0.1019  0.0263
18097W        W34571  12.111  10.641  11.995  0.2033 -0.0989 -0.0868
18098W        W34572   6.941   2.736  15.965 -0.0047 -0.3672 -0.0103
18099W        W34573   0.682  11.786   5.287 -0.0868  0.0688 -0.0226
18100W        W34574   7.792   6.750  12.246 -0.2135 -0.0897  0.1636
18101W        W34575   8.758   1.188   0.356  0.1667 -0.3172 -0.1072
18102W        W34576   8.831   4.029  13.231  0.2428  0.1766 -0.1720
18103W        W34577   9.069   8.976  13.085 -0.0035  0.0447 -0.3930
18104W        W34578  14.116  14.559   1.512 -0.0745  0.1151 -0.0123
18105W        W34579  14.398   9.719  14.313  0.0429  0.0794 -0.2275
18106W        W34580   5.017   8.005  16.067 -0.2632  0.4509  0.0776
18107W        W34581   6.548  18.278   0.207 -0.0189  0.1897  0.2597
18108W        W34582   7.389   4.607   1.354 -0.0385 -0.3126 -0.1163
18109W        W34583  18.022  12.078  14.978 -0.1597  0.0740  0.3652
18110W        W34584  14.040  18.189   2.252 -0.1463 -0.3535 -0.1487
18111W        W34585  14.186   7.352   1.166  0.1109 -0.0677 -0.0725
18112W        W34586   6.767   1.721   0.320 -0.1779  0.0597  0.1200
18113W        W34587   9.328  15.194   4.571 -0.1110 -0.2626 -0.1934
18114W        W34588  11.875   5.038   4.038  0.0658 -0.0277  0.0003
18115W        W34589   0.527  11.682  11.597  0.2473 -0.0270  0.2777
18116W        W34590   0.086  14.621  11.292  0.0076 -0.3646  0.0167
18117W        W34591   0.360  10.417   1.537  0.5165 -0.0885 -0.0554
18118W        W34592  14.576   6.551  13.067 -0.0505  0.3008  0.1192
18119W        W34593  14.072   0.675  13.461 -0.1850  0.0355  0.0801
18120W        W34594  15.832  17.725  10.387 -0.2747  0.1693  0.0637
18121W        W34595   8.635   3.933  16.126  0.2673 -0.3326 -0.1495
18122W        W34596   0.515   1.336  16.049 -0.0391  0.2188 -0.1233
18123W        W34597   1.624   6.941   4.349  0.0679  0.0516 -0.1961
18124W        W34598  12.116   5.723  13.408  0.0843 -0.0664  0.0294
18125W        W34599  13.718   3.930   2.179 -0.0528 -0.0216 -0.1415
18126W        W34600   1.638  16.198   2.444 -0.1707  0.1980  0.2307
18127W        W34601   3.776  15.899   1.130 -0.1560 -0.2524  0.2785
18128W        W34602   8.713   0.033   3.185  0.0863 -0.0665 -0.0243
18129W        W34603   9.668  18.145   3.221 -0.1891 -0.0694 -0.3137
18130W        W34604  10.869  10.141   3.851  0.0463 -0.0684  0.0904
18131W        W34605   3.178   2.869   3.873  0.0580 -0.0152 -0.0251
18132W        W34606  17.292  16.675  11.883  0.4039  0.0677 -0.0271
18133W        W34607   1.392  11.069  11.271  0.0986 -0.0489  0.2150
18134W        W34608  11.178   8.353  11.709  0.1464 -0.2846  0.0281
18135W        W34609  13.734  16.444   2.785  0.3023 -0.0578  0.0094
18136W        W34610  12.591  11.410   3.816  0.0028  0.0198 -0.0790
18137W        W34611   5.047  18.008   0.116  0.1580  0.2349  0.1042
18138W        W34612   0.697  12.494  13.234 -0.0890 -0.2981 -0.0035
18139W        W34613  12.065  15.899  12.214  0.0612  0.1924  0.3091
18140W        W34614  17.045   7.845  11.994  0.0318 -0.3124  0.1297
18141W        W34615  12.486   2.543  13.564  0.2012 -0.1960 -0.2454
18142W        W34616  13.006  12.354   4.710 -0.2913  0.1542 -0.0669
18143W        W34617  13.154   5.762   4.067  0.2422  0.0137  0.0492
18144W        W34618   7.043   0.136   2.931  0.0375  0.2444  0.0527
18145W        W34619  14.393  15.896  14.897 -0.0932  0.1272  0.0559
18146W        W34620   6.933   6.965   1.231 -0.2772  0.2627  0.0603
18147W        W34621  11.142  14.390   0.765  0.0492 -0.2666  0.0098
18148W        W34622   2.034  12.774  15.227  0.0193  0.0822 -0.1695
18149W        W34623   8.882  10.516   1.163 -0.2515  0.1644  0.3531
18150W        W34624  14.802   5.811  16.177  0.3320  0.1140 -0.2896
18151W        W34625  12.170  15.818   5.073  0.0683  0.0325 -0.0066
18152W        W34626   6.258  13.283  16.114 -0.1082  0.1222 -0.1118
18153W        W34627  14.386   7.775   0.824 -0.3388  0.1837 -0.1220
18154W        W34628   3.370   3.272  11.760 -0.2151 -0.0681  0.1189
18155W        W34629   0.056  16.902   4.105  0.3713 -0.0602 -0.1738
18156W        W34630  10.234  15.062   4.013  0.0343 -0.0841 -0.0859
18157W        W34631  11.101   1.491   3.119  0.2324  0.1932  0.1116
18158W        W34632   1.020   3.895  14.531  0.1682  0.3046 -0.3557
18159W        W34633   7.415   0.894  12.332  0.0215  0.0383  0.1592
18160W        W34634  15.818  13.208   5.610  0.0657 -0.1879  0.0117
18161W        W34635   7.542  13.054   5.751  0.1991 -0.3205 -0.2365
18162W        W34636   1.647   3.930   4.227  0.2390  0.0564  0.1528
18163W        W34637   6.900   7.526   3.112 -0.0612 -0.2640  0.0519
18164W        W34638   7.979  17.277  13.450 -0.0378  0.1873  0.2535
18165W        W34639   4.647  13.956  16.150 -0.3353  0.0804  0.0049
18166W        W34640   5.052  14.748   5.148  0.2728 -0.2582 -0.2105
18167W        W34641   8.645   9.793   3.440 -0.3941 -0.0926  0.2589
18168W        W34642   8.122  17.738  16.265  0.2069  0.0006  0.0605
18169W        W34643   6.419   6.507   2.532  0.0055 -0.1813  0.0241
18170W        W34644   1.881  10.413   1.888  0.2854 -0.2792 -0.0187
18171W        W34645   5.285   1.873  12.301 -0.0431 -0.3706  0.0055
18172W        W34646  18.260  12.415  13.972  0.1618 -0.1791  0.3544
18173W        W34647  12.952   7.166  15.080  0.4647 -0.0728  0.0081
18174W        W34648  18.290   1.688   2.397 -0.3134 -0.3020 -0.1983
18175W        W34649   3.321   8.304  15.350 -0.2240 -0.1484 -0.0580
18176W        W34650   7.978  14.567   0.131 -0.1059  0.0958 -0.0936
18177W        W34651   6.051   3.600  11.517 -0.1391 -0.0339  0.0175
18178W        W34652  16.887  16.051  12.170 -0.2317  0.1147  0.3786
18179W        W34653  13.761   8.432  12.669  0.1050  0.0015 -0.0091
18180W        W34654  15.771   5.947  14.101 -0.6521 -0.1730  0.1924
18181W        W34655   6.188  17.930  15.594  0.0830  0.4405  0.1153
18182W        W34656   4.171   9.964  14.773  0.2535 -0.1835 -0.1376
18183W        W34657   2.744   3.610   2.808 -0.0597 -0.0008  0.1718
18184W        W34658  16.622  15.087   0.234  0.2711 -0.2063 -0.1135
18185W        W34659  14.667   9.792  12.363 -0.1020 -0.0827 -0.0018
18186W        W34660  11.346  10.854  16.104 -0.0575  0.0161 -0.1165
18187W        W34661  11.783  16.808  14.296  0.2076  0.1102 -0.0484
18188W        W34662   3.382   7.939  14.476 -0.2266 -0.0695 -0.2603
18189W        W34663   1.113  16.340   0.416 -0.3595 -0.0431  0.1071
18190W        W34664   8.325   9.457  12.461  0.3283  0.1035  0.0919
18191W        W34665  13.029   8.793   3.817 -0.0866 -0.4239 -0.1435
18192W        W34666  12.201   4.597   1.279  0.1464  0.0265  0.0385
18193W        W34667  10.748   2.122   0.207  0.3712 -0.0414  0.1576
18194W        W34668  13.613   0.087   0.903  0.1443 -0.1015 -0.2885
18195W        W34669  17.778  12.884  11.179 -0.2039 -0.2083  0.3750
18196W        W34670   5.166   4.110   4.055  0.1524 -0.0354  0.0958
18197W        W34671   5.449  10.510   5.001  0.1671 -0.2253 -0.2826
18198W        W34672   5.661   1.804   5.365 -0.1383  0.1727  0.0967
18199W        W34673  14.411  10.712   3.784  0.1770 -0.0143 -0.1442
18200W        W34674  10.783  10.548  12.018  0.0274  0.2401 -0.4453
18201W        W34675  10.192  18.150  13.850  0.3482  0.1368  0.1937
18202W        W34676   2.545   9.726   1.743 -0.1673  0.2499  0.0388
18203W        W34677   1.248   1.378   4.351 -0.3076  0.3337 -0.0729
18204W        W34678  12.296   3.591   0.545 -0.0600 -0.2508  0.0929
18205W        W34679   0.664   3.247   0.897  0.0947 -0.3555 -0.0700
18206W        W34680   8.979  11.265  14.149 -0.3285 -0.1316  0.0243
18207W        W34681  12.738  10.811  11.918  0.1254 -0.0263  0.0772
18208W        W34682  11.598   1.291   3.222  0.1543 -0.0921 -0.1484
18209W        W34683   3.368  12.651  14.654 -0.0108 -0.0599 -0.0871
18210W        W34684   0.867  17.242   5.741  0.2774 -0.0477 -0.2103
18211W        W34685  14.342  15.252  12.104  0.0662 -0.3483  0.4165
18212W        W34686  17.475   9.144   2.489  0.0432  0.2547 -0.1037
18213W        W34687  13.441  16.563  15.842 -0.0437  0.0885  0.3747
18214W        W34688  10.481  10.583  15.952  0.0353 -0.0571 -0.3729
18215W        W34689   0.853   4.699   3.890  0.1927  0.1331  0.0319
18216W        W34690   6.152   1.707  14.138 -0.1431 -0.1694  0.1428
18217W        W34691   8.930   1.144  12.031  0.1567  0.0001  0.0202
18218W        W34692   3.625  14.727   1.661  0.1513  0.1613  0.1116
18219W        W34693  15.410   7.830   6.035  0.0525  0.2042 -0.2469
18220W        W34694   8.350   3.828   3.483  0.1422  0.2438 -0.3507
18221W        W34695   2.978   0.075  15.742  0.2897  0.2723 -0.3376
18222W        W34696  17.856   0.870  13.306  0.0190 -0.1617  0.0885
18223W        W34697   4.724   9.847   5.804 -0.2190 -0.0010  0.0824
18224W        W34698   8.908   0.839   2.059  0.1989 -0.0820  0.1290
18225W        W34699   9.764  16.677   5.217  0.1462  0.2025 -0.3800
18226W        W34700   5.221   9.784  14.055 -0.0386  0.2283  0.2679
18227W        W34701  11.307  10.799   0.412  0.0277  0.2752 -0.1072
18228W        W34702   7.092   9.036  14.613  0.2020  0.1396  0.3147
18229W        W34703   6.398  17.876  14.729  0.2814 -0.0018 -0.0971
18230W        W34704   1.021  13.896  15.136  0.0693  0.3155  0.2225
18231W        W34705   3.194   5.183   0.153 -0.0659 -0.0320  0.0386
18232W        W34706   2.873  15.659  16.318 -0.2361  0.0868 -0.4147
18233W        W34707  10.319   1.170   1.608 -0.0071  0.0985 -0.2083
18234W        W34708   0.055  15.922   3.697  0.2121  0.0780 -0.1300
18235W        W34709  10.159   6.769  14.794  0.1550  0.0057 -0.0647
18236W        W34710  12.543   4.620   0.713  0.1154 -0.0971  0.0852
18237W        W34711  17.508   0.030   1.263 -0.1393 -0.0323 -0.2059
18238W        W34712   3.111   8.354   4.655  0.0018  0.3064 -0.0089
18239W        W34713   1.317   7.877   0.631  0.0527 -0.6339 -0.2106
18240W        W34714  16.453   9.428  13.251 -0.1439  0.0717  0.0617
18241W        W34715   9.581   6.473   1.984  0.0878  0.3342  0.3288
18242W        W34716  12.835   8.622   4.297  0.1796 -0.0063 -0.1346
18243W        W34717  18.131  16.163   3.106 -0.4150 -0.0138  0.2186
18244W        W34718   4.466  17.200   3.984 -0.4102 -0.1339  0.0381
18245W        W34719   0.480   5.552   2.612 -0.2218 -0.1243  0.1997
18246W        W34720   5.263   5.121  15.681 -0.0917 -0.0927  0.0213
18247W        W34721   2.814   4.455   1.158 -0.1138  0.0582 -0.1175
18248W        W34722  12.851   1.890  15.831 -0.0128 -0.4038  0.1719
18249W        W34723   4.787   0.638   5.889 -0.0712  0.0826 -0.0123
18250W        W34724  10.077  12.439  12.712  0.3317  0.3497 -0.0240
18251W        W34725   3.731   3.867   5.885 -0.1236 -0.0669 -0.1663
18252W        W34726  12.984  13.099   5.812 -0.0567  0.2077  0.0344
18253W        W34727   0.305  14.076   3.459 -0.1423  0.0443  0.1513
18254W        W34728   9.558  10.842  15.017 -0.1406 -0.1973 -0.1853
18255W        W34729   1.408   4.337   4.067 -0.0110  0.0503 -0.1292
18256W        W34730   4.060  12.061   5.289  0.1028  0.2836  0.0475
18257W        W34731  15.705   7.264  14.649  0.1302  0.0794  0.3677
18258W        W34732   8.471   4.969  12.264 -0.0362 -0.1742  0.0601
18259W        W34733  12.479   5.988  13.655  0.1471 -0.0078  0.1405
18260W        W34734   3.979  14.070  13.038 -0.0450 -0.1922  0.0429
18261W        W34735  12.591   7.786   5.791  0.1162  0.2002 -0.2563
18262W        W34736   4.605   0.189   0.750  0.1182  0.0478 -0.1814
18263W        W34737   2.300  13.585  15.254  0.2145 -0.1461  0.3357
18264W        W34738   0.594  10.101  14.474 -0.1316  0.1807  0.1851
18265W        W34739   7.922   1.773   3.428  0.2519 -0.4342 -0.0025
18266W        W34740  17.724   9.048   4.354 -0.3496 -0.2531 -0.1788
18267W        W34741  11.904   9.968  12.496  0.2939  0.0353 -0.0363
18268W        W34742   3.092  12.186  14.858 -0.0788  0.0056 -0.1080
18269W        W34743   5.296  14.320  15.288  0.1563  0.0078 -0.0224
18270W        W34744  14.645  11.054  11.720 -0.0939  0.1877 -0.1411
18271W        W34745  14.849  16.125  12.594  0.0491 -0.2492  0.2563
18272W        W34746   1.038   5.494  16.155  0.1402  0.1744 -0.3142
18273W        W34747   6.429   2.289  15.881 -0.1423  0.1181  0.0548
18274W        W34748  12.559  16.358  14.837 -0.1849  0.1152  0.0747
18275W        W34749  16.696   9.875  13.207 -0.2322  0.1556  0.0652
18276W        W34750   4.660  16.203  14.928 -0.0711 -0.3714 -0.0961
18277W        W34751   7.411   5.366   2.581  0.0628 -0.3229 -0.2944
18278W        W34752   2.507  17.857  13.200  0.0841  0.0142  0.1175
18279W        W34753  13.787  17.182  14.379 -0.2416 -0.0483  0.2190
18280W        W34754   3.499   5.110  12.763  0.0024 -0.1247 -0.1471
18281W        W34755  11.833   4.141  15.800 -0.1885  0.2309  0.1248
18282W        W34756   0.658  14.585  12.168  0.2715  0.2088 -0.1813
18283W        W34757   1.380   4.949   4.566  0.0672  0.1301 -0.1924
18284W        W34758  18.021  16.487   1.800  0.2295  0.0584 -0.0137
18285W        W34759   6.634  12.199  13.762  0.0825  0.1426  0.2134
18286W        W34760   2.914   4.805   4.956  0.0535  0.1042  0.1560
18287W        W34761   8.945  15.602  12.831  0.0579 -0.0832 -0.1474
18288W        W34762   6.884  11.435  15.860 -0.0635  0.2511  0.1411
18289W        W34763  17.595  13.234   4.721  0.3641  0.2170 -0.2828
18290W        W34764  17.582   1.689  16.077  0.0954 -0.1374  0.2919
18291W        W34765  17.781  15.137  12.820  0.0042  0.2027  0.0084
18292W        W34766  17.507  15.417  12.363  0.0247  0.2386 -0.0253
18293W        W34767  12.159   8.249   5.427 -0.2090  0.1395 -0.0382
18294W        W34768   5.802  12.154  15.337 -0.1954  0.1385 -0.0805
18295W        W34769   8.815   7.342   0.680 -0.2805 -0.1282  0.0267
18296W        W34770  17.243   5.232   3.805 -0.1559  0.0717  0.3185
18297W        W34771   2.522  17.156   3.748 -0.1932  0.0151 -0.2169
18298W        W34772   6.313   8.390   1.435  0.2848  0.0583  0.2608
18299W        W34773   0.688  17.997   5.194 -0.1605 -0.1448 -0.0283
18300W        W34774   7.722   0.967   3.049 -0.1310 -0.2125 -0.1042
18301W        W34775  11.859   7.828   5.131 -0.1915 -0.1104  0.2436
18302W        W34776   9.383   7.435   5.121  0.0375  0.0106  0.0477
18303W        W34777  12.848   2.208  13.333 -0.1586 -0.1343  0.1762
18304W        W34778   3.763  15.746   3.936  0.1141 -0.2185  0.0091
18305W        W34779   4.671   2.820   5.367  0.0514 -0.1085  0.0452
18306W        W34780   1.685  15.142   5.376 -0.2960 -0.0527  0.0529
18307W        W34781   3.230  17.906   3.416 -0.3208  0.1959  0.0625
18308W        W34782  17.065   7.989  15.665  0.1770 -0.3436 -0.0557
18309W        W34783  10.536   9.922   3.026  0.0852 -0.1889  0.0418
18310W        W34784   0.189  14.374  12.165  0.0149 -0.3440 -0.1448
18311W        W34785   0.851   3.376  14.523 -0.3304 -0.2457  0.0883
18312W        W34786   8.329  13.875   1.796 -0.0102  0.0772 -0.1500
18313W        W34787   0.835   4.436  11.775  0.2509 -0.0823  0.0165
18314W        W34788   2.989   4.205   4.183  0.0002 -0.1250 -0.1329
18315W        W34789   7.617   3.693  14.466 -0.0994 -0.1282 -0.1776
18316W        W34790  11.997   0.199   0.657 -0.5085 -0.2391  0.1414
18317W        W34791   1.584   1.037  15.608  0.0213 -0.4277  0.0578
18318W        W34792   9.156  17.234   6.213  0.3317  0.1266 -0.1535
18319W        W34793   7.472   0.911  13.388  0.0182 -0.1413  0.0616
18320W        W34794   0.602  17.612  12.951 -0.1761 -0.0126 -0.0279
18321W        W34795   7.374  10.280   0.030 -0.0268  0.1242  0.1957
18322W        W34796   6.410  12.174  11.683  0.2679 -0.2552  0.0394
18323W        W34797  12.525  13.738   1.950 -0.1180  0.2823 -0.0252
18324W        W34798   5.291   5.716   0.677  0.3087  0.0106 -0.1588
18325W        W34799  17.404  13.616   0.095 -0.0439  0.0718 -0.3053
18326W        W34800   0.038   5.541  13.560 -0.3664 -0.1281  0.2192
18327W        W34801  16.495   0.688   2.107  0.1893 -0.0823  0.1286
18328W        W34802   7.915   2.960   2.123 -0.0110 -0.2163 -0.1335
18329W        W34803   6.278   4.215   0.663  0.0296  0.1312 -0.0891
18330W        W34804  10.707   0.048   5.126 -0.3306  0.2950  0.0573
18331W        W34805   4.821  11.619   5.225  0.0632 -0.1089 -0.1181
18332W        W34806   0.806   5.456  13.358  0.0296  0.0823  0.1159
18333W        W34807  17.919  13.238  13.375  0.0883  0.1227  0.3409
18334W        W34808   2.137   5.099   0.679  0.1907  0.0706  0.0832
18335W        W34809   9.537  15.427  14.755  0.0231  0.0698 -0.1185
18336W        W34810  15.086  14.840   3.799  0.1253  0.0484 -0.0777
18337W        W34811   2.062   1.743   0.183  0.4115  0.0739 -0.1241
18338W        W34812  14.775   5.732   0.640 -0.1971  0.0503 -0.0373
18339W        W34813   9.218  14.663   2.733  0.0117  0.0567  0.0537
18340W        W34814   4.415   3.932  14.735 -0.1762  0.0084 -0.1763
18341W        W34815  12.591   0.025   4.278 -0.2643 -0.0679 -0.1070
18342W        W34816   0.123   6.745   1.427  0.0799 -0.2601  0.3529
18343W        W34817  14.863   2.768  15.418  0.0806  0.3548  0.0960
18344W        W34818   6.449   7.331   1.898 -0.1693 -0.0673  0.2983
18345W        W34819   9.444  17.536  16.005 -0.0899  0.3876 -0.0363
18346W        W34820   2.822  17.225  16.306  0.1301 -0.2347 -0.0933
18347W        W34821  12.832   4.287  13.444 -0.2983  0.1100 -0.0295
18348W        W34822   2.569  13.407   0.456 -0.3114 -0.1625  0.0028
18349W        W34823   7.383   9.661   4.096  0.0423 -0.0598 -0.1554
18350W        W34824  13.510   4.196  14.742 -0.0156 -0.1902  0.0993
18351W        W34825  16.198  13.372  15.530  0.0375 -0.1238 -0.0545
18352W        W34826  16.850  15.655  13.669  0.1472 -0.0192  0.1157
18353W        W34827   8.704   7.712   5.793 -0.1057 -0.2101 -0.1024
18354W        W34828  12.221   2.969  13.859  0.4209 -0.0403 -0.2348
18355W        W34829   0.905   5.670  14.241  0.1534  0.0924  0.0944
18356W        W34830  12.818  14.462   0.701 -0.0820 -0.2260 -0.1728
18357W        W34831   4.372  13.952  14.173  0.0233  0.0211  0.1905
18358W        W34832  10.238   9.695   0.001  0.0766 -0.2745 -0.2523
18359W        W34833  15.765   5.716  12.099 -0.1309  0.0248 -0.0187
18360W        W34834   0.872  15.103   3.391 -0.1455 -0.0213  0.0427
18361W        W34835   6.944   4.897  13.900 -0.2673 -0.3055 -0.1632
18362W        W34836   2.280  14.299  14.076 -0.0302 -0.2628 -0.1970
18363W        W34837   2.444  11.447  16.162  0.4144  0.0772 -0.0666
18364W        W34838  13.223   1.980  14.858  0.1196 -0.2319 -0.1020
18365W        W34839   9.045  14.628  15.092  0.1287 -0.2101 -0.0507
18366W        W34840   9.590  15.703   3.688  0.0611 -0.0178  0.0787
18367W        W34841   4.753   5.517   0.869  0.0191  0.0714  0.0839
18368W        W34842   4.081  11.004   4.011 -0.1126  0.0453  0.1035
18369W        W34843   5.733   1.412  11.224 -0.2160  0.2181 -0.0926
18370W        W34844   5.831   2.589  11.761  0.1303 -0.1227  0.1411
18371W        W34845  10.332   4.978   2.027 -0.0314  0.2048 -0.1168
18372W        W34846  10.175  17.575   1.288 -0.0492  0.1575  0.2889
18373W        W34847   9.510   6.772   2.375 -0.2165 -0.0436  0.2500
18374W        W34848   4.022  16.599   1.133  0.0329 -0.0133  0.2564
18375W        W34849  15.941  14.657   3.971 -0.1563  0.2592  0.2060
18376W        W34850  12.542   7.086  16.218 -0.4420 -0.0628 -0.1880
18377W        W34851   5.731  15.468  12.244 -0.0118 -0.2975  0.0750
18378W        W34852  14.354  14.480   1.077  0.0600  0.2149 -0.4729
18379W        W34853  17.094   4.535   4.068 -0.0589  0.0389 -0.1594
18380W        W34854   9.052   2.992  11.288  0.2824 -0.0145 -0.2276
18381W        W34855  14.381  11.211   0.281 -0.0073  0.3150  0.4103
18382W        W34856  12.842   4.805  12.499 -0.1662 -0.2028 -0.0915
18383W        W34857   1.289   2.677   1.304 -0.4940  0.0522  0.1149
18384W        W34858   1.561   2.901   1.656 -0.3482  0.1569 -0.1475
18385W        W34859   1.203   7.128  12.964 -0.1634  0.3720 -0.2299
18386W        W34860   6.279  14.164  15.853 -0.2255 -0.3499 -0.1015
18387W        W34861   9.760   3.704   0.104 -0.3208 -0.3120  0.3560
18388W        W34862   4.567  17.393  11.536  0.1605 -0.0777  0.1947
18389W        W34863   2.967   0.542   3.215 -0.0948  0.1241 -0.1707
18390W        W34864  17.197   0.812   2.352 -0.0894 -0.0671  0.1312
18391W        W34865   3.329   9.910  12.916  0.1491 -0.0262 -0.0135
18392W        W34866   8.602   3.733  11.715 -0.1241  0.0888  0.0571
18393W        W34867   6.930  13.365  13.521 -0.0888 -0.0148  0.1035
18394W        W34868  10.160   9.025   3.454 -0.1534 -0.1613  0.0707
18395W        W34869  14.908   6.672   1.049  0.0862 -0.0315 -0.0190
18396W        W34870  17.910  14.142   2.965  0.1930 -0.2194  0.1137
18397W        W34871  14.667   6.679   3.433 -0.0380 -0.4240 -0.1456
18398W        W34872  16.534  11.909   3.369 -0.2321 -0.0902 -0.1645
18399W        W34873  13.711  13.016   3.403  0.2116  0.0948 -0.1487
18400W        W34874   5.037   3.977   2.367  0.0813  0.2327 -0.1308
18401W        W34875  16.405  10.814   0.863 -0.0987  0.1951  0.0877
18402W        W34876   4.323  15.534   2.457 -0.0442  0.1223  0.0778
18403W        W34877   4.048   3.411  12.910  0.2045  0.2099 -0.0461
18404W        W34878  11.839  17.497  15.550  0.0944 -0.0699  0.2077
18405W        W34879   3.775   8.919   2.957 -0.1958  0.0190 -0.3441
18406W        W34880  13.478  13.479   3.502  0.3098  0.0553  0.1566
18407W        W34881   3.744  11.983   4.417  0.1268 -0.0668  0.2328
18408W        W34882  15.662   2.131   1.295 -0.0381 -0.1995  0.0625
18409W        W34883   6.810  12.426   0.090 -0.2697  0.3156  0.0465
18410W        W34884   8.824   5.227   2.051 -0.0146 -0.2555 -0.0753
18411W        W34885  16.937  16.752   2.459  0.2138  0.0302  0.1675
18412W        W34886  14.565  13.953  14.935 -0.2209  0.0163 -0.3191
18413W        W34887  13.370  15.982   2.775  0.0578  0.0685  0.2281
18414W        W34888   1.372   6.234   2.726  0.1547  0.1288 -0.3038
18415W        W34889  16.618   0.132  14.790  0.1697 -0.0554 -0.0161
18416W        W34890  13.830  12.332   0.225  0.2628 -0.0345 -0.0190
18417W        W34891  18.007   4.918   5.310 -0.1924 -0.0296  0.1155
18418W        W34892  18.061  13.775   1.655  0.0770 -0.1002  0.0313
18419W        W34893   8.917   3.042  15.902 -0.2202 -0.0852  0.3276
18420W        W34894  10.334   1.892   3.815 -0.1197 -0.1963 -0.3653
18421W        W34895  14.434  11.559   5.077 -0.2586  0.1186  0.2993
18422W        W34896   5.517   0.601  16.078 -0.1257 -0.1118 -0.3596
18423W        W34897  11.553   4.952   4.883  0.0886 -0.0570 -0.1872
18424W        W34898   4.762   1.110  11.538 -0.0347 -0.1119 -0.1908
18425W        W34899   6.137  17.824   4.053 -0.0297  0.1362  0.1296
18426W        W34900  11.590  11.296  15.310 -0.2219  0.1178  0.0510
18427W        W34901  10.436  12.824  13.560 -0.0136  0.0672  0.2611
18428W        W34902  14.433   5.188  13.079  0.0935  0.2524  0.1256
18429W        W34903  13.222   6.557  12.018  0.2294  0.0886  0.1843
18430W        W34904   4.606  10.678   0.780 -0.2190 -0.2054  0.3151
18431W        W34905   7.181  13.454  12.581  0.5413  0.0534  0.2427
18432W        W34906  14.502  10.632  13.509  0.0558  0.4744 -0.2276
18433W        W34907   9.140  16.044  15.439  0.3190 -0.1012  0.0578
18434W        W34908  16.697  17.278  11.433 -0.2857  0.0880 -0.2114
18435W        W34909   1.396  17.207  10.852 -0.0695 -0.1822  0.1214
18436W        W34910  11.213  14.963  15.514  0.1107  0.1974  0.0575
18437W        W34911  17.031   5.724   0.226 -0.0291  0.2910 -0.0057
18438W        W34912   3.846  13.837  14.233  0.2369  0.2610  0.0118
18439W        W34913  10.927  12.604  14.368 -0.0225  0.0964  0.0242
18440W        W34914   8.622   7.755  13.019  0.3397 -0.0565 -0.2235
18441W        W34915   9.710   0.835   1.450  0.4336  0.0852  0.0859
18442W        W34916   0.298  11.270   3.416  0.3057 -0.1801 -0.1876
18443W        W34917  17.838   3.902   4.240  0.0418 -0.0670  0.0920
18444W        W34918   3.052   1.176   4.516  0.0765  0.0336  0.0599
18445W        W34919   2.476   5.595   3.811 -0.1047  0.2366 -0.1294
18446W        W34920  12.257   7.709  13.200  0.0665  0.0389  0.2043
18447W        W34921  18.079  13.434  12.958  0.0004  0.0768  0.3040
18448W        W34922   7.690   9.939  16.083 -0.1668 -0.1230  0.2312
18449W        W34923   8.527   5.578  14.748 -0.0508  0.2952  0.2093
18450W        W34924   5.944   2.082   3.593  0.0109  0.3045 -0.0822
18451W        W34925   4.216   0.784  16.005 -0.0528 -0.2098 -0.1924
18452W        W34926  15.510   1.663   4.129  0.0095  0.3453  0.0500
18453W        W34927  14.267  14.366  16.091 -0.3259  0.0220 -0.3834
18454W        W34928  10.994  14.481  15.736  0.1235  0.0697  0.0794
18455W        W34929  16.939   4.011   2.520  0.2857  0.2314 -0.0633
18456W        W34930   8.437   6.686   4.754 -0.1440 -0.1033  0.2895
18457W        W34931  10.865  12.540   0.865  0.1339 -0.1322 -0.4814
18458W        W34932   8.803   9.972   2.278  0.1940  0.1706  0.1621
18459W        W34933   4.775  17.537  12.365  0.2187  0.1435  0.2174
18460W        W34934   7.930  17.032   5.176 -0.3641  0.1558 -0.0658
18461W        W34935  13.387  17.769   1.733  0.1893 -0.1283 -0.0055
18462W        W34936   5.653  13.441   1.243  0.0837 -0.0083 -0.0136
18463W        W34937  15.761   9.736   3.899 -0.1680 -0.3841  0.1344
18464W        W34938   3.156   8.455  12.241 -0.0770  0.1047  0.0326
18465W        W34939   4.003   9.164   3.414 -0.3381 -0.0053 -0.1775
18466W        W34940  16.251  16.186   0.494  0.0297  0.0997  0.3699
18467W        W34941  11.327  10.879  10.785  0.1837 -0.2838 -0.1072
18468W        W34942  10.002  15.901  13.700  0.0706  0.1430 -0.0359
18469W        W34943  12.991  10.997   5.478  0.1225 -0.0581  0.0688
18470W        W34944   0.935   3.134   3.351 -0.0530 -0.2112  0.3231
18471W        W34945   6.888   1.329   0.640 -0.0371 -0.2233 -0.1655
18472W        W34946   5.306   0.334   3.490 -0.1855 -0.3176 -0.2081
18473W        W34947  12.495   8.071   2.086  0.1892  0.1006 -0.5244
18474W        W34948  12.456  11.322   5.860  0.0277 -0.0953 -0.1125
18475W        W34949   7.810  17.145  11.952  0.3049 -0.1406 -0.1821
18476W        W34950  12.092  12.219  11.882  0.0480  0.1223  0.2288
18477W        W34951   6.978  13.807   4.270 -0.0683  0.0543 -0.3325
18478W        W34952  17.286  17.210  11.446  0.0389  0.2202  0.2331
18479W        W34953   6.654  10.374  14.574 -0.1290 -0.0484 -0.2490
18480W        W34954  14.583  13.590   4.688  0.1195 -0.1272  0.1750
18481W        W34955  11.634   4.599   3.153 -0.1832 -0.0508 -0.0662
18482W        W34956  15.974   1.352  12.179  0.2903  0.0353  0.0621
18483W        W34957  17.819   2.530  13.314  0.0192  0.1378 -0.0934
18484W        W34958  15.002  12.540   5.407  0.2602 -0.0512  0.1970
18485W        W34959   3.644  16.791  15.775 -0.0801 -0.3121  0.0436
18486W        W34960   8.444   4.338   4.306 -0.0495  0.0908  0.1252
18487W        W34961  12.483  16.359  12.810 -0.4100 -0.0579  0.4403
18488W        W34962   0.972  15.829  12.669 -0.0069 -0.0145  0.0140
18489W        W34963   7.976   3.145  13.743  0.3389  0.2698  0.1109
18490W        W34964   4.704  10.672   1.725  0.2726  0.1731 -0.1891
18491W        W34965  11.418  15.429  16.312  0.1009  0.1206 -0.1266
18492W        W34966   8.120   9.132   4.358 -0.0802 -0.1871 -0.0051
18493W        W34967  12.552  14.004  14.639  0.3180 -0.0868 -0.1377
18494W        W34968   5.512   7.544   2.105  0.1944 -0.1520  0.0800
18495W        W34969   9.251   1.067   2.378  0.3121  0.0908 -0.1260
18496W        W34970   1.884  16.863  15.376  0.0855 -0.1038  0.0119
18497W        W34971  11.050  18.053  16.094 -0.0502  0.1018  0.0307
18498W        W34972   4.301  13.561  15.021  0.0645 -0.1318  0.1002
18499W        W34973   1.955  10.759   0.775 -0.1237  0.2537  0.0213
18500W        W34974   8.848   8.849   1.938 -0.2309  0.0471 -0.0305
18501W        W34975  12.060  10.131  14.829  0.3075  0.0454 -0.0045
18502W        W34976   8.720   7.469  14.470 -0.0366 -0.2571  0.1848
18503W        W34977  17.373   3.783   4.887 -0.2508  0.0946 -0.2972
18504W        W34978  12.076  16.834  14.702  0.1585  0.0995 -0.0591
18505W        W34979   3.108   4.029   0.431 -0.1651 -0.1478 -0.1565
18506W        W34980  12.417  12.075  14.668 -0.1927 -0.1377 -0.2079
18507W        W34981  14.480   7.147   3.338  0.0883 -0.6573 -0.2659
18508W        W34982  10.258  17.183  10.565  0.1030 -0.0850 -0.0101
18509W        W34983   5.138   8.959  11.720 -0.0898  0.2015  0.2402
18510W        W34984   5.729  16.861  12.215 -0.3479 -0.1530  0.0030
18511W        W34985  12.358  15.190   0.837 -0.1737 -0.0080  0.0443
18512W        W34986   7.980  10.107   4.578  0.0261 -0.0764  0.3386
18513W        W34987  14.953   4.992   1.659 -0.2362 -0.0951  0.1467
18514W        W34988   4.358   5.824   4.852 -0.1009  0.2045  0.2233
18515W        W34989   7.449   6.904   5.017  0.2507  0.0248 -0.2597
18516W        W34990  11.668   6.789   1.225  0.0524 -0.3571 -0.0545
18517W        W34991   4.863   3.262   4.047  0.0591  0.2397  0.0700
18518W        W34992   8.476   8.245  13.023  0.2467 -0.0623 -0.4390
18519W        W34993   0.724   4.929  14.692  0.0941  0.0165 -0.2071
18520W        W34994   8.280  17.714   5.272  0.2316 -0.1147 -0.1225
18521W        W34995  12.157   4.850   0.173 -0.0045  0.2047 -0.0867
18522W        W34996   7.246  11.887   2.014  0.1530  0.2546 -0.2069
18523W        W34997   6.499   2.898   3.805 -0.1104  0.4587 -0.0829
18524W        W34998  16.277  17.074   3.585 -0.3129 -0.0284 -0.0349
18525W        W34999  12.357  12.405   1.162  0.1463 -0.0852 -0.3419
18526W        W35000   0.049  15.532  12.857 -0.2257  0.2662 -0.0551
18527W        W35001  15.454   2.155   1.750  0.0231  0.2352  0.2479
18528W        W35002  15.382  17.652  11.306 -0.2744 -0.0194  0.1547
18529W        W35003   4.028  16.623   5.691  0.1154  0.1657 -0.2450
18530W        W35004  15.188  10.305   3.224  0.0644  0.0367  0.1739
18531W        W35005   2.039  11.940  14.084 -0.1320 -0.0543  0.0354
18532W        W35006   6.172  11.308   3.621 -0.2723 -0.2708 -0.1491
18533W        W35007   8.684  10.568  11.135  0.0313 -0.0602  0.0133
18534W        W35008   9.615  17.975   2.307 -0.0060 -0.2391 -0.1390
18535W        W35009   9.547  13.805  12.568  0.0939  0.2469  0.1036
18536W        W35010   3.972   7.961  13.268 -0.0935 -0.1631  0.1735
18537W        W35011   4.584  12.105  15.728 -0.0240 -0.2158 -0.0560
18538W        W35012  17.233  13.027   2.222  0.2065  0.0662  0.0393
18539W        W35013  13.224   0.820   4.145 -0.1218 -0.0152  0.0787
18540W        W35014   1.751   0.042  14.355  0.1131  0.1046 -0.0370
18541W        W35015   0.008  15.924  12.452  0.1228 -0.1381 -0.1045
18542W        W35016  17.549   8.925   3.372  0.2392  0.0220 -0.0082
18543W        W35017  12.153  18.216   1.462 -0.0306 -0.2700 -0.1961
18544W        W35018   5.865  10.172  11.268 -0.0716  0.0415 -0.2894
18545W        W35019   5.211  11.742   4.098  0.3062 -0.0005 -0.0906
18546W        W35020  14.629  13.432   0.223 -0.4033  0.0997 -0.2182
18547W        W35021   4.927   0.115   4.260  0.1329 -0.0229 -0.0768
18548W        W35022   6.333   5.841   4.133  0.1152 -0.0161  0.2684
18549W        W35023  17.682   6.131   3.953 -0.0676 -0.2039 -0.0358
18550W        W35024  11.919  12.736   4.144 -0.1861  0.1561  0.1785
18551W        W35025  12.848  18.067  14.160  0.2675 -0.2733  0.1079
18552W        W35026   9.434  12.604   1.879 -0.0619 -0.0373 -0.0908
18553W        W35027   7.930  16.351   2.038  0.1544  0.2008  0.0960
18554W        W35028   7.944   6.603   3.003 -0.0203  0.0216 -0.1445
18555W        W35029   5.624  12.212   1.744 -0.0212 -0.0349 -0.1997
18556W        W35030   5.500  13.222  12.044 -0.3963 -0.0319 -0.0387
18557W        W35031   5.024   0.405   2.258 -0.3049 -0.0286 -0.3024
18558W        W35032  16.918   6.123   3.315 -0.4694 -0.0615 -0.0267
18559W        W35033  10.055   2.367  11.860 -0.1652 -0.1119  0.1684
18560W        W35034   1.952  13.247  15.271  0.0555  0.3173  0.0580
18561W        W35035  10.859   9.061   2.357  0.0455  0.4793  0.0521
18562W        W35036  12.686  13.097  15.044  0.0818  0.1464  0.0313
18563W        W35037   2.380   0.166   2.512 -0.0673 -0.2323 -0.1027
18564W        W35038  17.587   1.563  11.701  0.1328  0.0612 -0.3854
18565W        W35039   9.418  16.056  13.635 -0.1768 -0.0823 -0.0266
18566W        W35040   6.731   2.024  11.776 -0.4714 -0.1381 -0.2109
18567W        W35041   6.523   3.420   0.363 -0.0428  0.0184 -0.2550
18568W        W35042  13.211   4.332  15.833  0.2179 -0.1073 -0.2022
18569W        W35043   5.560   4.780  12.345  0.0820 -0.1772 -0.2022
18570W        W35044   4.245  16.409   3.545 -0.3521  0.1243  0.1736
18571W        W35045  14.028  15.529   3.825  0.0496  0.0574  0.0751
18572W        W35046   5.952  16.509  11.205  0.4181  0.1658  0.1711
18573W        W35047   3.022  12.949  14.228 -0.3029  0.2641  0.1066
18574W        W35048   8.764   3.179   0.634 -0.2037 -0.0849 -0.0692
18575W        W35049   5.782   0.397  11.861  0.2171  0.2756 -0.1205
18576W        W35050   8.611  13.137   1.131  0.3263  0.1598  0.0005
18577W        W35051   8.598   9.766  13.965 -0.1440 -0.3630  0.0781
18578W        W35052   6.327   8.380  14.863 -0.1020 -0.0415  0.1418
18579W        W35053   3.295   0.755   4.404 -0.2270 -0.0975  0.1307
18580W        W35054  12.250   3.446   4.648  0.1998  0.0962  0.2135
18581W        W35055   6.351  11.991  14.063 -0.0376 -0.3273 -0.0222
18582W        W35056  17.768   5.102   3.861  0.2199  0.2216 -0.1941
18583W        W35057   4.847   4.159  10.798  0.3199  0.1721 -0.0584
18584W        W35058   7.420  10.044  15.419  0.0867  0.1140  0.5251
18585W        W35059  14.794  10.650  11.961 -0.1175 -0.0409 -0.0846
18586W        W35060  15.656  12.041   3.022 -0.0635 -0.3279  0.0552
18587W        W35061   7.463   9.623  15.170 -0.1105  0.1212  0.2884
18588W        W35062   3.846   1.667  13.489  0.3501  0.2930  0.0746
18589W        W35063  11.150  14.806   0.454  0.6666 -0.1602  0.4198
18590W        W35064   7.976   4.243  15.879 -0.0616  0.3617 -0.1121
18591W        W35065   8.425   2.847  11.895 -0.0967 -0.1288  0.0348
18592W        W35066  10.011  13.569   0.590  0.0130 -0.3020  0.2071
18593W        W35067   2.222  13.867  16.327 -0.3518  0.1330 -0.0402
18594W        W35068   9.924  11.185  14.440  0.0751  0.2398  0.2287
18595W        W35069   2.123  10.814   3.317 -0.2072 -0.2398  0.0750
18596W        W35070  16.206  13.977  12.635 -0.1336  0.1777 -0.0865
18597W        W35071   9.697  16.902   3.677  0.1466  0.0527 -0.2438
18598W        W35072  11.203  11.351   4.111  0.1133 -0.2719 -0.0761
18599W        W35073  17.271   3.070  16.174  0.2287 -0.0436 -0.0611
18600W        W35074   4.824  14.873   2.609  0.0121  0.0762  0.3180
18601W        W35075   7.095   3.205  12.273  0.1285 -0.0930  0.0207
18602W        W35076   6.665  15.243  14.423 -0.1215  0.2001  0.0068
18603W        W35077   9.514   2.398   3.600 -0.1281 -0.1507  0.1292
18604W        W35078  16.218   6.088   3.319  0.1224  0.0095 -0.0013
18605W        W35079  15.882  14.823  12.358 -0.0127  0.0076 -0.1326
18606W        W35080   6.643  16.665  11.406  0.1900 -0.1744  0.0469
18607W        W35081   4.731   3.996  12.686 -0.1660  0.0453 -0.3294
18608W        W35082   6.829   5.053   1.961  0.1090  0.0614  0.0913
18609W        W35083   5.436  15.810  13.684  0.0712 -0.1536  0.0461
18610W        W35084   0.074  10.576   4.851  0.3443 -0.0577  0.0922
18611W        W35085   6.578  16.008   4.453 -0.2340 -0.1456  0.2055
18612W        W35086  11.131  14.306   2.029 -0.0067  0.1184 -0.3565
18613W        W35087  17.419   0.914  12.046 -0.1900 -0.0839  0.1343
18614W        W35088  12.257   6.999  13.803  0.2478 -0.1638  0.0684
18615W        W35089   4.491   8.815  13.758 -0.1608  0.1195 -0.0781
18616W        W35090   0.417   0.761  12.062  0.2581 -0.0959  0.1768
18617W        W35091  13.650  18.176   1.775 -0.0463  0.3966 -0.1488
18618W        W35092   4.056   6.750  12.784 -0.2652  0.0348  0.3058
18619W        W35093   9.382   1.958   4.722 -0.1767 -0.1520  0.3825
18620W        W35094   4.909  14.052   2.785 -0.4589  0.0434  0.2864
18621W        W35095   5.819   0.095   3.506 -0.0369 -0.0907 -0.0492
18622W        W35096   3.681   1.304  12.971  0.0294  0.0007  0.0835
18623W        W35097  14.781   4.899  15.265 -0.0624 -0.3224  0.1271
18624W        W35098   3.112   9.217  13.746  0.2368 -0.1246 -0.0610
18625W        W35099  15.111  13.857   2.190  0.0641 -0.0134  0.0885
18626W        W35100  13.673   2.642   4.651 -0.0703  0.1540 -0.1856
18627W        W35101   1.454   3.511  14.590 -0.1127 -0.1904  0.3764
18628W        W35102  12.835   9.634   0.869 -0.0894  0.3265  0.2162
18629W        W35103   6.849   6.944  12.706 -0.2555  0.1692  0.0213
18630W        W35104   8.754   3.569   0.280 -0.0279  0.0778  0.1430
18631W        W35105  12.716   7.685  14.943  0.0929  0.2243  0.0627
18632W        W35106  16.834   8.071   4.050 -0.1427 -0.0120 -0.1621
18633W        W35107   4.824   5.083   4.640  0.0542  0.1309 -0.3359
18634W        W35108   2.151  15.904   5.202 -0.0241 -0.0162 -0.0977
18635W        W35109  17.444   5.079  13.585 -0.3805 -0.3025 -0.3256
18636W        W35110   8.575   3.367  16.196  0.1611 -0.2963  0.0347
18637W        W35111  16.438  11.610   5.149  0.1318 -0.0040 -0.1555
18638W        W35112  14.283   3.360  14.848 -0.0078 -0.2066 -0.2706
18639W        W35113  14.919   7.105   2.435 -0.0318  0.1190 -0.1236
18640W        W35114  14.394  15.563  12.598  0.0184  0.1235  0.1487
18641W        W35115   2.563  17.131   0.369  0.2018 -0.4818  0.2732
18642W        W35116  16.644   9.484   2.158 -0.2670  0.0765  0.1451
18643W        W35117   3.886  10.490   4.155  0.3661 -0.1240 -0.0965
18644W        W35118  15.794   5.311   3.899 -0.0524  0.0833  0.0214
18645W        W35119  11.590  10.370   5.017  0.0415  0.2516 -0.1106
18646W        W35120  12.394  11.805   4.025 -0.0523  0.1364 -0.0189
18647W        W35121  11.937   4.394  12.182 -0.1224  0.3348 -0.0105
18648W        W35122  15.918   4.981  12.041  0.0607  0.0435  0.3078
18649W        W35123   1.807  10.575  12.135 -0.1788  0.0445 -0.1015
18650W        W35124   2.474   2.053   3.973 -0.1188  0.2402  0.0344
18651W        W35125  17.718  16.030  16.014  0.0272 -0.2537  0.2243
18652W        W35126   2.877   1.316   1.096 -0.1512 -0.1614 -0.0276
18653W        W35127   5.875   1.223  11.651  0.2706  0.3424  0.0156
18654W        W35128   4.097  12.088  13.651  0.0843 -0.1130  0.1156
18655W        W35129  18.220   9.606  13.200  0.3009 -0.4102 -0.1585
18656W        W35130  14.978   0.993   4.179 -0.1236  0.1445  0.0025
18657W        W35131  16.636   6.882  14.636  0.1007 -0.0477  0.0582
18658W        W35132  17.023   8.511   4.097 -0.1664 -0.0304 -0.0075
18659W        W35133  14.287  17.727  14.899 -0.2811 -0.1609  0.0863
18660W        W35134  18.029  14.849   1.071 -0.0898  0.0569 -0.4057
18661W        W35135   6.693  15.292  16.250 -0.4409  0.0398 -0.0033
18662W        W35136  18.107   8.832  15.111 -0.1391  0.1558  0.2960
18663W        W35137   1.429  11.913   3.793  0.0809 -0.0861 -0.0024
18664W        W35138   8.919   8.444   1.155  0.2126  0.0399  0.2646
18665W        W35139  11.600   6.225  15.542  0.2809 -0.2054 -0.0717
18666W        W35140   0.596  16.929   2.736  0.2613  0.2585 -0.0677
18667W        W35141   2.005   3.471   4.366 -0.0037 -0.1681  0.1260
18668W        W35142   7.341  17.683   5.293  0.1342 -0.1710  0.0593
18669W        W35143  12.054   5.853   4.769 -0.2744  0.1468  0.1552
18670W        W35144   8.465  13.208   3.622 -0.2668  0.1398 -0.3029
18671W        W35145  18.053   8.861   2.501  0.3010  0.0280  0.2720
18672W        W35146  14.276   7.512   3.051  0.2865  0.1555  0.3687
18673W        W35147   1.829   7.915  13.467 -0.1276  0.0487 -0.0539
18674W        W35148  16.151  15.906  13.101 -0.0336 -0.0108 -0.2334
18675W        W35149   0.460  13.891   2.861 -0.0137 -0.0269  0.3111
18676W        W35150   8.432  10.790   4.497 -0.0418 -0.0378 -0.0638
18677W        W35151   3.105   4.606   4.543 -0.0552  0.0544  0.2437
18678W        W35152  10.840  12.608  12.787  0.0760  0.2624  0.2392
18679W        W35153  14.813  12.040   2.448 -0.1009  0.3445  0.2097
18680W        W35154   2.694   1.394  15.075 -0.0770 -0.0462  0.0880
18681W        W35155  12.569   6.367  15.133 -0.0285  0.1763 -0.2452
18682W        W35156   9.293  11.524   5.107  0.1141 -0.1299  0.2920
18683W        W35157   0.767  13.065  15.887  0.1918 -0.0159 -0.2373
18684W        W35158   0.012   5.593   3.955  0.0772  0.0326  0.1067
18685W        W35159  11.939  15.566   4.229 -0.1636  0.1221 -0.0136
18686W        W35160   7.882   6.711   1.926 -0.2408  0.1962  0.1991
18687W        W35161   3.763   9.308   5.249 -0.1733  0.0786  0.2052
18688W        W35162   0.080   1.549   1.633 -0.4769 -0.1630  0.0838
18689W        W35163   8.965   6.652   4.163  0.0990 -0.2837 -0.1100
18690W        W35164   2.004  13.410   0.652  0.2540  0.1820  0.0400
18691W        W35165  10.094   6.063  11.031 -0.0515 -0.0480  0.0246
18692W        W35166   0.171   3.593   1.763 -0.1803  0.2240 -0.3707
18693W        W35167  10.493   4.492   2.142  0.0363 -0.2609  0.0479
18694W        W35168   6.858   7.149  13.160 -0.0150 -0.0175  0.2193
18695W        W35169   2.010  12.075   2.587  0.0500  0.0730 -0.0766
18696W        W35170  13.490  15.901  14.012 -0.1426 -0.0584 -0.1376
18697W        W35171  17.310  10.672   2.802  0.1107 -0.2739 -0.1134
18698W        W35172   3.823  14.828  11.866 -0.0353  0.2015  0.1319
18699W        W35173   6.508  15.237   1.146  0.2641  0.1080 -0.0560
18700W        W35174  11.582   0.359   0.306  0.3288 -0.2832  0.0558
18701W        W35175   6.009   9.848   0.159 -0.2558 -0.0591  0.1124
18702W        W35176  12.244  11.070  10.322  0.0178 -0.0609  0.1393
18703W        W35177   0.056   2.001  15.590 -0.0065  0.2282  0.1011
18704W        W35178  13.495  16.710  13.059 -0.0228 -0.2655 -0.0419
18705W        W35179   2.697   4.349  15.804 -0.0539 -0.3291  0.1075
18706W        W35180   8.220   1.418   4.157  0.1052  0.1790 -0.1665
18707W        W35181   9.864   4.438  14.080  0.1917  0.1135  0.2053
18708W        W35182   5.094   4.576   4.570  0.0681 -0.0298  0.0510
18709W        W35183   9.036  13.420   1.616 -0.0983  0.2567  0.0459
18710W        W35184   6.361   8.419   5.224  0.0690  0.2245 -0.0991
18711W        W35185  16.768  14.792  14.897 -0.3216  0.0099  0.3533
18712W        W35186  17.453   7.912  12.706  0.1728 -0.1857 -0.0011
18713W        W35187   2.080   5.082  13.595 -0.2521 -0.0910 -0.2287
18714W        W35188  15.202  12.048   5.759 -0.0553 -0.2121  0.1299
18715W        W35189  16.262  11.332  14.773  0.0503  0.1135 -0.1307
18716W        W35190   0.703  12.796  12.812  0.1076  0.0564 -0.0668
18717W        W35191  11.833  17.985  15.480  0.2127  0.2090  0.2136
18718W        W35192   9.967  10.827   4.453 -0.0351  0.0680  0.2523
18719W        W35193  15.076   1.886  14.829  0.0585  0.1327  0.3245
18720W        W35194  12.269  15.758   3.140 -0.1499 -0.1853  0.3215
18721W        W35195   7.157   4.240   1.655  0.0919  0.1593  0.1737
18722W        W35196   4.203   4.904   0.157 -0.0208 -0.1295  0.0863
18723W        W35197  13.286  14.604  11.549  0.0183 -0.2712 -0.1043
18724W        W35198  12.145  15.130  13.160 -0.2672  0.1993  0.1326
18725W        W35199   7.473   4.019  15.733 -0.1095  0.0869  0.4009
18726W        W35200  11.352   7.687  14.359 -0.1410 -0.0797  0.1415
18727W        W35201  10.321   8.792  14.948  0.2696  0.0325  0.1214
18728W        W35202   4.166   3.669   5.594  0.0838  0.1771  0.0354
18729W        W35203  12.627   2.044   2.512  0.3500  0.2457  0.0984
18730W        W35204   9.696   8.722   5.068  0.0627  0.0344 -0.0431
18731W        W35205  13.777   1.715   2.801 -0.4518 -0.1854 -0.1838
18732W        W35206  10.155  11.251  13.460 -0.1410 -0.0139  0.0945
18733W        W35207  15.841  16.993   3.250  0.1493  0.1631  0.2323
18734W        W35208   7.790   3.343  13.276 -0.0871 -0.0412  0.2235
18735W        W35209   6.172  14.542  16.207 -0.0798 -0.3691 -0.0607
18736W        W35210   5.103  12.112   1.699  0.0570  0.0199  0.1866
18737W        W35211   3.042   3.976  13.237 -0.0816  0.0179  0.0025
18738W        W35212  16.702   6.563   2.420  0.2145 -0.1933  0.1044
18739W        W35213  15.961  15.580  12.274 -0.0421 -0.1043 -0.1597
18740W        W35214   8.986   7.834  12.073 -0.1352  0.2166 -0.3077
18741W        W35215   3.952  15.568  14.917  0.0362 -0.2114 -0.0681
18742W        W35216  13.403   3.278  14.749 -0.0049 -0.0815  0.1915
18743W        W35217   8.637  10.460   4.835  0.2216 -0.0768  0.0437
18744W        W35218  17.034  15.140   4.567 -0.0537 -0.0230  0.1049
18745W        W35219   5.361   9.676   2.582  0.1429  0.2391  0.0680
18746W        W35220   4.977   4.764   4.986  0.0969 -0.0546 -0.1615
18747W        W35221   3.851  16.191   3.116  0.2167 -0.0748  0.2780
18748W        W35222  18.162   5.752  11.832  0.1061  0.1937 -0.1843
18749W        W35223  13.161   8.708   1.731  0.0513  0.0212  0.1912
18750W        W35224  12.996   2.449  15.734  0.1917  0.1532  0.0124
18751W        W35225   0.514   0.248  15.944 -0.4159  0.2315  0.3045
18752W        W35226  14.847  17.068   3.077  0.0971 -0.0481 -0.0435
18753W        W35227   7.768   7.171   0.071  0.1793  0.0571 -0.1114
18754W        W35228  12.420   8.656   5.302  0.3010  0.1679  0.4903
18755W        W35229  15.405   5.222   3.031 -0.4288  0.4168  0.0153
18756W        W35230   4.545  18.001  12.368  0.1594 -0.4502  0.0660
18757W        W35231  11.865  14.758  14.692  0.1041 -0.0450  0.0414
18758W        W35232  11.235   6.328  16.294  0.1982 -0.0449  0.1374
18759W        W35233   8.826   2.782   2.834 -0.0199  0.2052  0.2099
18760W        W35234  11.217  10.535   1.285  0.0868 -0.3761 -0.3871
18761W        W35235   0.311  17.423  11.995  0.2395 -0.0384  0.2661
18762W        W35236   0.405   7.075  16.029  0.0198  0.1919 -0.1065
18763W        W35237   1.418   1.158   0.160 -0.1436 -0.2289  0.0248
18764W        W35238  14.227   9.790   4.451 -0.0675 -0.3240 -0.2806
18765W        W35239   3.325  14.595   2.600  0.0306  0.0760 -0.3066
18766W        W35240   1.188   8.840  15.957  0.0012  0.4465  0.1502
18767W        W35241  12.367   2.555   0.125 -0.0867  0.2705 -0.1341
18768W        W35242  11.487  10.052   0.544  0.0091  0.2338 -0.0140
18769W        W35243  15.971   0.378  12.058  0.1834 -0.1028  0.2925
18770W        W35244  13.355   0.507   1.067  0.0395 -0.1990  0.2111
18771W        W35245   4.359  16.179   2.329 -0.2813 -0.2546 -0.1288
18772W        W35246   7.487   3.635  11.145 -0.0224 -0.2673 -0.0603
18773W        W35247   9.367   9.079   3.085 -0.1156  0.3478  0.0095
18774W        W35248   7.333  15.535   3.688 -0.0801  0.0165  0.5499
18775W        W35249   8.831   7.946   3.942  0.0709  0.2849 -0.2521
18776W        W35250   7.796   0.488  16.149  0.1205  0.0390 -0.0359
18777W        W35251   4.677   1.332  11.084 -0.2631 -0.0933 -0.0915
18778W        W35252  16.199   9.051  14.373 -0.4441  0.2880  0.0612
18779W        W35253   3.116   9.945   2.542  0.0516 -0.1664 -0.1052
18780W        W35254   5.334   5.980  11.220 -0.1987 -0.1986  0.0366
18781W        W35255  17.230  16.151   1.638  0.0862  0.1454 -0.3877
18782W        W35256  12.930   9.059  13.649  0.2615 -0.0639 -0.2551
18783W        W35257  16.672  15.148  12.626  0.0008  0.3842 -0.0513
18784W        W35258   9.072   4.387   1.483  0.0364  0.0620  0.3357
18785W        W35259  13.288   2.366  11.373 -0.1874  0.0163  0.0148
18786W        W35260  18.030  10.729   2.119  0.0625 -0.1788  0.0959
18787W        W35261   9.786  12.099  12.947 -0.0893 -0.3384  0.4145
18788W        W35262   0.473   2.981  13.288  0.0235 -0.0507  0.0025
18789W        W35263  16.060  18.139  11.726 -0.0037 -0.4124 -0.1104
18790W        W35264   8.348  12.461   2.031  0.0401  0.4048 -0.1551
18791W        W35265   8.646  12.990  14.932  0.5072 -0.1579 -0.1809
18792W        W35266  10.686  13.831   1.285 -0.0651  0.1017  0.4964
18793W        W35267   7.052   6.390   0.786  0.0739 -0.1711 -0.1543
18794W        W35268   5.695   3.199  12.290  0.0042  0.1098  0.4148
18795W        W35269   2.997  17.193   3.493 -0.0487  0.1603 -0.2406
18796W        W35270   5.625   6.127   0.365  0.0546  0.1107  0.1250
18797W        W35271   5.945  12.958   0.041  0.2978 -0.4108  0.1968
18798W        W35272   0.546   5.571   5.332  0.0440 -0.1722 -0.0960
18799W        W35273   8.348  16.052  15.746 -0.0259  0.0296  0.2070
18800W        W35274   7.535  10.950   0.648 -0.0178  0.2165 -0.0981
18801W        W35275   5.186  10.990  14.671  0.0278  0.2691  0.1985
18802W        W35276  16.444   7.440   3.540 -0.1345 -0.0270 -0.0160
18803W        W35277  16.968   5.133  12.020  0.0305  0.0797 -0.0673
18804W        W35278   7.481   5.829  12.433  0.0639 -0.0639 -0.1804
18805W        W35279  17.571  10.370  16.012  0.0681 -0.0561  0.0844
18806W        W35280  13.118   4.015  14.982  0.0460 -0.0915  0.2071
18807W        W35281   7.902   5.331   2.350  0.0890 -0.1597  0.1703
18808W        W35282  10.102   7.902  11.796  0.1488 -0.0799 -0.0743
18809W        W35283  18.129  15.022  16.172  0.0365 -0.1652 -0.0034
18810W        W35284   6.982   1.631  11.951 -0.1253 -0.1334 -0.2144
18811W        W35285  17.019  11.879  15.139  0.2962  0.0048  0.2384
18812W        W35286   3.849   5.394   2.941 -0.4190 -0.0662 -0.2091
18813W        W35287   4.493  16.209  16.019  0.1833 -0.0686  0.0046
18814W        W35288   3.133   5.452   1.592  0.0987  0.0245  0.1587
18815W        W35289  16.295  14.725   1.787 -0.1402  0.1865 -0.2566
18816W        W35290   0.737  16.237  11.855  0.1727  0.1772 -0.1611
18817W        W35291   4.377   1.837  15.195  0.0050  0.0962  0.0626
18818W        W35292  12.094  11.876   1.830  0.1734  0.0479  0.0405
18819W        W35293   9.697  16.830  14.032  0.2185 -0.3896 -0.2440
18820W        W35294   3.018  14.365  13.178  0.0693 -0.1590  0.0335
18821W        W35295   1.502  13.373  13.589 -0.0693  0.0607 -0.3046
18822W        W35296  15.394   7.912   2.022 -0.1415 -0.2422 -0.0828
18823W        W35297  10.037  14.050  13.453  0.0138 -0.3054  0.3120
18824W        W35298   4.820   2.422   4.366 -0.2771 -0.2116 -0.4591
18825W        W35299  12.385   4.564  16.171 -0.0060  0.0601  0.1147
18826W        W35300   9.465   8.269   0.773  0.1120  0.3810  0.1877
18827W        W35301   0.166   0.654   4.915  0.1061 -0.1897  0.2226
18828W        W35302   3.294  11.443   2.000  0.1795  0.2474  0.1629
18829W        W35303  10.957   8.104   0.685 -0.0786  0.0532  0.0794
18830W        W35304  15.932  15.094  11.408 -0.1712  0.1042 -0.0550
18831W        W35305  11.024  16.646   4.114  0.0294  0.2067 -0.1046
18832W        W35306   6.603   5.379  16.100 -0.0594 -0.3721  0.2033
18833W        W35307   2.445  15.391  12.351  0.2478  0.1516  0.0551
18834W        W35308  14.324   1.404  13.464  0.0674 -0.0908  0.1135
18835W        W35309   8.529   8.015  12.532 -0.0200  0.2362  0.3571
18836W        W35310   2.214  13.368  14.411  0.2397 -0.1882 -0.0904
18837W        W35311   8.519   6.141   3.523  0.1391  0.0445  0.0948
18838W        W35312   0.143  16.879  14.891  0.0660 -0.0017  0.1804
18839W        W35313   9.569   9.482  13.701 -0.6352 -0.1289  0.2938
18840W        W35314  15.488   4.542  11.200  0.0089  0.0721  0.0267
18841W        W35315   1.212  14.844   5.464 -0.0658 -0.0918  0.0376
18842W        W35316   9.270  16.508   3.578 -0.3585 -0.0570 -0.0607
18843W        W35317  17.428   5.449  14.605  0.5844 -0.2047  0.0391
18844W        W35318  10.776   6.065  13.032  0.1151  0.0059  0.0785
18845W        W35319  13.305  16.459   3.115  0.1585 -0.0382 -0.2161
18846W        W35320   0.734   5.388  15.448  0.2235  0.0390  0.1295
18847W        W35321   5.697   8.513  12.811  0.2327  0.0782 -0.1265
18848W        W35322  15.392   0.780  14.026 -0.2068  0.0307 -0.0435
18849W        W35323  10.310   4.938  15.134 -0.3133  0.2338 -0.2212
18850W        W35324   2.564   5.060  11.385  0.0219 -0.3263 -0.1773
18851W        W35325  11.042  14.390  12.763 -0.2807 -0.4554 -0.1586
18852W        W35326  13.832   5.445  11.392  0.0171  0.3045  0.5218
18853W        W35327  14.113   6.798  15.185 -0.4306 -0.1108  0.0039
18854W        W35328   9.183   0.389   0.713 -0.0793  0.4068  0.0355
18855W        W35329   0.991   4.310   1.758  0.1628  0.1311 -0.1327
18856W        W35330   0.080   8.153   2.286 -0.0104  0.1363 -0.1442
18857W        W35331   3.410   4.955   5.017 -0.0809 -0.3102 -0.0865
18858W        W35332  18.310   1.030   3.498 -0.0265 -0.2183  0.1647
18859W        W35333   8.581   7.263   2.816  0.0603  0.0873 -0.0865
18860W        W35334   5.648   0.880  11.336  0.0845  0.0855  0.1329
18861W        W35335   7.675   7.772   4.766 -0.1032  0.2959 -0.1847
18862W        W35336   1.181   3.098  12.139 -0.0294  0.2959  0.0700
18863W        W35337  10.775  17.141  15.515  0.1281  0.0569  0.2268
18864W        W35338  17.836  12.304   0.020 -0.0632 -0.0581 -0.0711
18865W        W35339  12.598  17.380  13.844 -0.0488 -0.2352  0.1112
18866W        W35340  14.398   3.972   5.658 -0.0194 -0.3386 -0.1746
18867W        W35341   4.394   1.615   1.711  0.2146  0.1414  0.3888
18868W        W35342  17.451   6.093   2.367  0.0453 -0.2241  0.1724
18869W        W35343   8.867   9.127  16.324 -0.2142  0.0936  0.2818
18870W        W35344   3.398   4.526   1.964 -0.0857  0.2789 -0.1314
18871W        W35345   8.919  12.075  13.575 -0.0889 -0.0513 -0.1377
18872W        W35346  16.596  17.905   3.001  0.0390  0.0619  0.0914
18873W        W35347   1.743  16.387  14.491  0.0830 -0.1932  0.1242
18874W        W35348  11.159   6.253  12.066 -0.4126 -0.2609  0.3699
18875W        W35349   8.664   3.347  15.052 -0.0667 -0.1737  0.0824
18876W        W35350  17.514  10.048  13.662  0.1434 -0.0769 -0.3393
18877W        W35351   6.227  10.961   1.393  0.0631 -0.0337  0.5762
18878W        W35352   2.779   0.659  15.820  0.1031 -0.1767  0.0445
18879W        W35353  17.104   9.165   0.745  0.0822  0.1520  0.0191
18880W        W35354  12.933   0.856  12.540  0.2029 -0.1022  0.1688
18881W        W35355  11.764   2.882  11.771 -0.1474  0.0436  0.0016
18882W        W35356   9.188   6.379   2.380 -0.1144 -0.1581  0.0857
18883W        W35357  12.101   3.092   2.308 -0.1938 -0.1931  0.0112
18884W        W35358  14.382   5.954   4.934  0.0215  0.0187 -0.1241
18885W        W35359   8.937   1.909   1.951 -0.3129 -0.3217  0.1492
18886W        W35360   9.011   9.589  14.238 -0.1405  0.2262  0.4005
18887W        W35361  12.966  17.742  13.021 -0.2534 -0.2612  0.0886
18888W        W35362   3.751   7.778   3.905  0.0409 -0.0636 -0.2984
18889W        W35363   3.682   0.130   2.738 -0.3190 -0.3083 -0.2077
18890W        W35364  12.187   7.215   4.949  0.3418 -0.0996  0.0970
18891W        W35365   9.586   5.547  14.756 -0.0430 -0.0231 -0.3689
18892W        W35366  11.640   3.204   3.824 -0.0998 -0.1491  0.1340
18893W        W35367  15.561  10.810   5.723 -0.1929  0.1776  0.0687
18894W        W35368   1.244  14.830  16.230 -0.0751  0.1214  0.1921
18895W        W35369  12.355   5.889   3.206  0.0062  0.0512 -0.0960
18896W        W35370  14.310  11.588   0.852  0.0281 -0.2695 -0.2173
18897W        W35371  11.026  11.471   2.476  0.2339  0.0998 -0.1025
18898W        W35372  14.580  14.279  14.565  0.0833  0.0671 -0.1793
18899W        W35373  14.669   2.166   3.405  0.2873 -0.1429  0.1912
18900W        W35374  10.062   4.505   5.004  0.0918 -0.1870 -0.2949
18901W        W35375   2.100   4.994  11.796 -0.1590 -0.0419 -0.1129
18902W        W35376  11.564   4.010   3.097 -0.0876  0.0597 -0.0656
18903W        W35377   9.514  15.945   2.051 -0.0854 -0.2442 -0.0685
18904W        W35378  10.570  16.268  12.027 -0.1299 -0.0009 -0.0164
18905W        W35379   0.847   2.688  12.028  0.0808 -0.3104 -0.2713
18906W        W35380  13.187   5.681   2.165  0.1845 -0.0399 -0.0242
18907W        W35381  13.982  16.538   1.785 -0.3702 -0.0864  0.3034
18908W        W35382   5.918   1.776  11.579 -0.0766 -0.0525  0.1005
18909W        W35383  15.407   9.589  15.385  0.2836 -0.1737 -0.3375
18910W        W35384  16.817  18.179   4.391 -0.0667 -0.0295 -0.0578
18911W        W35385  14.757  14.430   2.622 -0.2387  0.1583 -0.2455
18912W        W35386   3.307   0.985   4.884 -0.0421  0.2272  0.1275
18913W        W35387  16.238  13.460  16.050  0.0255 -0.1323  0.0173
18914W        W35388  17.525  15.759   0.530  0.1159  0.0966 -0.0074
18915W        W35389  15.888   4.359  13.028  0.2230 -0.1519 -0.0988
18916W        W35390   5.676   6.724   0.657 -0.0885 -0.2627 -0.1836
18917W        W35391   5.360  14.089   0.267  0.1492 -0.0612 -0.3096
18918W        W35392  12.166  14.292  14.750 -0.0539  0.0462  0.3310
18919W        W35393  13.900   4.655   0.688  0.0545 -0.1101 -0.1233
18920W        W35394  13.686   1.578   5.092  0.3067  0.2110 -0.1345
18921W        W35395   5.494   3.578   2.127  0.1937 -0.0786  0.2156
18922W        W35396   3.907   8.755   2.476 -0.1606  0.0846  0.1516
18923W        W35397  16.446   6.158  14.315  0.1192  0.2148  0.0444
18924W        W35398  12.874   4.974   3.724 -0.2539 -0.2884 -0.3639
18925W        W35399   1.769   7.825   2.269  0.0005  0.1779 -0.0606
18926W        W35400   5.022  15.486  11.914  0.0128  0.0375  0.1893
18927W        W35401  16.123  16.252   2.680  0.4424 -0.4398 -0.1917
18928W        W35402  15.144   2.434  12.213  0.0483  0.2772 -0.0988
18929W        W35403   4.269   2.254  13.669 -0.3212 -0.1297 -0.0199
18930W        W35404   4.196   8.761   0.137 -0.1247  0.1368  0.1483
18931W        W35405   7.907   3.140  15.193 -0.2277 -0.0549  0.1226
18932W        W35406  13.541  14.322  13.296 -0.1095  0.1756 -0.2075
18933W        W35407   6.730   6.590  15.360 -0.0375 -0.3482 -0.2675
18934W        W35408  13.224   8.058   0.410  0.1207 -0.1316  0.2273
18935W        W35409  11.019   6.984   5.758 -0.0960  0.0841 -0.2620
18936W        W35410  17.797   6.696  15.872  0.1493  0.1019 -0.2872
18937W        W35411  11.116   6.103  11.468  0.2820  0.2065  0.1042
18938W        W35412   2.883   2.459  15.827  0.0351  0.0283 -0.2149
18939W        W35413  10.412  15.395  12.766 -0.0856 -0.0262 -0.1548
18940W        W35414   4.367   6.911   1.662  0.0386 -0.0440  0.1306
18941W        W35415   5.809   3.193   1.163  0.2661  0.0591 -0.0511
18942W        W35416  12.504   1.137  16.129 -0.5464 -0.0844  0.0713
18943W        W35417  15.026  15.909  13.599  0.3393 -0.1695  0.0042
18944W        W35418   8.510   0.550   4.075 -0.2124 -0.0283  0.2026
18945W        W35419   1.339   2.244   5.063  0.2693 -0.0112  0.2701
18946W        W35420   1.288   3.599  12.006 -0.2077 -0.1886 -0.1597
18947W        W35421  12.305  11.007  15.731 -0.1082 -0.0458 -0.1302
18948W        W35422   5.933   4.665   0.585 -0.0230  0.1907  0.2769
18949W        W35423   3.528   6.881   2.751 -0.2160 -0.0119  0.2535
18950W        W35424   5.479   1.550  11.610 -0.0545  0.1944 -0.3741
18951W        W35425  16.580  10.964   3.191  0.0333  0.1446 -0.2558
18952W        W35426  15.729   8.005   3.945 -0.1309  0.1097  0.0383
18953W        W35427  12.255  12.975  15.826 -0.0472  0.0976  0.1487
18954W        W35428  10.194   4.632  13.777 -0.1738 -0.0754 -0.0705
18955W        W35429  14.613  11.864  13.128  0.0440 -0.1716  0.2180
18956W        W35430  14.444   5.264   1.369  0.2100  0.0544 -0.0387
18957W        W35431  15.268   4.623   1.208 -0.0573 -0.2028  0.1076
18958W        W35432   8.295   1.885  11.933 -0.1400  0.2665  0.0864
18959W        W35433   9.578   7.256  13.907 -0.0641  0.0698 -0.2718
18960W        W35434  16.110   5.442   4.339  0.0725  0.0852 -0.0276
18961W        W35435   7.088   9.342  13.461  0.3853 -0.1203 -0.0506
18962W        W35436   4.623   8.717  11.777 -0.0939  0.0765  0.2389
18963W        W35437   5.231   6.307   1.288 -0.0709 -0.2379  0.0661
18964W        W35438  12.172  10.869  13.717  0.1915  0.2853  0.0015
18965W        W35439   0.294  14.434   0.481  0.0609 -0.0203 -0.2792
18966W        W35440   0.420  14.123   0.155  0.0116 -0.0848  0.0726
18967W        W35441   0.587  13.136   0.062 -0.0201 -0.0865  0.0627
18968W        W35442  15.588  16.421  11.426  0.2066 -0.0829  0.0444
18969W        W35443   4.760  16.211   1.987 -0.3542  0.1634 -0.2179
18970W        W35444   8.750   6.514   1.383 -0.0573  0.0997 -0.1368
18971W        W35445   5.021  13.780   4.061 -0.3776  0.1225 -0.1875
18972W        W35446  13.090  18.028   2.664 -0.0804  0.0124  0.2630
18973W        W35447  16.870   0.141   5.401  0.0887 -0.0761 -0.1447
18974W        W35448   0.588   0.507  13.685 -0.2176  0.2038 -0.2588
18975W        W35449   7.505   2.208  12.331  0.0632  0.0985  0.1407
18976W        W35450  14.287   9.329  15.139 -0.0596  0.0197  0.0094
18977W        W35451   0.308  11.548   3.992  0.0857 -0.0062 -0.0903
18978W        W35452   1.365  15.605   4.709  0.0187  0.2090 -0.2248
18979W        W35453  12.395   2.809   5.328 -0.3515 -0.2190  0.1531
18980W        W35454   2.703   8.269  12.799  0.4295 -0.0062  0.1024
18981W        W35455  11.772   9.027   1.134 -0.0088 -0.1136 -0.0357
18982W        W35456   9.893  18.076   4.232  0.4719  0.2333 -0.2747
18983W        W35457   1.972  15.669  13.071 -0.0023 -0.0127 -0.0251
18984W        W35458  18.151   7.955  11.223  0.2071  0.1848  0.0987
18985W        W35459  10.327  10.181   5.123  0.2365  0.0693 -0.2507
18986W        W35460   6.814   7.236   5.591 -0.2733 -0.1271 -0.2447
18987W        W35461   8.907  14.914  14.277  0.0553  0.2739 -0.1329
18988W        W35462  15.316  11.504  11.318  0.1335 -0.2061 -0.2010
18989W        W35463  18.224   1.836  16.162  0.3961  0.2761  0.1931
18990W        W35464  15.993   5.046   0.192 -0.1060  0.1170 -0.2626
18991W        W35465   0.065   7.907  13.095 -0.0163  0.1060  0.1199
18992W        W35466  18.225   2.541   2.754  0.1420 -0.2202  0.1933
18993W        W35467  10.283   4.608  14.752  0.1230  0.3521  0.0694
18994W        W35468  15.033  18.271  11.843 -0.0630 -0.0847  0.0674
18995W        W35469   4.360  10.424  12.823  0.2250  0.0363 -0.1774
18996W        W35470   1.697  15.229   2.946  0.0895 -0.1367 -0.0497
18997W        W35471  14.114   9.011  14.806 -0.0248  0.0937 -0.2178
18998W        W35472   4.070  13.972  15.289  0.1281  0.0728 -0.4378
18999W        W35473   0.724   6.074  11.347  0.3162  0.0141 -0.1739
19000W        W35474  12.073  13.941  11.786  0.0283  0.2483 -0.1056
19001W        W35475   7.029  10.802   2.063  0.0526 -0.1124  0.0880
19002W        W35476   2.519  11.140   0.796 -0.0831 -0.0183 -0.1841
19003W        W35477  14.186  14.016  12.633 -0.0793  0.0010  0.3936
19004W        W35478  11.035   4.408  13.250  0.1226 -0.0104 -0.0273
19005W        W35479  15.003  12.310  13.707  0.0358 -0.4385 -0.0383
19006W        W35480  18.138  12.977  11.525 -0.1331 -0.1371  0.0474
19007W        W35481   6.133   3.197  11.162  0.2974  0.0129 -0.4042
19008W        W35482  11.034   3.662   0.744 -0.1082  0.0484  0.2451
19009W        W35483   6.360   4.857   0.905  0.2484 -0.1189 -0.2011
19010W        W35484  11.303   9.332   4.149 -0.0366 -0.0402  0.1349
19011W        W35485  12.193   4.502  12.842 -0.0928  0.0787 -0.4831
19012W        W35486  10.545  14.303   2.724 -0.0073  0.0862 -0.1272
19013W        W35487   0.550   9.614  15.863  0.1474 -0.0030 -0.1164
19014W        W35488   9.269  13.021  12.081 -0.1664 -0.0660  0.2698
19015W        W35489  13.383  15.153   2.534  0.3034  0.0181 -0.0694
19016W        W35490   8.899   0.506   4.917  0.1016 -0.2176 -0.1050
19017W        W35491  12.336   6.830   3.096  0.1284 -0.2386  0.0106
19018W        W35492  15.092   3.204   4.059 -0.4914  0.1964  0.0481
19019W        W35493   1.205  10.481  16.249 -0.2344 -0.1878  0.1503
19020W        W35494   7.054   9.587  14.793 -0.1268  0.0350  0.3015
19021W        W35495  12.665  10.914   4.994 -0.1354  0.3150  0.1742
19022W        W35496  14.157  13.218  13.707  0.0753 -0.0098  0.2868
19023W        W35497  11.366  10.028  11.687  0.0744 -0.0390  0.0497
19024W        W35498   7.254   9.473   1.486 -0.3617 -0.0436  0.0777
19025W        W35499   1.529  17.953  13.320 -0.2528 -0.0332 -0.1172
19026W        W35500   2.050   7.327   0.440 -0.0061 -0.0652 -0.1803
19027W        W35501  17.797  16.401  13.446  0.1349 -0.1364 -0.1500
19028W        W35502  11.486  18.066   4.870  0.1434  0.2485  0.1351
19029W        W35503  13.994  13.341  12.142  0.1662  0.1321  0.1805
19030W        W35504   9.770   3.973   3.784 -0.0302  0.1974 -0.0585
19031W        W35505  18.229   1.600  15.345 -0.0453 -0.0450  0.0189
19032W        W35506  15.717  10.475  11.652  0.0257  0.0052 -0.1786
19033W        W35507   6.722   1.645  12.352  0.3694  0.1572  0.0898
19034W        W35508  18.255   2.034   1.651 -0.0088  0.0124  0.0912
19035W        W35509  11.574   1.120   5.014  0.0101  0.1985  0.0684
19036W        W35510  13.971  15.944  13.130 -0.1523  0.1191  0.1559
19037W        W35511  15.153  11.290   3.465  0.2907 -0.0146  0.1155
19038W        W35512   9.314  13.220   0.226 -0.0002  0.0030 -0.0785
19039W        W35513  15.130  17.875   3.928  0.4731 -0.2525 -0.0530
19040W        W35514   4.223  11.735  11.496 -0.1094 -0.0341 -0.2068
19041W        W35515  10.133   1.401   3.083 -0.0236 -0.0075  0.0696
19042W        W35516  10.809   9.773  13.309  0.2545 -0.0875  0.0798
19043W        W35517   2.808  11.651   5.138 -0.1343  0.0437  0.0995
19044W        W35518  11.688   2.080   0.259  0.2735  0.1365  0.2568
19045W        W35519   9.732  13.844  13.109  0.0670 -0.2151  0.1191
19046W        W35520  17.871   5.061  14.020 -0.2736 -0.2970  0.0131
19047W        W35521  11.289   1.700   0.409 -0.0589 -0.0395 -0.0539
19048W        W35522   3.286   0.040  14.944 -0.0146  0.2605  0.2880
19049W        W35523   7.374   1.212   2.209  0.3160 -0.1576  0.0139
19050W        W35524  10.762  12.678   4.441  0.0526 -0.2774  0.1218
19051W        W35525   9.598  10.577  15.439  0.1711  0.0264  0.0889
19052W        W35526  16.681   9.074   0.491  0.0768 -0.1988  0.1578
19053W        W35527   6.237   0.816   4.510  0.2393  0.3451  0.1298
19054W        W35528  13.247   3.633   4.518 -0.0515  0.0537 -0.0358
19055W        W35529   9.983  16.768   1.884  0.1639 -0.0372 -0.0631
19056W        W35530   0.213   5.440  16.176 -0.3012  0.0634 -0.1287
19057W        W35531  14.428  15.939  12.946  0.0187  0.2989  0.0692
19058W        W35532  16.186   8.047   4.795 -0.0356 -0.3203  0.0036
19059W        W35533  13.114   3.187  13.123 -0.4270 -0.2127  0.2832
19060W        W35534   8.172   2.316  13.500 -0.1780  0.1754 -0.3986
19061W        W35535   4.409   4.765  11.361  0.3565 -0.2865 -0.1414
19062W        W35536  13.632   5.026   0.032  0.0226 -0.2368  0.2103
19063W        W35537   9.575   1.366  11.146  0.0221 -0.0379 -0.1006
19064W        W35538  10.248  13.942   2.922  0.0795  0.3547  0.0899
19065W        W35539   7.376   7.706   0.205 -0.0519 -0.3224  0.0630
19066W        W35540   2.578  14.126   1.122  0.3439  0.2914  0.2051
19067W        W35541   0.183  17.847  15.346 -0.1983  0.1194 -0.0822
19068W        W35542   9.230  10.363  13.554  0.0966 -0.1392 -0.2713
19069W        W35543   9.435  13.502   3.679 -0.1685  0.1745 -0.0601
19070W        W35544   0.244  17.328  15.258  0.2434  0.1654  0.3648
19071W        W35545   4.854   3.981  11.851  0.2535  0.1302  0.0261
19072W        W35546  14.583   1.724  11.701  0.0147  0.0239  0.2366
19073W        W35547   4.815   1.836  13.497 -0.2019  0.4354  0.0027
19074W        W35548   4.568   7.673  10.812  0.0702 -0.0693 -0.3806
19075W        W35549  10.209  16.414  16.253 -0.1058 -0.0181  0.0399
19076W        W35550   6.504   9.808   0.894 -0.2201  0.0640  0.1978
19077W        W35551  11.358   3.238  11.796 -0.1673 -0.0953 -0.1676
19078W        W35552   4.862  12.502  12.440  0.3828  0.1510 -0.2203
19079W        W35553   1.439  10.090   0.969 -0.0365  0.4431 -0.0806
19080W        W35554   6.928  11.627   2.952 -0.1972  0.1116  0.0586
19081W        W35555  14.225   2.082   3.001  0.0913  0.0343 -0.0002
19082W        W35556  11.275  10.501  13.822 -0.1540 -0.0763 -0.0548
19083W        W35557  16.800   1.040   5.615  0.1911 -0.4818 -0.0229
19084W        W35558   0.723  11.356   1.005 -0.0687 -0.2045  0.1483
19085W        W35559  12.928  16.374   1.880 -0.0242  0.0727 -0.0566
19086W        W35560  15.860  14.445   5.053  0.2853  0.0811  0.2181
19087W        W35561  18.124  10.656  14.552  0.1340 -0.1144 -0.0318
19088W        W35562  13.149   7.391  14.659  0.3086  0.2727  0.0899
19089W        W35563   8.913  13.122   5.808  0.2696  0.0138  0.1036
19090W        W35564   0.292   8.603   0.803  0.3004 -0.0963  0.0381
19091W        W35565  15.353   6.837  12.798 -0.0013 -0.0926  0.0443
19092W        W35566   3.623  17.235  13.471 -0.2118 -0.0734 -0.1760
19093W        W35567   6.154   1.259   4.192 -0.1416  0.1725  0.0220
19094W        W35568   5.117  11.997   5.299  0.0027  0.1312 -0.0383
19095W        W35569  10.630  17.902  14.046 -0.1547 -0.2545 -0.0161
19096W        W35570  13.097  10.224   1.451 -0.1641 -0.2215 -0.1462
19097W        W35571  17.012   7.921   2.914  0.0352 -0.0617 -0.1247
19098W        W35572   1.737  14.760  16.087 -0.1133  0.2103  0.0054
19099W        W35573  10.030  14.227   4.027 -0.1754 -0.1020  0.0062
19100W        W35574  14.789  13.662  11.178  0.0943  0.1518 -0.1534
19101W        W35575   4.774   7.824   3.058  0.0750 -0.1441 -0.0349
19102W        W35576  12.693   4.352  15.754 -0.2311 -0.0678 -0.1563
19103W        W35577   0.991   3.718  12.877 -0.2438  0.1765  0.3061
19104W        W35578   6.901  16.446   3.780 -0.1943  0.0139  0.3133
19105W        W35579  13.586  12.204   2.304  0.2067 -0.2429  0.0769
19106W        W35580  14.828  16.340   1.834 -0.0437 -0.2608 -0.1828
19107W        W35581  14.713  15.789   5.133  0.1536 -0.1287 -0.1315
19108W        W35582  17.196   4.919   1.424  0.0489 -0.0820  0.0332
19109W        W35583   7.258   3.322   0.199 -0.0599 -0.2696  0.0086
19110W        W35584   3.010   0.392  10.204  0.1402 -0.0005 -0.0555
19111W        W35585   7.558   8.171  12.875  0.0595 -0.0757 -0.3068
19112W        W35586  10.865  11.225   4.459  0.4508 -0.0123 -0.0302
19113W        W35587  15.932   6.586   0.549 -0.1548 -0.1575  0.0378
19114W        W35588   6.655  14.937  11.968  0.2649 -0.0637  0.1653
19115W        W35589   1.199   7.452   3.069 -0.1012 -0.0549 -0.1409
19116W        W35590   1.632  10.445   0.594 -0.0843  0.0624 -0.3143
19117W        W35591   1.469   9.849  14.834 -0.1059  0.1375 -0.0622
19118W        W35592   3.288   9.086   5.194 -0.0687  0.1120 -0.1295
19119W        W35593  13.258  17.666   1.238 -0.0609 -0.1111  0.1881
19120W        W35594   6.376   5.065  12.642  0.3478 -0.3743 -0.0620
19121W        W35595   4.984  17.397  11.832  0.1826  0.1271 -0.1492
19122W        W35596  12.986  12.883  11.637  0.0021  0.0939  0.1864
19123W        W35597   3.075  18.205  10.088  0.2271 -0.0564 -0.0589
19124W        W35598   9.831  11.269  14.907  0.0793  0.0104 -0.2295
19125W        W35599   5.327   6.806   1.517 -0.2402 -0.0430  0.3198
19126W        W35600  13.875  11.623   3.649 -0.1345  0.5172  0.1998
19127W        W35601  18.143   4.585   3.039 -0.4177 -0.0542  0.1514
19128W        W35602   3.598  11.255  13.465  0.0210 -0.2345  0.0554
19129W        W35603  14.418  17.205   4.556 -0.1940 -0.0832 -0.4325
19130W        W35604   3.911   4.808   5.402 -0.4063  0.1099  0.2869
19131W        W35605  17.684   2.578   1.585  0.0486 -0.3898 -0.0112
19132W        W35606   7.930   4.864   0.685 -0.0570  0.1542  0.1789
19133W        W35607   0.301   9.475   4.826 -0.3582 -0.0464  0.0111
19134W        W35608   9.800  13.598   2.735  0.1324 -0.1713 -0.0307
19135W        W35609  12.104  13.148  13.675 -0.1270  0.0160 -0.1071
19136W        W35610  14.458   8.899  14.234  0.0845 -0.1675  0.1766
19137W        W35611   6.854   1.252  15.297 -0.1638  0.2715 -0.0468
19138W        W35612   3.261  13.634   1.323 -0.1478 -0.0129  0.3344
19139W        W35613  15.549   5.371   4.328  0.0790 -0.1006  0.0690
19140W        W35614   4.923   2.045   0.307  0.0888 -0.1395 -0.0738
19141W        W35615   6.349  16.112  14.749  0.3101 -0.0416  0.0891
19142W        W35616   2.217   8.304  15.357  0.3769 -0.0762 -0.1357
19143W        W35617  13.767  12.348  10.987  0.2583 -0.0548 -0.2395
19144W        W35618  10.040  16.782   4.387  0.1160 -0.2127  0.0657
19145W        W35619   5.745  16.314   0.106  0.0624 -0.0278 -0.0666
19146W        W35620  15.077  14.830   3.221 -0.0823 -0.0733  0.1364
19147W        W35621   3.849   6.328  14.793  0.0708  0.3117 -0.1276
19148W        W35622   3.245  13.373   5.390  0.0167 -0.1748  0.0428
19149W        W35623  10.170   4.952  11.670  0.1338 -0.0324  0.3488
19150W        W35624   9.801  10.863   1.970  0.1396  0.1884 -0.2682
19151W        W35625   3.533  12.272   0.757 -0.1039  0.1351  0.0319
19152W        W35626   4.154   6.750  14.942  0.0562  0.0324  0.1487
19153W        W35627  10.530   2.393  16.011  0.2107  0.1073 -0.0053
19154W        W35628  15.340  13.829  16.217 -0.2029  0.0265 -0.0094
19155W        W35629  17.827   0.101   2.451 -0.0899  0.0980  0.0933
19156W        W35630  13.625   0.684  11.381 -0.0777 -0.3199 -0.1187
19157W        W35631  15.526   5.280  12.302  0.1018  0.1053  0.1168
19158W        W35632   9.823   4.946  13.928 -0.1424 -0.0535 -0.1280
19159W        W35633   2.230   6.454  15.286  0.0561  0.0014  0.0617
19160W        W35634   2.561  15.096  12.897 -0.2099  0.2604  0.0819
19161W        W35635   0.694   3.580   3.085 -0.4366 -0.2437  0.1636
19162W        W35636  11.367   7.099  12.841 -0.3022 -0.0504  0.0943
19163W        W35637  13.707   5.619   2.955  0.1806 -0.1372 -0.0291
19164W        W35638  17.660  14.816  14.026 -0.0497 -0.3927  0.0716
19165W        W35639   2.670   1.663   0.538 -0.1143 -0.4214 -0.2658
19166W        W35640  15.302  16.387  12.421  0.1757  0.0919  0.4002
19167W        W35641   5.944   7.713   0.869  0.0833  0.0946  0.0509
19168W        W35642  11.640   9.705  15.396 -0.0951 -0.1257  0.4292
19169W        W35643  18.246   4.465   2.280  0.0845 -0.1146  0.4818
19170W        W35644  11.961  15.397   0.297 -0.1311 -0.4044 -0.0823
19171W        W35645   9.693   7.864  13.607 -0.0164 -0.0795 -0.1405
19172W        W35646  13.233  14.229  15.769  0.1110 -0.0335 -0.0441
19173W        W35647  12.927  17.868  13.581 -0.0755  0.3489 -0.2372
19174W        W35648   3.017  11.024   3.827  0.1679 -0.0864  0.1158
19175W        W35649  12.967  11.864   5.351 -0.4354 -0.2163 -0.2461
19176W        W35650  15.157   2.086  13.239 -0.0854 -0.0849  0.2990
19177W        W35651  12.177  11.971  13.198  0.3723  0.2323 -0.3235
19178W        W35652  15.767  17.850   4.639 -0.1749 -0.1149 -0.2299
19179W        W35653  14.778   2.464   4.788 -0.0334 -0.0972  0.0211
19180W        W35654   7.396   1.012   4.530  0.0079  0.1681  0.2678
19181W        W35655   3.565  17.157   0.533  0.0144  0.1073  0.1590
19182W        W35656   4.224   3.509  14.885 -0.0411  0.1256 -0.1964
19183W        W35657   2.119  12.077   1.075  0.0994 -0.3014 -0.1399
19184W        W35658   2.741   5.699  12.157  0.3020  0.1180  0.0433
19185W        W35659   9.044   0.161  16.147 -0.0334  0.3088 -0.0523
19186W        W35660  12.988  18.215  11.644  0.1829 -0.1482  0.2895
19187W        W35661  10.332  11.378  14.732  0.1786 -0.1972 -0.1871
19188W        W35662  13.111  12.848   2.086  0.3293  0.0158  0.2441
19189W        W35663  11.956  17.844  11.473  0.1817 -0.0724 -0.1002
19190W        W35664  16.556   3.135   3.125 -0.2153  0.2284 -0.1046
19191W        W35665  17.622  13.128  15.705  0.1485 -0.0128 -0.1348
19192W        W35666  12.164   4.524  15.143  0.1411  0.0267 -0.2093
19193W        W35667  15.396  14.205   5.040 -0.3435 -0.0661 -0.0257
19194W        W35668  17.556  10.892   1.984  0.1362 -0.2690 -0.1333
19195W        W35669  12.200   2.455   6.091 -0.1246 -0.1789 -0.1020
19196W        W35670   9.401   0.414   1.615 -0.3238  0.2683 -0.2445
19197W        W35671   6.684  12.569  11.881 -0.0148  0.2243  0.1122
19198W        W35672   3.662  17.972  12.457 -0.0281  0.0403 -0.0128
19199W        W35673   6.824  17.765  12.741 -0.3249  0.0262 -0.0664
19200W        W35674   5.190   4.082  16.016  0.1208 -0.0394  0.4359
19201W        W35675  11.281  14.722  13.053  0.2026 -0.0445 -0.3940
19202W        W35676   5.660   3.359   4.781 -0.0426 -0.0613 -0.0706
19203W        W35677   6.371  17.275  16.233  0.1626  0.0624  0.1018
19204W        W35678  13.806   5.029   5.026 -0.1783  0.1377 -0.1533
19205W        W35679  11.008   5.762  14.261 -0.0375  0.2969  0.2245
19206W        W35680  14.162  11.896  12.202  0.1449 -0.3347  0.7040
19207W        W35681  12.284   4.621   5.201 -0.0653 -0.1215 -0.0431
19208W        W35682   3.126   5.601   0.823 -0.0445  0.0036 -0.1850
19209W        W35683  17.851   4.981  16.006  0.1214  0.1628 -0.0213
19210W        W35684   1.303   7.339   4.457 -0.0184 -0.2447  0.1583
19211W        W35685  11.532  13.589  15.899 -0.0901 -0.0269  0.0894
19212W        W35686  12.264  17.241  15.121 -0.0389 -0.3575 -0.1604
19213W        W35687  14.088  16.905   0.725  0.0153 -0.1355  0.0502
19214W        W35688  12.353  16.889  11.825  0.1239 -0.0763 -0.0429
19215W        W35689  13.011   3.842  14.046  0.1221  0.1609 -0.3092
19216W        W35690  16.075   1.743  11.791  0.0180 -0.1314  0.1925
19217W        W35691   4.357  12.457  12.998  0.1205  0.1623  0.0555
19218W        W35692  14.965  10.934   4.382 -0.0599 -0.0817  0.0415
19219W        W35693   1.866   1.471   2.795 -0.3271 -0.1433 -0.0187
19220W        W35694   6.598   4.535   0.383  0.1113 -0.0476  0.2722
19221W        W35695   1.381  17.153  14.782  0.0242 -0.2562  0.2249
19222W        W35696   0.098   2.100  10.201  0.0681  0.0249  0.0613
19223W        W35697   9.093  12.094   0.060 -0.1759  0.3029 -0.3971
19224W        W35698   9.820  10.010   5.228  0.1229  0.1773 -0.0701
19225W        W35699  13.602  11.574   4.503 -0.2278  0.1951 -0.2584
19226W        W35700  14.524   4.570  15.626  0.1678  0.2435  0.2220
19227W        W35701  13.897   5.677  13.013  0.6071  0.0995  0.1505
19228W        W35702   5.392  10.004  11.519 -0.0138  0.0547 -0.0586
19229W        W35703  14.441  17.514   1.491 -0.0696  0.2725 -0.1169
19230W        W35704  14.894  15.420   5.609 -0.2223  0.5470 -0.1385
19231W        W35705  11.937  16.965  13.462 -0.0072  0.1613  0.1436
19232W        W35706  12.770   0.396  12.383  0.6949 -0.3834 -0.0440
19233W        W35707   7.197  16.883  13.927  0.1543  0.0629 -0.1268
19234W        W35708  17.369   8.329   2.045 -0.0942 -0.0830 -0.1089
19235W        W35709  16.086   7.270  11.822 -0.1147  0.1129 -0.0432
19236W        W35710  17.592   0.539   2.657 -0.2189  0.1420  0.1080
19237W        W35711  15.853   7.160   2.530 -0.0729  0.0717 -0.2397
19238W        W35712  12.082  10.049  16.022 -0.2079  0.2664  0.2307
19239W        W35713   6.622  18.109   2.294  0.2023 -0.1078  0.2368
19240W        W35714  18.171  11.503  13.772 -0.0746 -0.0695 -0.0884
19241W        W35715   1.990  12.438  16.130  0.1241  0.1398 -0.2272
19242W        W35716   5.932   5.491   4.916 -0.3095  0.0061  0.1478
19243W        W35717  14.473   2.561  10.591 -0.1934  0.0101  0.2388
19244W        W35718  12.196   3.908   0.121  0.3045 -0.2315 -0.2957
19245W        W35719   0.569  15.567  11.074  0.1917 -0.0681  0.1121
19246W        W35720   6.330   4.380   4.331 -0.1723  0.1145 -0.1832
19247W        W35721  15.412   9.924   2.803 -0.0102  0.1556  0.0931
19248W        W35722   2.316   4.680   3.422  0.0179 -0.2609  0.4472
19249W        W35723  15.623  10.373  13.800 -0.1103 -0.1857  0.1962
19250W        W35724   5.154  13.184   6.113 -0.0345  0.0521  0.2588
19251W        W35725  14.702   7.025   4.302 -0.2441 -0.1912  0.1673
19252W        W35726  11.323   7.302   4.645 -0.0738  0.0724  0.0852
19253W        W35727  14.684  11.383  11.310 -0.0810  0.1820 -0.0345
19254W        W35728   2.704   4.529  12.692 -0.2081  0.4170 -0.1779
19255W        W35729   2.656   3.325   1.750 -0.1070 -0.1243 -0.3207
19256W        W35730  10.675   9.130  16.182  0.2362 -0.2636  0.0906
19257W        W35731   6.167   7.384  11.879 -0.2017  0.0438 -0.1756
19258W        W35732  16.020   1.777  13.308 -0.1914 -0.0195  0.2533
19259W        W35733   3.348  16.494  12.367  0.0954 -0.0608 -0.0732
19260W        W35734   6.666  11.397  13.367  0.0371 -0.1139  0.0653
19261W        W35735  17.613   5.457  11.264 -0.1570  0.0726 -0.2047
19262W        W35736   8.621  11.152   1.058 -0.3136 -0.1462  0.0787
19263W        W35737   8.501  16.307   2.332 -0.0980 -0.3769  0.1096
19264W        W35738   8.933  10.842   0.802  0.0996  0.1837 -0.1622
19265W        W35739   6.345  14.695  13.701 -0.0877 -0.0240  0.0862
19266W        W35740  11.448   7.957  11.851 -0.1607  0.2460  0.2817
19267W        W35741  15.812   8.235  16.045 -0.0317 -0.0283 -0.0024
19268W        W35742  15.664   7.324   3.859 -0.1525 -0.1085  0.0112
19269W        W35743   4.748  12.252   0.348  0.1648 -0.1143 -0.2524
19270W        W35744   7.942   1.761  15.890 -0.3187 -0.1140 -0.0010
19271W        W35745   4.377  13.197  16.223  0.2227 -0.2780 -0.0043
19272W        W35746  17.836  11.680   4.315 -0.0136  0.3182  0.0503
19273W        W35747   2.046   1.602   1.896  0.0663 -0.2866 -0.1052
19274W        W35748   0.245  15.555  14.750 -0.0940 -0.1337  0.0960
19275W        W35749  17.242  12.662  16.125  0.0668 -0.1371  0.0583
19276W        W35750  13.200  12.334   5.164  0.1713  0.3030  0.1073
19277W        W35751   2.521   2.481  11.315 -0.0091 -0.0727 -0.2417
19278W        W35752  11.223  12.394   4.493 -0.2731  0.0735  0.1629
19279W        W35753  13.631  17.316   2.048  0.1088 -0.1709 -0.2864
19280W        W35754  16.274  13.475  11.922  0.3636 -0.1179 -0.1036
19281W        W35755  12.254   4.333  13.289 -0.1212  0.0474  0.0443
19282W        W35756  16.734   0.955  14.098  0.3507 -0.1616 -0.3043
19283W        W35757  16.414   7.517   2.782 -0.2341  0.2121  0.1231
19284W        W35758  16.187  16.818   0.995  0.4067 -0.0119  0.0400
19285W        W35759   4.889   8.353   3.127 -0.1254  0.0987 -0.0557
19286W        W35760  10.250   1.161  15.536  0.1651  0.1964 -0.1039
19287W        W35761   4.242   7.480   3.038 -0.2175  0.1764  0.0175
19288W        W35762  17.775   2.088   1.319 -0.1352 -0.0321  0.0512
19289W        W35763   0.628   3.881   0.288  0.2063 -0.2049 -0.0115
19290W        W35764   0.369   8.972  13.817  0.1420 -0.0433  0.3534
19291W        W35765   6.132   2.951  14.796 -0.0372 -0.0590  0.1089
19292W        W35766   3.149   5.385  11.462  0.0074 -0.1600 -0.1020
19293W        W35767  17.255  15.846   2.484  0.3876  0.1036 -0.2935
19294W        W35768  15.638   1.476  13.538  0.0396 -0.1829  0.2897
19295W        W35769  14.767   5.993   1.791 -0.1259 -0.0732 -0.1247
19296W        W35770   4.374   2.139   4.265  0.0629 -0.1988 -0.3027
19297W        W35771   5.143   4.142  13.728 -0.0498  0.0186 -0.0373
19298W        W35772   5.945   7.825   2.171  0.3956 -0.2386  0.5826
19299W        W35773   9.326   3.726  12.138  0.2928  0.0578  0.0632
19300W        W35774   1.614  15.598  14.873 -0.0410 -0.0263 -0.4487
19301W        W35775   3.751   3.549   2.795 -0.1003 -0.1915 -0.0411
19302W        W35776   6.971  12.210   3.527 -0.4030 -0.2809  0.1598
19303W        W35777  16.566   1.027  10.346 -0.0219 -0.0333  0.0478
19304W        W35778   3.549   9.576   0.183  0.0623 -0.1399  0.0405
19305W        W35779   4.831   5.358  13.028  0.1177 -0.0845 -0.0203
19306W        W35780   6.456   8.126   4.700  0.3680  0.1487  0.0145
19307W        W35781   5.857  14.736   1.791  0.1441 -0.1005 -0.0393
19308W        W35782   3.447  12.881   2.291  0.0181 -0.0389 -0.2106
19309W        W35783   0.055  17.509  12.834  0.5217  0.0241  0.2646
19310W        W35784  15.941   4.485   1.431 -0.2825  0.0397  0.2091
19311W        W35785  11.590   5.248  14.765  0.0015  0.1772 -0.4912
19312W        W35786   0.289   4.763   0.345 -0.2185 -0.1184  0.0816
19313W        W35787  14.185  15.258   3.372 -0.1267 -0.3764 -0.1497
19314W        W35788  16.209  17.830  16.311 -0.0377 -0.0247 -0.1798
19315W        W35789  10.979  11.388   6.265 -0.1028  0.1207 -0.4010
19316W        W35790  17.291  15.956  12.497 -0.1587  0.0884  0.1172
19317W        W35791  12.425  16.970   5.248 -0.2300  0.1878  0.0757
19318W        W35792   4.681   7.510  13.927 -0.2661 -0.0157 -0.0055
19319W        W35793   8.379   6.272  15.129 -0.2209  0.1081 -0.2549
19320W        W35794   4.445   6.862  14.420 -0.2028  0.2048  0.0191
19321W        W35795  16.036   3.503   0.998 -0.0204 -0.0311 -0.2853
19322W        W35796  14.800   4.399  13.808 -0.3940  0.2267 -0.0226
19323W        W35797  14.959   9.955   2.640  0.0666 -0.1168  0.0882
19324W        W35798   9.200   8.674  14.179 -0.2028  0.4610 -0.0422
19325W        W35799   7.765   3.743   4.831  0.0128  0.2058  0.1792
19326W        W35800  11.265   6.083  12.997  0.0162  0.0778 -0.2382
19327W        W35801   9.464   1.220   4.764 -0.3637 -0.1394 -0.0854
19328W        W35802  11.882  12.316   5.746  0.0172  0.1151 -0.1800
19329W        W35803  12.032  15.438   5.389 -0.1393  0.0817 -0.1085
19330W        W35804  12.379   6.048  12.906 -0.4079 -0.2349  0.0022
19331W        W35805  11.224   0.491  13.599 -0.0923  0.1961 -0.2183
19332W        W35806  12.735   5.650   2.333 -0.1092  0.3490 -0.2095
19333W        W35807  14.609   1.793  14.082 -0.2737  0.0963 -0.2689
19334W        W35808  17.425  10.654  12.986 -0.0855  0.0040 -0.1798
19335W        W35809  17.852   6.975   4.159  0.1309  0.3392 -0.4933
19336W        W35810  12.946   5.796   0.520  0.0201  0.2522 -0.0640
19337W        W35811  13.849   8.757  15.659 -0.1467  0.1947  0.3322
19338W        W35812  12.607   2.948   2.491  0.2602 -0.2862  0.0826
19339W        W35813   0.769  17.158   4.810  0.2356  0.2072  0.1341
19340W        W35814   3.502  15.484   1.293  0.1205  0.1210  0.1124
19341W        W35815  12.286   1.229   2.589 -0.0217  0.0307  0.0041
19342W        W35816  14.198   7.867   4.038 -0.0349 -0.0564  0.3480
19343W        W35817   9.749   0.366  15.210 -0.4307 -0.0100 -0.0946
19344W        W35818   7.000  17.295  12.400  0.0416 -0.1425  0.0975
19345W        W35819   8.455  14.024  14.685  0.3337  0.1503 -0.2580
19346W        W35820   7.646  14.462  16.009 -0.1650 -0.0718  0.0240
19347W        W35821  18.281  13.034   0.771  0.0853 -0.2057  0.0856
19348W        W35822   2.863   0.288   3.760  0.1431 -0.0831  0.0802
19349W        W35823   3.628  10.868   3.115 -0.1939 -0.1808 -0.6462
19350W        W35824  14.480   1.216  11.572 -0.1553  0.0436 -0.2219
19351W        W35825   8.965  10.364  12.698  0.2391  0.1391 -0.0846
19352W        W35826  15.729   8.134   4.497  0.0110 -0.1844 -0.3357
19353W        W35827  11.011   3.439   1.599 -0.1680 -0.1579  0.0162
19354W        W35828  16.719  12.809  11.323 -0.1391  0.1024  0.0033
19355W        W35829   5.094  16.225   2.435 -0.1662 -0.2025  0.1713
19356W        W35830  15.677  16.393   2.122 -0.1005 -0.0483  0.1963
19357W        W35831   6.043   3.145   5.086  0.3522  0.0228 -0.3206
19358W        W35832   4.133   6.057   2.339  0.0609 -0.2704  0.0623
19359W        W35833  16.641   5.829   1.107  0.1574 -0.1193  0.1231
19360W        W35834  14.509   8.708   1.203 -0.1930 -0.0582  0.4118
19361W        W35835  12.033   1.142   3.484  0.1254 -0.1020 -0.0001
19362W        W35836   0.267  11.552   2.023  0.2712 -0.1098  0.0412
19363W        W35837   1.701  10.459  16.005 -0.2785 -0.0210  0.0179
19364W        W35838   1.713  10.742  15.243  0.0248 -0.2909  0.0692
19365W        W35839  15.891   9.670   0.829  0.3674  0.0162  0.0348
19366W        W35840   7.111   7.608   3.616  0.0667  0.0123  0.0142
19367W        W35841   9.466  16.381   1.428 -0.1397  0.0523  0.2767
19368W        W35842   0.233   8.674  14.859 -0.2016 -0.3548  0.0433
19369W        W35843  11.383   8.898   5.108 -0.2044 -0.1604  0.1870
19370W        W35844   4.684   3.579  13.187 -0.0085 -0.2031 -0.0059
19371W        W35845  15.918  15.139   3.109 -0.0202 -0.0482  0.1507
19372W        W35846  10.018  14.351   2.539  0.3325  0.2449 -0.0337
19373W        W35847   4.521   9.515   5.063  0.3387 -0.2707  0.1314
19374W        W35848  14.876   0.287  11.411  0.1699  0.3085 -0.2008
19375W        W35849  15.903   9.394   4.249 -0.2625 -0.0068 -0.3253
19376W        W35850  16.200   2.826  13.728  0.3740 -0.0618  0.1079
19377W        W35851   2.466   9.836   4.206  0.4462 -0.1284 -0.0227
19378W        W35852   7.572   2.081   0.672 -0.2829  0.6222 -0.0702
19379W        W35853  14.265  11.431  11.555  0.0003 -0.2167  0.0210
19380W        W35854  12.852   1.509   4.711 -0.1044 -0.0151  0.0284
19381W        W35855  16.907   5.717  15.722  0.4938  0.0713 -0.1389
19382W        W35856   6.809  12.482  15.916  0.0838 -0.1214  0.4820
19383W        W35857  11.851   9.198  15.382 -0.3428  0.1472  0.1610
19384W        W35858  14.619   7.122   3.847  0.1072 -0.0213 -0.1963
19385W        W35859  10.050  16.979   4.858 -0.0618  0.2095  0.1955
19386W        W35860  10.843   3.366  13.509  0.0737 -0.0691  0.0413
19387W        W35861   9.325  16.893  13.060 -0.0018 -0.1260  0.1175
19388W        W35862   3.247   0.768  11.075 -0.0888 -0.1988 -0.0211
19389W        W35863  12.059   3.323  12.266  0.2504 -0.0056  0.1417
19390W        W35864  16.809  12.273  10.526  0.0585 -0.1910  0.1935
19391W        W35865  16.911   5.165  13.472 -0.2639  0.0726  0.3841
19392W        W35866   4.671  10.288   5.577 -0.1003  0.0157 -0.2745
19393W        W35867   2.856  10.377   5.243  0.1194 -0.2712  0.0156
19394W        W35868  10.577  15.486  13.737  0.1069 -0.3051  0.1014
19395W        W35869   7.137  15.556   0.198 -0.0908  0.1372 -0.0468
19396W        W35870   2.259   9.158  14.183 -0.3127 -0.0027  0.1002
19397W        W35871   5.862  13.514  12.596  0.0255 -0.0803  0.2543
19398W        W35872   9.424   1.884   3.637  0.1225  0.1156 -0.3201
19399W        W35873   2.248   0.789  13.863 -0.3662 -0.1056  0.0184
19400W        W35874   2.916   9.119  14.524  0.0273 -0.0215 -0.3014
19401W        W35875   7.549   9.280   2.493  0.2866  0.0199 -0.0082
19402W        W35876   0.033  10.570  15.502 -0.1064  0.0235 -0.0472
19403W        W35877  17.648   7.426   4.086  0.4268 -0.0638  0.1684
19404W        W35878  11.038   8.032   3.410 -0.0849 -0.2064  0.2092
19405W        W35879   1.275   4.476  16.094 -0.1244  0.3200 -0.0755
19406W        W35880   3.679  10.699   0.829 -0.0390  0.2447  0.0712
19407W        W35881   7.221   3.859   0.768  0.1688  0.0182 -0.3999
19408W        W35882   2.789   9.000   5.176  0.0778  0.0735  0.2073
19409W        W35883   7.128  10.131   0.997  0.1735 -0.3574  0.0419
19410W        W35884   4.939  12.385  11.779 -0.0342 -0.2199  0.0120
19411W        W35885   4.339  14.820   2.714  0.0582 -0.2621 -0.0306
19412W        W35886  16.052  16.324  13.411 -0.1944  0.1943  0.2492
19413W        W35887   0.293   4.711  13.463 -0.1616 -0.1932 -0.0691
19414W        W35888   3.635   9.350   1.280 -0.1202 -0.0290 -0.2330
19415W        W35889  13.923  12.344   2.939  0.1775  0.1594 -0.0036
19416W        W35890  17.728   6.516   2.254  0.0000  0.0315 -0.0844
19417W        W35891   4.025  16.870  15.292 -0.0434 -0.0934 -0.3857
19418W        W35892   3.908   0.061   0.739 -0.2543  0.2238 -0.0765
19419W        W35893  16.605   0.732  12.791  0.0457 -0.0287 -0.0200
19420W        W35894   5.523   7.097   4.061  0.1450 -0.3519 -0.2263
19421W        W35895  11.120   6.089  15.268 -0.1207  0.4392  0.0387
19422W        W35896   4.889   4.938  15.462  0.2490  0.0470 -0.0125
19423W        W35897   8.917   8.115  15.876  0.2525 -0.3107 -0.1155
19424W        W35898  14.358   1.866  13.567  0.1877  0.0016  0.2008
19425W        W35899   1.200   7.711  11.459  0.0608 -0.0104 -0.0686
19426W        W35900   7.859  13.861  13.416 -0.1703 -0.0778  0.1410
19427W        W35901   6.379   1.499  13.699  0.0775 -0.2328  0.0081
19428W        W35902   1.826   2.064   5.365  0.2350  0.4610  0.2476
19429W        W35903   4.212   0.277   4.687  0.0903  0.3057  0.0040
19430W        W35904   6.439   7.785  12.105  0.4713 -0.0139 -0.1178
19431W        W35905   3.650   5.092   1.972 -0.0408 -0.0505  0.0541
19432W        W35906   4.914   1.198  14.466 -0.1472 -0.2125  0.4054
19433W        W35907  14.855  15.963  14.697  0.0783 -0.1597  0.1534
19434W        W35908   9.286  10.017  12.387 -0.1693 -0.1964 -0.2490
19435W        W35909  10.321  15.072   6.346  0.1498  0.3427 -0.0970
19436W        W35910   4.240   3.997  15.677  0.2275  0.2185 -0.4391
19437W        W35911  11.054  13.656  14.544  0.0497 -0.1198 -0.0620
19438W        W35912  15.855  15.559   3.408  0.1466 -0.1505 -0.1080
19439W        W35913   6.729   2.806  11.589 -0.0799  0.2063 -0.1360
19440W        W35914  15.072  14.798  12.091 -0.1417  0.2517  0.0709
19441W        W35915  17.591   1.112   4.410  0.0300  0.2738 -0.0574
19442W        W35916  16.618  15.736  10.904 -0.3803 -0.2201  0.0025
19443W        W35917  15.400   8.053   0.079 -0.0381 -0.4097 -0.1868
19444W        W35918  14.341   2.799  16.298  0.0777 -0.0440 -0.2103
19445W        W35919   6.255   6.730   1.847 -0.0269  0.0586  0.0679
19446W        W35920   9.735  14.367  16.324 -0.0319 -0.3640  0.1380
19447W        W35921  10.969  11.027  11.886 -0.1463 -0.0872 -0.2451
19448W        W35922  12.900  14.539  13.114  0.3223 -0.0391  0.1405
19449W        W35923  14.014   7.843   5.857  0.0409  0.2707 -0.1795
19450W        W35924   9.782   4.455   4.618  0.4910  0.2302 -0.2412
19451W        W35925   7.328   6.735   3.683 -0.1793 -0.2990 -0.0951
19452W        W35926  13.293   7.754   0.827  0.2129  0.1322  0.1622
19453W        W35927  10.838   2.659   4.223  0.0116 -0.0768  0.0387
19454W        W35928   3.863   5.525  13.362 -0.0257  0.1499 -0.0223
19455W        W35929   4.128   8.186   0.258  0.0185 -0.1284 -0.2059
19456W        W35930  12.476   7.793  12.331  0.0878  0.0505  0.0139
19457W        W35931   4.104   9.479   0.956 -0.0319  0.2517 -0.1654
19458W        W35932  12.173  15.691   0.940 -0.2390 -0.1927 -0.0342
19459W        W35933   0.357  15.842   4.848 -0.0511  0.3465 -0.3822
19460W        W35934  11.081  10.443  11.656 -0.2606  0.2756  0.2179
19461W        W35935  10.106   1.594   1.422 -0.1109  0.1701 -0.0525
19462W        W35936  15.814  17.684  13.079  0.0657 -0.0021 -0.1262
19463W        W35937  16.301  15.969   1.231 -0.1827 -0.0309 -0.2812
19464W        W35938  13.480  10.121   0.681 -0.0901  0.2345 -0.1992
19465W        W35939   6.492  13.326   2.216  0.1303  0.1452  0.0267
19466W        W35940   9.235   7.688  14.504  0.1357 -0.2372 -0.0172
19467W        W35941  17.575   8.084   2.414  0.0808 -0.0879 -0.2377
19468W        W35942  15.279  12.965  12.201  0.4413  0.0651  0.2797
19469W        W35943   7.218   8.505   2.644 -0.1059  0.1416 -0.0908
19470W        W35944   8.338   5.548  12.808  0.2040 -0.0628 -0.1408
19471W        W35945   9.438  14.060   0.379  0.0855 -0.2442 -0.2414
19472W        W35946   2.649  14.326  13.744 -0.1284 -0.1272 -0.1623
19473W        W35947   7.427  17.997  11.208 -0.2085 -0.3519  0.3129
19474W        W35948   8.690   4.616  11.916 -0.2392 -0.2157 -0.1531
19475W        W35949  14.966  13.669  11.639  0.0664 -0.1843  0.2670
19476W        W35950  13.586   7.461  14.027 -0.0610  0.2183 -0.0270
19477W        W35951   4.874  16.436   1.553  0.0281  0.2333 -0.1618
19478W        W35952   4.303  16.246  14.593  0.0754 -0.3613 -0.2056
19479W        W35953  12.387   9.389   0.578  0.1249  0.1802 -0.1158
19480W        W35954   2.693   6.757   3.182  0.1045 -0.0015 -0.1263
19481W        W35955   3.413   4.738  13.839 -0.0090 -0.1153 -0.0252
19482W        W35956  15.418   9.900   4.231  0.1544  0.2394 -0.1072
19483W        W35957  11.343   0.416  15.324 -0.1835  0.1449 -0.0696
19484W        W35958   3.548  12.521   0.308  0.0110 -0.1856  0.0330
19485W        W35959  16.444   0.017   3.995 -0.0850 -0.1779 -0.1893
19486W        W35960   0.792   1.931  11.169 -0.0966 -0.0713  0.0679
19487W        W35961  17.541   8.038   1.365  0.2881 -0.1271  0.0199
19488W        W35962  13.450   4.022   1.137 -0.1089  0.0805  0.5185
19489W        W35963   3.527   2.044   4.397  0.0749 -0.0808 -0.0656
19490W        W35964   2.189  10.956  15.404 -0.0974  0.2304 -0.0644
19491W        W35965  11.099  15.768  16.232 -0.1146  0.0348  0.1300
19492W        W35966  15.403  14.294  14.564 -0.0065  0.0991 -0.4675
19493W        W35967  15.615   8.534   4.144  0.1577  0.0892 -0.1344
19494W        W35968  13.501  12.290   5.615  0.0702 -0.0405  0.2640
19495W        W35969   5.539   3.701   0.181 -0.1300  0.2080  0.0336
19496W        W35970  13.968  10.381   1.218  0.3757  0.0444  0.0152
19497W        W35971  16.428   1.941  14.017  0.0285  0.0066  0.0631
19498W        W35972  14.414   9.302  14.594  0.0780  0.0766 -0.0466
19499W        W35973   9.060   5.383   0.199  0.3366 -0.2848  0.0880
19500W        W35974  18.298   0.547   1.451  0.1801 -0.2680 -0.0323
19501W        W35975  17.516   9.808  11.028  0.1276  0.2872  0.0390
19502W        W35976   3.723  11.366   3.094  0.2110  0.0878  0.0372
19503W        W35977   9.076   6.535  14.183  0.3050  0.0860  0.0955
19504W        W35978   3.829   3.848   2.408  0.0559 -0.2360 -0.3446
19505W        W35979  17.400   6.857   1.456 -0.0140  0.0802 -0.0434
19506W        W35980   5.412   0.036  11.746  0.1249 -0.0716 -0.1063
19507W        W35981   2.800  14.748  12.335 -0.1267 -0.0190  0.2385
19508W        W35982   2.114   6.524  11.290 -0.1192 -0.0449 -0.3311
19509W        W35983  15.022   5.869  11.958  0.2137 -0.1677  0.3517
19510W        W35984   7.477  14.773   1.868  0.0534 -0.0477  0.0166
19511W        W35985  13.021   2.744   0.718 -0.0993  0.0681  0.0615
19512W        W35986  14.214   8.364   4.506  0.2034  0.1898 -0.0354
19513W        W35987   1.591   9.969   2.440  0.0367 -0.0804 -0.1095
19514W        W35988   6.559  14.274   0.760  0.0795  0.0244 -0.4012
19515W        W35989  12.784   2.585  15.180 -0.2085 -0.0504  0.3152
19516W        W35990   9.592   6.307  14.247  0.0194 -0.0597  0.0502
19517W        W35991  11.221   9.921  16.308  0.0002  0.0834 -0.1057
19518W        W35992   3.796   1.864   1.033 -0.0154 -0.3025 -0.1652
19519W        W35993  14.774   8.227  11.686 -0.0957 -0.0801  0.0032
19520W        W35994   0.985   0.291   3.747 -0.1287  0.0860  0.1190
19521W        W35995   6.963   4.451  11.926 -0.3053  0.0171  0.2775
19522W        W35996   1.226   6.154  15.423 -0.3062  0.1159 -0.0442
19523W        W35997   2.641  10.092   0.040 -0.0815 -0.0462  0.0627
19524W        W35998   6.611  16.434  15.804 -0.0361  0.2284 -0.0426
19525W        W35999  10.551  13.723   0.462 -0.2041  0.0797 -0.1090
19526W        W36000  16.123   2.371   1.306  0.4394 -0.1031  0.0024
19527W        W36001   8.391   4.795  11.537  0.0662 -0.1615 -0.0184
19528W        W36002  13.153   9.053   5.589  0.0699  0.0610 -0.1782
19529W        W36003   1.979   5.741   2.600  0.1454  0.3173  0.2703
19530W        W36004  13.635  10.366  11.937 -0.3911 -0.0709 -0.2736
19531W        W36005  16.999   3.282   3.041 -0.1438 -0.0061  0.2772
19532W        W36006   7.155  18.204   2.504  0.0934 -0.0090  0.2039
19533W        W36007  10.031  11.543   2.645 -0.2001 -0.0805 -0.2203
19534W        W36008  11.152   0.452   2.160 -0.0316 -0.1693  0.1382
19535W        W36009   9.989   8.827   1.641 -0.0614  0.1445 -0.1870
19536W        W36010  18.266   6.675   0.549 -0.0566 -0.2891 -0.1769
19537W        W36011   9.430  15.867   0.063 -0.1790 -0.1334 -0.0774
19538W        W36012   1.537   3.124  15.455  0.1666  0.1141 -0.2763
19539W        W36013   6.996   9.136   5.128  0.0470  0.0519 -0.2480
19540W        W36014  13.856   7.861  13.962 -0.2146  0.0130 -0.1147
19541W        W36015   1.396  13.895  13.455  0.2932 -0.1591 -0.0761
19542W        W36016  18.030  14.644  12.239 -0.1309  0.2818 -0.2032
19543W        W36017   0.490   0.424   1.946 -0.1856  0.0455 -0.2080
19544W        W36018   3.780   3.363   3.625 -0.0665 -0.0261 -0.1442
19545W        W36019  13.933  14.138   3.041 -0.3668 -0.0232 -0.2699
19546W        W36020   9.259   8.293  13.378 -0.2995  0.3464  0.2189
19547W        W36021   7.839  13.220  15.421  0.0015  0.0194  0.2230
19548W        W36022  15.075  16.395  13.610  0.2705  0.1086  0.3260
19549W        W36023   6.146  13.403   0.324  0.3986 -0.0802 -0.2930
19550W        W36024   3.568   2.275  14.877  0.1972 -0.0195 -0.1972
19551W        W36025  13.761   2.136  11.624  0.2423 -0.1159 -0.1196
19552W        W36026  14.838  17.499   4.589 -0.0128 -0.0919 -0.0756
19553W        W36027  14.934   7.780  11.668  0.1947  0.0625 -0.2201
19554W        W36028   1.684  15.014  15.672  0.0760  0.2817  0.1235
19555W        W36029   1.030  12.492  11.803 -0.1221  0.0697 -0.1210
19556W        W36030   1.981   5.899  15.829 -0.1930  0.0542  0.3049
19557W        W36031   7.463   2.862  15.164 -0.0895  0.0571 -0.1096
19558W        W36032   1.850   8.446  14.681 -0.1481  0.3728  0.0027
19559W        W36033  12.504   3.777   4.309  0.0027 -0.2002 -0.0059
19560W        W36034   3.234   6.506  13.696  0.1308 -0.0864 -0.1703
19561W        W36035   1.609  12.647  14.827 -0.1388  0.3442 -0.0804
19562W        W36036  12.945   6.688  14.903  0.0384 -0.0774 -0.1078
19563W        W36037   2.056   9.242  12.635 -0.0196 -0.0138 -0.3907
19564W        W36038  10.496  14.432   1.250  0.0390  0.1758  0.0889
19565W        W36039   3.436   8.111   1.475  0.0902  0.4201 -0.1599
19566W        W36040   9.327   3.644   1.009  0.0146  0.0271  0.1564
19567W        W36041   4.946   9.625  12.686 -0.1122 -0.1588  0.2039
19568W        W36042  17.527   0.696   5.070  0.0955 -0.0495  0.2055
19569W        W36043   8.662  15.653   3.185  0.3118  0.1358  0.0810
19570W        W36044   5.551   0.040  14.244  0.0621  0.0257 -0.0230
19571W        W36045  15.764   7.758   4.815 -0.0282 -0.4000 -0.0389
19572W        W36046   6.035  12.887   4.486 -0.0970 -0.2036 -0.0983
19573W        W36047   8.516   5.258   5.258 -0.3311  0.3039 -0.0611
19574W        W36048  10.657   0.480   4.284 -0.1611  0.2985  0.2732
19575W        W36049   2.853  16.533   5.318  0.0008  0.1949  0.2223
19576W        W36050  15.694   6.293  14.914  0.0136 -0.1557  0.0573
19577W        W36051  16.253  13.495   0.794 -0.0680  0.0642  0.1873
19578W        W36052  11.598   5.389  11.677 -0.0446  0.0772  0.0533
19579W        W36053   7.057  14.370  12.921  0.0836 -0.0795  0.1916
19580W        W36054   4.375  18.055   2.050 -0.1137  0.5620  0.3982
19581W        W36055  15.903   2.461  12.760 -0.1925 -0.0814  0.2679
19582W        W36056   3.679   5.478  16.202 -0.4094 -0.0339  0.0111
19583W        W36057  11.592   0.946  11.387 -0.1408  0.1638  0.1023
19584W        W36058   4.830  13.855  13.294  0.0541  0.0708 -0.2684
19585W        W36059  10.182  15.358  12.153  0.1814  0.2294  0.0913
19586W        W36060  17.926   0.942   0.673 -0.3474  0.0616  0.0752
19587W        W36061  11.052   3.085  15.055  0.0366  0.0283  0.2684
19588W        W36062  11.696  13.917  12.156  0.0811  0.0126 -0.0706
19589W        W36063  11.388  12.547   2.617  0.1309 -0.0796  0.2095
19590W        W36064   9.879   3.093  13.510 -0.0598 -0.0115 -0.0765
19591W        W36065   6.747  15.861   3.235  0.1198 -0.4367  0.1025
19592W        W36066   8.135   1.625  12.782 -0.0620 -0.1305 -0.3307
19593W        W36067   2.791  11.000  11.299  0.1109  0.0176 -0.0869
19594W        W36068  12.707   9.395  13.290 -0.2156 -0.3083 -0.2549
19595W        W36069   8.480   8.652   5.516 -0.2819  0.1875 -0.0736
19596W        W36070   1.317  13.725  11.171  0.3780  0.1790  0.2781
19597W        W36071   4.969   4.517  12.895  0.3465 -0.4782 -0.3864
19598W        W36072   5.765  11.042  11.192 -0.1683 -0.1019 -0.1965
19599W        W36073   9.209  16.526  14.006  0.0878 -0.0691  0.2608
19600W        W36074   9.747   1.504  15.800 -0.0470 -0.0984 -0.0907
19601W        W36075   8.194  15.936  13.568 -0.0270 -0.4073  0.0449
19602W        W36076   1.610   6.506   2.419 -0.1617  0.0918  0.0962
19603W        W36077   7.946  13.780   1.392 -0.0581  0.1585 -0.4032
19604W        W36078  10.314   3.292  13.832 -0.1213  0.1974 -0.1576
19605W        W36079  14.616  16.280  15.307  0.1278 -0.1939  0.1563
19606W        W36080  13.042  10.315   0.925  0.0344 -0.0721 -0.0365
19607W        W36081   2.259   8.783   5.193  0.0240 -0.1838 -0.1602
19608W        W36082  11.889   7.636   2.526 -0.1515 -0.0326 -0.1753
19609W        W36083  10.974  16.012   1.611 -0.0690  0.1897 -0.0440
19610W        W36084   2.247   6.427   0.401  0.0747  0.0977 -0.0814
19611W        W36085  12.678  14.903  13.402  0.0342  0.2221 -0.0679
19612W        W36086   5.543  16.986   3.719 -0.0852  0.2839 -0.0952
19613W        W36087  13.731   7.745  14.503  0.0798  0.3574  0.4084
19614W        W36088   0.120   0.546  13.392  0.1065  0.3040  0.1028
19615W        W36089   5.734  12.016   2.360  0.3806 -0.1383  0.0729
19616W        W36090  12.872   4.174   4.112  0.1732  0.0582 -0.1566
19617W        W36091   1.326  13.638   5.299  0.0299  0.1004 -0.0257
19618W        W36092   8.676   2.468   4.050 -0.2091  0.2415  0.0441
19619W        W36093  15.789   8.135  13.358 -0.0696  0.1570  0.1804
19620W        W36094   8.096  18.258   2.551 -0.3439 -0.1243  0.1319
19621W        W36095  12.412   4.575  12.341  0.1127 -0.1878 -0.3615
19622W        W36096   3.592   8.597  16.309 -0.1210 -0.0452 -0.3517
19623W        W36097  14.067   3.736  11.060  0.0513  0.1300  0.0630
19624W        W36098  10.497  14.552   4.958 -0.1713 -0.1806  0.0527
19625W        W36099   0.685  12.688  14.447  0.0156  0.1660 -0.3513
19626W        W36100   2.238  11.984   0.594 -0.0708  0.0788  0.0831
19627W        W36101   6.460  11.486   2.818  0.2827 -0.1400  0.4301
19628W        W36102   0.006   3.385   4.132  0.1334 -0.2249 -0.1541
19629W        W36103  15.693   5.604   2.889 -0.2321 -0.2001 -0.2688
19630W        W36104   0.072  13.070   3.760 -0.4184  0.1436  0.0104
19631W        W36105  16.297   0.841   1.419 -0.1781 -0.2042 -0.0490
19632W        W36106   6.520  16.169   3.524 -0.0926 -0.5134 -0.2416
19633W        W36107  14.593  17.367  13.594  0.2214 -0.1360 -0.3177
19634W        W36108  12.743  13.747   2.988 -0.2037 -0.1223 -0.0714
19635W        W36109   9.296  13.421  13.047  0.0996  0.1379 -0.0728
19636W        W36110   4.799  13.312  11.525 -0.0679 -0.3383  0.2253
19637W        W36111   0.694  16.704   1.326  0.1153 -0.0110  0.1312
19638W        W36112   8.586  10.905  11.935 -0.4725  0.2152  0.1732
19639W        W36113   9.352  12.860  11.464 -0.1259  0.0297  0.0639
19640W        W36114   4.463   8.162  12.014 -0.1632  0.0185  0.3657
19641W        W36115  11.991   3.750  12.589 -0.0371 -0.1997  0.0034
19642W        W36116  13.106   5.066   1.607  0.0494 -0.0343 -0.1664
19643W        W36117  15.401   1.649   6.088 -0.0283 -0.0828  0.1622
19644W        W36118   4.603   4.604   4.615  0.0947  0.0369  0.0309
19645W        W36119  12.718  18.321  12.029  0.1386  0.2299 -0.1727
19646W        W36120  16.173   7.370  12.364  0.1955  0.0429 -0.6311
19647W        W36121   3.218   3.224  14.804  0.0570  0.1282 -0.0527
19648W        W36122  15.958  17.055  15.646  0.0937  0.2417  0.0149
19649W        W36123  17.773  11.157   4.982 -0.3360 -0.3335  0.0145
19650W        W36124  13.976   8.983  14.022  0.0808 -0.0810 -0.0962
19651W        W36125  16.766  13.970  13.652  0.1149  0.1268  0.4215
19652W        W36126  14.417  17.464   5.799 -0.0627  0.1898 -0.2562
19653W        W36127   2.597  15.349   2.632  0.0659  0.1978  0.1873
19654W        W36128   6.447  11.996  11.100 -0.2010 -0.0536  0.0951
19655W        W36129  12.388  12.992  14.660 -0.5461 -0.2692 -0.0352
19656W        W36130   6.493  10.018   0.438  0.1165 -0.0686 -0.4312
19657W        W36131  17.000  12.596   3.706 -0.4446  0.3197 -0.1540
19658W        W36132   4.307   4.668   5.668  0.2260  0.0385 -0.1053
19659W        W36133   7.736  15.791  16.202 -0.0239 -0.0297  0.0855
19660W        W36134  17.653  12.240  14.117  0.0988  0.1345  0.0204
19661W        W36135   7.023   2.894   4.854  0.4701  0.1558  0.2097
19662W        W36136  12.082   2.542   1.434 -0.0556 -0.1996 -0.0582
19663W        W36137  13.662   0.567  14.773 -0.2088  0.0722  0.1992
19664W        W36138   1.296  13.940   4.488 -0.4282 -0.0704  0.1871
19665W        W36139   1.007   9.584  14.606 -0.1408 -0.1267 -0.0875
19666W        W36140  11.614  17.443  10.440 -0.0605 -0.0076 -0.1776
19667W        W36141   7.005  16.088   4.206 -0.0648 -0.1826 -0.2053
19668W        W36142  14.809  11.317  12.967  0.0105 -0.1409 -0.0538
19669W        W36143  13.233  15.121  15.931 -0.1255  0.2700 -0.2468
19670W        W36144   1.163   8.877  12.032  0.0276 -0.0100  0.0918
19671W        W36145   8.163   0.057  14.335 -0.2845 -0.1427  0.1802
19672W        W36146   6.308  10.449   4.554  0.0515 -0.0766  0.0759
19673W        W36147  11.073  11.515  12.355 -0.0763 -0.4262 -0.0862
19674W        W36148  13.278   3.754  14.542 -0.1589  0.1636  0.1076
19675W        W36149  12.496  13.367  13.382  0.3482 -0.0355 -0.2088
19676W        W36150   1.656   3.520  11.055  0.3898  0.2284  0.1966
19677W        W36151  11.248   1.739   1.466 -0.2059  0.1310 -0.0718
19678W        W36152   6.628   2.175   1.156 -0.3659 -0.0855  0.0126
19679W        W36153   5.824  13.973  13.259 -0.1831 -0.0272 -0.1278
19680W        W36154   1.156   2.009  16.227 -0.2583 -0.1153  0.1456
19681W        W36155  14.080  15.054  13.829  0.2524  0.0134  0.4090
19682W        W36156  18.197  16.442  13.736  0.1565  0.3249 -0.0914
19683W        W36157  17.095   7.105  14.590  0.0642 -0.2688  0.2098
19684W        W36158  13.125   0.121  12.579 -0.1664 -0.1326 -0.0549
19685W        W36159  17.296  13.923  10.802 -0.2740  0.1587  0.0544
19686W        W36160  13.801   9.677   1.814 -0.1887  0.0609  0.0463
19687W        W36161   6.532   5.814  15.791  0.0793 -0.0448 -0.1469
19688W        W36162  14.224   2.453  11.657 -0.1170  0.0186  0.0245
19689W        W36163   9.700   7.731   0.450 -0.1702  0.2194 -0.0571
19690W        W36164  13.760   1.801  12.100  0.2598  0.2093 -0.1009
19691W        W36165  10.566   3.432   0.342 -0.1785  0.0179 -0.3583
19692W        W36166  14.187   2.738   6.041 -0.0072  0.3442 -0.3074
19693W        W36167   0.984   0.154   5.144  0.0696  0.0813 -0.0888
19694W        W36168   0.935  15.955   3.717 -0.0862  0.1735 -0.1704
19695W        W36169   2.789  17.015  13.020  0.0227 -0.0801 -0.1542
19696W        W36170  14.762  17.125   4.909 -0.0210 -0.2059  0.2169
19697W        W36171  14.548   5.939  15.243 -0.2832 -0.0017  0.0477
19698W        W36172   1.530  11.881   4.296 -0.0179  0.1143  0.4850
19699W        W36173  16.932   4.900   2.068 -0.1391  0.1988 -0.4645
19700W        W36174  11.602  12.706   1.292 -0.1831  0.1225 -0.0190
19701W        W36175   0.114   0.106   0.480 -0.0208 -0.1139  0.0083
19702W        W36176   1.920   9.019   3.139 -0.1522 -0.1594  0.3561
19703W        W36177  17.787   6.978   0.534 -0.0758 -0.1327  0.0592
19704W        W36178   1.250   0.639  10.873 -0.3834  0.0142 -0.2305
19705W        W36179  16.355   4.165  15.679  0.1897  0.2674 -0.2390
19706W        W36180  10.979  11.652   5.762 -0.2668 -0.1866  0.0876
19707W        W36181   7.788  14.859   3.100 -0.3905  0.0547 -0.2022
19708W        W36182  13.490   4.883   2.529 -0.1833  0.1226  0.2054
19709W        W36183   6.995   5.112   5.991 -0.1154  0.0221 -0.1316
19710W        W36184  13.603  15.217   5.709  0.0770  0.2125  0.1497
19711W        W36185  14.672   3.972   4.445 -0.0822  0.2935 -0.0747
19712W        W36186   2.870  16.408  14.572 -0.3695 -0.2270 -0.0850
19713W        W36187   2.080   6.146   4.494 -0.0375  0.0573 -0.0551
19714W        W36188  15.379   6.695   0.570 -0.0689 -0.1231 -0.1272
19715W        W36189   1.363  10.094   1.950 -0.0005  0.0480  0.1440
19716W        W36190   1.668  15.575   3.404  0.0642 -0.0247  0.1817
19717W        W36191   9.857   8.558  14.253 -0.2180  0.0882 -0.1808
19718W        W36192   3.552   8.121  11.489  0.0730 -0.1054  0.2497
19719W        W36193  16.533   0.087  12.706 -0.0359 -0.2668  0.2121
19720W        W36194   6.080  12.174  12.480  0.2133  0.0697 -0.1081
19721W        W36195  16.893   6.478   3.787 -0.0461  0.0288 -0.0352
19722W        W36196  14.538   7.083   1.872  0.0772 -0.0621  0.1093
19723W        W36197  10.174  11.800   0.711  0.3231  0.0098  0.1406
19724W        W36198   2.261   2.273   5.333 -0.2203 -0.0424  0.0824
19725W        W36199   7.859   7.709   0.994 -0.1908  0.1088  0.1404
19726W        W36200   0.563   5.824   2.979  0.0930 -0.2810 -0.1669
19727W        W36201   0.686  14.558   3.618 -0.0178 -0.1409 -0.1211
19728W        W36202   3.812   1.822   0.265  0.0824 -0.2628 -0.0047
19729W        W36203  17.661  17.639   5.025  0.0027 -0.3900  0.4403
19730W        W36204  10.030  14.851   4.978  0.1192 -0.0650  0.0862
19731W        W36205  12.599   7.290  13.522  0.0868 -0.0656  0.2333
19732W        W36206   2.749   7.173   2.768 -0.0383  0.1670 -0.0144
19733W        W36207  15.699  10.112  12.003 -0.0171 -0.0517  0.2449
19734W        W36208   7.958  12.032   5.073  0.1894  0.0450  0.0338
19735W        W36209  17.809   2.945  16.182  0.3977  0.2465  0.3901
19736W        W36210  17.713   0.466  12.485  0.2499 -0.3935  0.0658
19737W        W36211   7.284   8.485   3.524  0.3793 -0.0293  0.0937
19738W        W36212  17.881  13.372   0.010  0.2635  0.2455  0.0028
19739W        W36213  14.714   4.932   1.132 -0.1902  0.1492 -0.1702
19740W        W36214  10.224   2.026   2.252  0.0017  0.1311  0.1484
19741W        W36215   0.634   5.687   3.886  0.0039 -0.1142 -0.3432
19742W        W36216  17.053  10.889  16.009  0.0623 -0.5135  0.0132
19743W        W36217   7.012   0.447   1.852  0.1427  0.1428 -0.1500
19744W        W36218  13.818   4.847   3.303  0.3565 -0.0188 -0.1712
19745W        W36219  17.819  13.844   3.456 -0.0860 -0.0719  0.2784
19746W        W36220  10.015   4.009  14.607  0.1050 -0.0387 -0.1484
19747W        W36221   9.563  14.966  14.350  0.1226 -0.1241  0.2367
19748W        W36222  16.520   8.276  15.649 -0.1408 -0.0240  0.0820
19749W        W36223   3.596  16.992  11.987  0.0645  0.1816 -0.2421
19750W        W36224  10.448  10.889   0.017 -0.0497 -0.0444 -0.0511
19751W        W36225  12.552  14.252  13.695 -0.1388 -0.0784 -0.1234
19752W        W36226   8.886   8.389   2.208  0.2035 -0.1052  0.0062
19753W        W36227  14.774   3.117  11.514 -0.2269 -0.1021  0.1929
19754W        W36228  17.066  12.851   4.476  0.0558 -0.2358 -0.2552
19755W        W36229  12.126  11.982   2.962  0.2241 -0.0517 -0.0057
19756W        W36230  11.588   2.156   4.804  0.1070  0.1507  0.0594
19757W        W36231   7.951   6.134  11.741  0.0868 -0.2647 -0.1086
19758W        W36232   9.482   4.434  14.943 -0.1103  0.1596 -0.2013
19759W        W36233   8.127   7.163  13.975 -0.1249  0.0830 -0.3587
19760W        W36234  16.616  16.653   2.049  0.0400 -0.0094 -0.0088
19761W        W36235  11.373  15.730  12.874  0.2623  0.4765  0.1548
19762W        W36236   9.599   0.879   0.095  0.1619 -0.1736 -0.1244
19763W        W36237   0.022  17.680   0.596  0.1628 -0.0889  0.0382
19764W        W36238  14.728  17.499   6.170 -0.1257 -0.2944  0.2076
19765W        W36239  11.422   5.838  11.847  0.0343 -0.2068  0.0089
19766W        W36240   3.286   1.008   3.376 -0.1287  0.2705  0.0220
19767W        W36241   3.759   8.563  15.568 -0.0178 -0.0836  0.0208
19768W        W36242   9.878   3.850   4.520 -0.2759 -0.0206 -0.2532
19769W        W36243   6.271   4.868  10.480 -0.1700  0.1400 -0.3446
19770W        W36244   7.835   5.576  12.884 -0.0582 -0.1449 -0.1299
19771W        W36245  11.478   3.170  15.428 -0.0232 -0.0317  0.0969
19772W        W36246  14.757   9.935  13.973  0.2009  0.0007  0.0048
19773W        W36247  16.603   2.320  11.169  0.2250  0.2365  0.0954
19774W        W36248  14.976  14.872  11.484 -0.1014 -0.1168  0.0145
19775W        W36249   9.984  17.154  14.233  0.1184  0.0770 -0.0370
19776W        W36250  12.750   8.694   6.214  0.2993  0.2555  0.1602
19777W        W36251   4.361   1.373   3.658 -0.0946 -0.2131  0.1229
19778W        W36252   9.110   7.385   1.077 -0.2461 -0.0535 -0.1973
19779W        W36253   2.313  14.442   2.330 -0.0158 -0.2287  0.1040
19780W        W36254  14.737   2.256   1.611 -0.0392 -0.2199 -0.0445
19781W        W36255   1.804   0.421  10.898  0.0797  0.1082 -0.2779
19782W        W36256  14.617  12.632  13.871 -0.4466 -0.0294 -0.0824
19783W        W36257   8.898  17.606  15.133 -0.2628 -0.0620  0.3025
19784W        W36258   0.594  14.721   0.129 -0.1031  0.2343 -0.4438
19785W        W36259   2.982   4.302  15.418  0.2154  0.1351 -0.1714
19786W        W36260   4.979  11.480   3.051  0.1116 -0.1646  0.0600
19787W        W36261  11.769   2.634  14.512  0.1449 -0.2221 -0.0445
19788W        W36262   8.955  18.195  13.302 -0.0390  0.3038  0.1448
19789W        W36263   8.602   0.061   4.747  0.0640  0.1041  0.1857
19790W        W36264   4.299   0.797   4.896  0.0637  0.2794  0.0123
19791W        W36265   8.882   0.298   4.437  0.0724 -0.2279  0.0713
19792W        W36266  15.412   1.496   3.020 -0.1259  0.1678  0.0304
19793W        W36267   0.553  12.084  11.895 -0.2346 -0.2722  0.0075
19794W        W36268   9.630  12.529   4.191  0.0030 -0.2646  0.0533
19795W        W36269   6.114   3.400   3.357 -0.1914  0.1060  0.3645
19796W        W36270  14.241  13.583  14.909  0.0118 -0.1771 -0.1143
19797W        W36271  11.816  15.479   2.265  0.0912 -0.0011 -0.1132
19798W        W36272   7.608  14.766   3.624  0.1346  0.2768 -0.1471
19799W        W36273   3.480   4.322  15.513 -0.0264 -0.1293 -0.0407
19800W        W36274   1.989  13.662  14.883 -0.1200  0.1752  0.3828
19801W        W36275   8.792   0.239  11.634 -0.0149 -0.1584 -0.0831
19802W        W36276   9.058   7.481   2.973  0.1532 -0.0583  0.0446
19803W        W36277  16.187   6.368   0.072  0.2214 -0.3229 -0.1415
19804W        W36278   9.714  12.346   3.398 -0.0724 -0.0598 -0.2188
19805W        W36279  11.476  11.796   1.773  0.0431 -0.1510 -0.2334
19806W        W36280  11.375  16.549  11.658 -0.4210 -0.2037  0.3451
19807W        W36281   9.372   2.242   0.639 -0.0697 -0.0159  0.0094
19808W        W36282  13.145   7.691  11.486  0.1651 -0.0650 -0.0129
19809W        W36283   3.015   3.264   3.087  0.1267 -0.0668 -0.0929
19810W        W36284  18.280  10.423  12.622  0.0794 -0.2004  0.3507
19811W        W36285  10.704  13.214  12.210  0.1665 -0.3682 -0.0010
19812W        W36286   2.677   0.187  12.442 -0.0821 -0.0997 -0.1576
19813W        W36287  15.858  17.180   1.218  0.6186 -0.0334  0.2213
19814W        W36288  10.879   9.952   6.108 -0.3963  0.1119 -0.1646
19815W        W36289   6.214   9.368   5.440 -0.1415 -0.2811 -0.3004
19816W        W36290  10.269   8.899  13.449 -0.2999  0.1980 -0.2038
19817W        W36291   8.981  13.187   0.701 -0.1324 -0.2961 -0.1961
19818W        W36292   5.966  16.580   3.806  0.0122  0.2510  0.0356
19819W        W36293   0.775   6.898   0.043 -0.1158 -0.0221  0.1214
19820W        W36294   0.829   8.460   5.703  0.1886 -0.3229 -0.0224
19821W        W36295   1.383   7.151  12.484  0.3740  0.0074 -0.3787
19822W        W36296  13.190  12.475  14.214 -0.1819 -0.2104 -0.1759
19823W        W36297   2.867  12.306   4.405  0.3661 -0.1060  0.1904
19824W        W36298  13.389   1.752   0.440  0.3318  0.0825  0.0442
19825W        W36299   4.426   6.773   1.157  0.0196  0.1871 -0.0401
19826W        W36300  14.352   1.110  12.630 -0.2593  0.0142  0.1573
19827W        W36301  12.684   6.451  13.863  0.3007  0.0932 -0.0132
19828W        W36302  10.578  14.566  12.429  0.1416  0.2591  0.1173
19829W        W36303  10.764  17.635  16.202 -0.4528 -0.1839 -0.4034
19830W        W36304   2.533  13.518  13.051  0.0062  0.0999  0.0877
19831W        W36305  14.933   1.554  16.279  0.0641 -0.0360  0.1781
19832W        W36306  11.433  17.967  13.270  0.1384 -0.2958  0.3350
19833W        W36307  13.515   3.687  15.190 -0.1335  0.3043 -0.1773
19834W        W36308  16.240  16.513   0.040  0.0244  0.2133  0.0007
19835W        W36309  10.400  15.261  11.720  0.1363  0.0227  0.2523
19836W        W36310  15.321  17.060   1.921 -0.5849 -0.0241 -0.2407
19837W        W36311   2.383  14.714   4.640  0.1909  0.0109  0.0190
19838W        W36312   8.256   1.109   5.993  0.0696 -0.0071  0.0293
19839W        W36313   6.718  11.985  15.574 -0.0164 -0.1210 -0.0754
19840W        W36314  13.531  10.632   1.636 -0.0021 -0.0060 -0.1177
19841W        W36315  10.131  17.071  15.625 -0.1682  0.0859 -0.3996
19842W        W36316   3.323   6.281   2.720 -0.0936 -0.3521 -0.1407
19843W        W36317   9.135   7.746   6.075  0.0827  0.1079  0.0841
19844W        W36318   9.502  18.242  15.280  0.1462  0.0471  0.0757
19845W        W36319  15.405   1.714   3.634 -0.1972  0.0207  0.1200
19846W        W36320   4.887  13.090  14.125 -0.4814  0.2567  0.0112
19847W        W36321   7.914   2.589   0.517 -0.5574 -0.1522 -0.2268
19848W        W36322  16.447  12.960  15.721  0.5098  0.1418 -0.1171
19849W        W36323   8.569   8.965   3.721 -0.0162  0.1490  0.0939
19850W        W36324  17.241  10.412  12.507 -0.0297 -0.0391 -0.2543
19851W        W36325  14.382   9.668   2.617 -0.1158 -0.0138 -0.0829
19852W        W36326   4.834   4.919  13.308 -0.0243  0.2451  0.0494
19853W        W36327   1.176   6.035  12.774 -0.4118  0.0476 -0.2670
19854W        W36328   1.359   4.319   0.257  0.0470 -0.0834  0.0867
19855W        W36329   0.410  10.941  11.286 -0.2565 -0.0831 -0.1938
19856W        W36330   7.347  15.981   4.584 -0.3336  0.1166  0.2503
19857W        W36331  17.425   7.974   4.965  0.2169  0.0153 -0.0531
19858W        W36332  11.880   6.938  14.215  0.1161 -0.2017  0.4247
19859W        W36333  11.664   6.529   4.121 -0.0412  0.0762  0.0934
19860W        W36334  17.202  15.756  11.961 -0.1534  0.0900 -0.0843
19861W        W36335  17.563   6.397  10.372  0.1752  0.0527 -0.1507
19862W        W36336   8.587   3.585  13.076  0.0862 -0.1831 -0.0994
19863W        W36337  15.591  17.787   0.844  0.1048  0.0051  0.0320
19864W        W36338  10.736   4.906  11.615 -0.0763  0.0023 -0.0436
19865W        W36339  12.040   3.055  16.172 -0.1597  0.0984 -0.2465
19866W        W36340   8.776   5.960   2.853 -0.1833 -0.5088  0.0254
19867W        W36341   1.917  11.781  15.975 -0.1052 -0.1368 -0.2443
19868W        W36342   3.749   1.156  14.012  0.4001 -0.0468  0.0390
19869W        W36343   0.217  12.825   2.220 -0.0291  0.1722  0.0154
19870W        W36344  17.718  12.608  12.713  0.3714 -0.0379 -0.1523
19871W        W36345   0.701   5.093   4.197 -0.1045  0.1285  0.0250
19872W        W36346   6.792   2.514  12.607 -0.0430  0.2773 -0.2084
19873W        W36347   1.518  14.464  10.587  0.0798  0.1127  0.1225
19874W        W36348   0.533  15.677  14.360 -0.0531 -0.3253  0.0619
19875W        W36349  15.442   3.545   0.072 -0.1940 -0.2394  0.2731
19876W        W36350  14.701  14.766   1.719  0.1751  0.1028  0.1856
19877W        W36351  14.766   7.861  12.154 -0.0467  0.1890  0.3179
19878W        W36352  18.168  16.387  12.710 -0.2520 -0.3708  0.0160
19879W        W36353   6.639   7.325   0.447 -0.1061 -0.0730  0.0128
19880W        W36354  10.451  10.872  14.031 -0.0653 -0.1951 -0.3800
19881W        W36355  14.649   4.030   4.946  0.1422 -0.0489  0.2680
19882W        W36356  14.468   6.554  15.550 -0.0738 -0.2049 -0.0581
19883W        W36357   9.445   6.669   5.125  0.1452 -0.1641 -0.0909
19884W        W36358   6.592   4.155  11.932 -0.0599 -0.2178  0.2105
19885W        W36359  16.250  16.528  14.302  0.2526  0.0393 -0.1068
19886W        W36360   5.161  10.825   3.091  0.1985  0.2157  0.0922
19887W        W36361   9.540   2.919  14.930 -0.2220  0.0550 -0.3764
19888W        W36362  15.241   7.188  14.005 -0.3362 -0.1002  0.2128
19889W        W36363   4.517  14.457  13.605  0.1717 -0.0735  0.1276
19890W        W36364   6.784  13.870   0.340 -0.0648  0.2739 -0.0202
19891W        W36365   6.236  11.505  14.151 -0.1032 -0.0547  0.2053
19892W        W36366  15.717  14.423   5.546  0.1145 -0.0415  0.1191
19893W        W36367   9.393   6.302   4.157 -0.3038  0.0347  0.1574
19894W        W36368   8.782   1.892  15.835  0.2712 -0.2098 -0.1571
19895W        W36369   4.822  15.324   2.547  0.1384 -0.1527 -0.0425
19896W        W36370  16.958   4.814   0.046  0.1428 -0.0025  0.2732
19897W        W36371  12.376   4.226   3.966 -0.0609  0.1872 -0.0738
19898W        W36372  13.332  11.368  11.934 -0.0021 -0.2884  0.0822
19899W        W36373  12.784   8.201   6.076 -0.2877 -0.0504  0.0989
19900W        W36374   8.106   1.670   1.920 -0.3166 -0.1084 -0.1440
19901W        W36375   0.557  18.203   2.533 -0.0005  0.1191  0.1461
19902W        W36376   7.518   4.863  13.769  0.0668 -0.1024 -0.0714
19903W        W36377   0.161  18.272   3.595 -0.0317  0.1879 -0.2002
19904W        W36378   3.951   1.326   1.534 -0.0775 -0.1091 -0.1699
19905W        W36379  12.823  18.058  12.487 -0.0880  0.0429  0.1091
19906W        W36380  14.346  12.229  12.556  0.0955  0.2392 -0.0058
19907W        W36381  16.994   4.763  13.800  0.2155 -0.1124 -0.0242
19908W        W36382   9.069  11.874   1.060  0.3819 -0.0382  0.1223
19909W        W36383  10.202   4.920  14.209  0.1115  0.2581 -0.1240
19910W        W36384   7.771   1.266  12.468  0.1138 -0.0473 -0.1263
19911W        W36385   5.791  10.636  11.479 -0.4028 -0.2181  0.3402
19912W        W36386   0.169   7.008  15.046  0.0978  0.0802  0.0666
19913W        W36387   8.738  16.298   5.353  0.2036  0.2438 -0.2684
19914W        W36388  15.936   0.152  14.568  0.3607 -0.1518 -0.0007
19915W        W36389   0.234  10.735   3.451  0.1703  0.0327  0.2280
19916W        W36390   4.180  16.792   4.040  0.1743  0.0848 -0.1118
19917W        W36391   1.319  14.628   4.201  0.1534 -0.0146  0.0462
19918W        W36392   7.162  15.202  14.289 -0.0677  0.1767 -0.0348
19919W        W36393   0.870  12.124   0.158  0.0848 -0.0836 -0.1710
19920W        W36394  16.854   8.137  12.816  0.2176 -0.0700  0.2206
19921W        W36395  16.801   9.818  14.758  0.0118  0.3186  0.0149
19922W        W36396  10.851  14.683  13.811  0.1071  0.2093  0.1119
19923W        W36397  17.996  12.084   4.630 -0.3016  0.3398 -0.5579
19924W        W36398   6.364  17.310  13.876  0.2653  0.1008  0.4335
19925W        W36399   5.423   4.209  15.047  0.2578 -0.0035 -0.0634
19926W        W36400   4.103   7.741  15.613  0.0770  0.0394  0.3092
19927W        W36401   5.926  15.650   1.356 -0.0174  0.3398  0.0921
19928W        W36402  11.904   8.018   3.762 -0.1602  0.0124 -0.0266
19929W        W36403  12.176  12.663   4.582 -0.2162  0.1181 -0.1850
19930W        W36404   6.570   2.641   1.290 -0.1022 -0.1091 -0.0694
19931W        W36405   5.366  14.556  16.302  0.1878 -0.0696 -0.0539
19932W        W36406  16.137  17.160  14.808  0.0456 -0.1404  0.1757
19933W        W36407   0.465  10.230  12.687  0.0606  0.2389  0.0379
19934W        W36408   4.648   2.091   0.757 -0.2833 -0.0086 -0.0261
19935W        W36409  12.498  17.565   0.745  0.1022 -0.1698 -0.0292
19936W        W36410  17.515   5.415   2.894  0.2428  0.0322 -0.2111
19937W        W36411   2.810   3.022  13.132 -0.0683 -0.0671 -0.3970
19938W        W36412  12.851  14.300  11.691  0.1889  0.3894 -0.0344
19939W        W36413   1.859   7.947  14.520 -0.0747 -0.0219 -0.0178
19940W        W36414   1.391  13.928  12.467  0.0906  0.0269  0.0928
19941W        W36415  15.231  17.617   4.808  0.0745  0.2082  0.3364
19942W        W36416   3.935   2.735  15.008  0.1248 -0.0816  0.1534
19943W        W36417   3.112   0.432  10.709  0.1387 -0.2413  0.2293
19944W        W36418  14.860  13.636  16.087 -0.1239  0.3594 -0.0966
19945W        W36419   6.487   7.087   6.676 -0.0236 -0.2527 -0.0015
19946W        W36420   7.035   6.396  11.893 -0.4523 -0.1886 -0.0457
19947W        W36421   9.924   6.920   1.301 -0.0529 -0.1122 -0.0423
19948W        W36422   2.039  11.722  11.067  0.2282  0.1721  0.1881
19949W        W36423   2.167  10.313  16.210 -0.0132 -0.1279 -0.1422
19950W        W36424   9.951  16.731  13.093  0.0776  0.0175 -0.1664
19951W        W36425   3.666  10.828  12.465 -0.1457 -0.0695 -0.2684
19952W        W36426   6.770   9.234   4.619 -0.1061 -0.1145  0.2857
19953W        W36427   7.938   7.545   1.503  0.0141 -0.0250 -0.0516
19954W        W36428  13.022  12.387  11.868  0.0824 -0.1255  0.3367
19955W        W36429   5.672   1.255  14.299  0.1042  0.1417  0.0702
19956W        W36430  11.369   7.287   0.503 -0.0148 -0.0777 -0.1148
19957W        W36431  13.107  15.745  14.215 -0.0176  0.0895 -0.2571
19958W        W36432   2.312  10.629   3.884  0.0344 -0.3069  0.0602
19959W        W36433   5.301   2.837  11.449  0.2719 -0.0826 -0.1696
19960W        W36434  13.900  10.966   2.352  0.1591  0.0388  0.0303
19961W        W36435  13.974  12.782  13.699  0.1444  0.0343 -0.0191
19962W        W36436  18.020   7.822   2.384  0.1646 -0.0237 -0.1074
19963W        W36437  11.025   5.299   3.041 -0.1822  0.1113 -0.5345
19964W        W36438  18.202   3.795  15.950 -0.1736 -0.3621 -0.4157
19965W        W36439  15.569  17.807  15.415 -0.1877  0.1652 -0.2133
19966W        W36440  14.996  11.089  12.137  0.1083  0.1692  0.0568
19967W        W36441   1.150  12.047   1.542 -0.1436  0.5058  0.3152
19968W        W36442  17.757   8.313  11.779 -0.3652 -0.2607  0.0806
19969W        W36443   8.150   2.951  11.398  0.1828 -0.3930  0.0371
19970W        W36444   8.166   3.842   0.023  0.1826 -0.0888 -0.2884
19971W        W36445  15.295   2.871  12.145 -0.2599  0.0980  0.2232
19972W        W36446  14.489   2.135  11.380 -0.2024  0.3937  0.2122
19973W        W36447   6.886  14.894  12.899 -0.0832 -0.1073 -0.2631
19974W        W36448   5.313   2.658  16.017 -0.2935 -0.2560  0.2552
19975W        W36449   6.764  12.934   2.186 -0.3474  0.1468 -0.1585
19976W        W36450   4.868  17.730   0.589 -0.1439 -0.0354 -0.1134
19977W        W36451   0.424   9.966   0.949 -0.2056  0.0074  0.0606
19978W        W36452  15.915   5.478  11.301  0.1007 -0.1867  0.1563
19979W        W36453  11.418   1.349  14.923 -0.1555  0.0192  0.1931
19980W        W36454   8.800   5.665   5.772 -0.2711 -0.2094  0.1090
19981W        W36455   2.204   3.006  11.971 -0.2302  0.1793 -0.1423
19982W        W36456   9.663  14.662   4.666 -0.1959  0.1288  0.0226
19983W        W36457  16.340  10.742   3.677 -0.0637 -0.0301  0.1424
19984W        W36458  11.806  10.546  14.657 -0.1831 -0.1915 -0.1861
19985W        W36459   8.620  10.282  15.740  0.0931 -0.0001  0.3105
19986W        W36460   6.357   1.189  14.388  0.0093  0.1826 -0.3014
19987W        W36461   9.837   1.005  11.891 -0.2439 -0.1147 -0.0186
19988W        W36462  11.505   7.516  14.890 -0.1919 -0.0398  0.0313
19989W        W36463  13.599   6.848  13.756  0.3013  0.0409  0.0086
19990W        W36464   3.497  13.456  12.022 -0.2394  0.2933  0.3379
19991W        W36465   2.855   3.252   0.145 -0.1221 -0.1565  0.0267
19992W        W36466   3.558   2.350  11.057  0.2039  0.0711  0.0199
19993W        W36467  13.184  11.903   0.558  0.0390  0.1070 -0.3754
19994W        W36468   2.193  14.831   5.539  0.3665 -0.0586 -0.3961
19995W        W36469  17.050   1.481  15.015  0.0840 -0.0310  0.2221
19996W        W36470  16.630  12.636   0.271 -0.0168  0.0013  0.0472
19997W        W36471   0.866   4.180  14.140  0.0634 -0.1951 -0.0812
19998W        W36472  12.753   2.610  11.905 -0.0121  0.0958  0.0303
19999W        W36473  11.221   9.811  10.841  0.0541 -0.3067  0.0216
20000W        W36474  16.021   7.192   3.472  0.0603 -0.0997  0.3631
20001W        W36475   0.181   8.076  15.831  0.0010  0.1110 -0.1403
20002W        W36476  12.677   9.045  14.108  0.1768  0.4416  0.0025
20003W        W36477   3.753   0.791   4.687  0.2236 -0.2018 -0.2232
20004W        W36478  12.255   0.916   1.901  0.0008 -0.1469 -0.1904
20005W        W36479  11.245   1.802  12.030 -0.2854  0.1868  0.1666
20006W        W36480  17.301   6.267   0.773  0.0959 -0.1462  0.2492
20007W        W36481  14.024   5.793   4.639 -0.1891  0.1467  0.1710
20008W        W36482  17.125   9.579   1.097  0.3140  0.0432 -0.0278
20009W        W36483   3.214  16.893  16.153  0.1425 -0.0097 -0.1861
20010W        W36484  14.663   7.844   0.387  0.1776 -0.1196  0.2207
20011W        W36485   0.672   0.668   4.922 -0.1457 -0.5345  0.2889
20012W        W36486  17.822   2.298   3.151  0.1236  0.1007 -0.0389
20013W        W36487   9.825   6.502   5.439  0.1369  0.1387 -0.0056
20014W        W36488   4.713   3.998   0.011  0.0708 -0.2389 -0.2260
20015W        W36489   9.130  18.286  12.657  0.0133  0.0731 -0.0804
20016W        W36490  14.186  13.504  15.417  0.1560 -0.0609  0.1554
20017W        W36491   0.210  17.863   2.445  0.2043  0.1969  0.5126
20018W        W36492  12.523   1.853   2.994  0.1930 -0.0283 -0.3221
20019W        W36493   3.643   0.423   1.984 -0.1443 -0.2231  0.1468
20020W        W36494   4.063  13.471   0.467 -0.1762  0.0969 -0.0622
20021W        W36495  11.589  10.902   5.667 -0.0911  0.0657 -0.2328
20022W        W36496   8.598   8.811   1.466  0.3295  0.5935 -0.1126
20023W        W36497  16.996  17.901   1.770  0.4860 -0.2391  0.0832
20024W        W36498   8.314  11.058  12.592  0.1591 -0.1390  0.2737
20025W        W36499  17.670  13.987  15.364 -0.1027 -0.1834 -0.1796
20026W        W36500   0.751  17.704   4.779  0.2015  0.2645  0.0243
20027W        W36501   1.567  11.229  12.897  0.1210  0.0652 -0.0532
20028W        W36502   4.079  14.513   5.984 -0.0781  0.1781 -0.2296
20029W        W36503   1.771   9.535  15.142  0.1128  0.2637 -0.2438
20030W        W36504  10.457   3.304   1.752  0.0043 -0.2851 -0.0621
20031W        W36505   6.694  11.060  12.169  0.2951 -0.0299  0.2099
20032W        W36506   9.686  13.574  15.270 -0.0774 -0.0898 -0.2162
20033W        W36507   3.263  13.493   5.966  0.2525 -0.1899  0.0412
20034W        W36508  13.972   4.064   2.560 -0.0975  0.0533  0.0053
20035W        W36509   1.700   5.757  13.063 -0.0500  0.0667  0.1820
20036W        W36510   2.577   0.129   3.181  0.0621  0.2895 -0.1745
20037W        W36511   8.180  13.969   4.200 -0.0391 -0.1464  0.1941
20038W        W36512   5.330  15.139  15.103  0.1024 -0.0934  0.2915
20039W        W36513  15.109   2.294   4.445 -0.3829  0.0101  0.1053
20040W        W36514  17.846  11.005   3.826 -0.2151 -0.0990  0.1604
20041W        W36515  14.995  16.339  14.951 -0.0578 -0.0153 -0.1909
20042W        W36516   9.391   3.937   4.759  0.1360  0.0583  0.0913
20043W        W36517   4.424  17.682   4.154 -0.0241 -0.1960 -0.1870
20044W        W36518  14.260   0.159  10.517 -0.2980 -0.1321  0.2656
20045W        W36519  11.840   7.051  12.136 -0.0794  0.0124 -0.1053
20046W        W36520  16.645   2.360  12.211 -0.2075 -0.1266 -0.0814
20047W        W36521   3.752   6.468   2.554 -0.2109  0.1027 -0.1302
20048W        W36522  16.075   1.302   0.792 -0.1614 -0.0329  0.2040
20049W        W36523  15.400  12.245  12.835  0.2031  0.1212  0.3497
20050W        W36524   6.702  17.543   2.363 -0.1298  0.0596  0.5187
20051W        W36525   7.527  10.424  13.757  0.2048 -0.0072  0.2050
20052W        W36526  15.503   6.550  13.202  0.0870 -0.2273 -0.0639
20053W        W36527  13.800  15.678  14.458  0.0439 -0.2210  0.3132
20054W        W36528   1.252   6.173  15.920  0.0715 -0.1025 -0.1160
20055W        W36529  13.096  17.819   0.314  0.1823 -0.0835  0.0529
20056W        W36530   9.629   6.570  15.562  0.3745  0.2835 -0.1952
20057W        W36531  15.366   5.592  14.325 -0.0524 -0.2761  0.2635
20058W        W36532  13.795   3.507  12.900  0.2114  0.1532 -0.0314
20059W        W36533   8.535  14.096  11.715  0.1844  0.0965  0.1103
20060W        W36534   2.744  11.944   0.653 -0.3045  0.0361 -0.1625
20061W        W36535  16.793  13.620  11.978 -0.2129 -0.0664 -0.3881
20062W        W36536  16.633   2.955   4.881  0.3622  0.2824 -0.3237
20063W        W36537   4.932  10.396  11.920 -0.0051  0.1269 -0.1144
20064W        W36538  10.724   7.570  12.726  0.2455  0.1112 -0.1365
20065W        W36539   6.024   7.923  13.719  0.1080 -0.0133  0.2020
20066W        W36540   4.336   5.731   3.712  0.0415  0.1581 -0.2686
20067W        W36541   9.636   6.550  13.202 -0.0722 -0.2055  0.1725
20068W        W36542   2.374   9.609  14.407  0.1751 -0.0894 -0.2100
20069W        W36543  15.319   8.882   0.842 -0.2024  0.6023 -0.1728
20070W        W36544  10.125   5.438  14.595 -0.1082  0.2565  0.0483
20071W        W36545   6.528   7.779   3.773  0.0840 -0.0773 -0.1385
20072W        W36546  14.583   4.383  13.339 -0.4299  0.3357 -0.0909
20073W        W36547   3.508   3.037  15.238  0.3556  0.2248  0.3978
20074W        W36548  15.986  10.906  11.746  0.0324 -0.0557  0.0621
20075W        W36549   6.451   6.291   4.444 -0.0924 -0.1419 -0.2054
20076W        W36550  17.054  15.230  12.213  0.1196 -0.0764  0.1018
20077W        W36551   0.137  10.632  13.580  0.2372 -0.0648 -0.0550
20078W        W36552  11.442  12.465   5.525 -0.0173  0.1415 -0.1275
20079W        W36553   9.720  17.555  12.377  0.3812 -0.1453  0.2010
20080W        W36554   3.918   1.113   5.075  0.0327  0.0258 -0.0693
20081W        W36555  16.963   9.201   1.912 -0.3543  0.3065  0.1177
20082W        W36556  11.674   2.484   2.717 -0.1372 -0.1576  0.0740
20083W        W36557   5.662   5.947   4.823 -0.1230 -0.2093  0.0466
20084W        W36558  17.739  11.651   4.862  0.1068  0.2171  0.1469
20085W        W36559  13.087   0.001   3.892 -0.4636 -0.0260  0.0191
20086W        W36560   6.787  17.963   0.595 -0.1972  0.1580 -0.2269
20087W        W36561   2.159   0.348   0.561 -0.0139  0.2321  0.0258
20088W        W36562   5.464   0.037   2.209  0.0215 -0.2626  0.3593
20089W        W36563  14.868   9.036   1.241  0.0581 -0.1449 -0.0088
20090W        W36564  11.953  13.666   4.548 -0.0010 -0.0087 -0.1995
20091W        W36565  17.219   5.115   2.501  0.1073  0.3004  0.0877
20092W        W36566  12.698   0.390   5.761  0.5052 -0.2818 -0.0634
20093W        W36567  10.570   2.533  14.030  0.0937  0.0762 -0.0173
20094W        W36568   1.761  17.568  14.830  0.0819  0.0293 -0.0288
20095W        W36569   3.079   2.867  14.443 -0.2262  0.1128  0.1362
20096W        W36570  10.820   4.097   1.645 -0.2404  0.1333 -0.0642
20097W        W36571  11.332  15.454  13.368 -0.1251 -0.1147 -0.1327
20098W        W36572   2.081  10.947   5.038  0.0595  0.0315  0.1720
20099W        W36573  17.410   4.584   3.241 -0.1976 -0.1650 -0.1619
20100W        W36574  13.155  12.070  15.949  0.1399 -0.0912  0.0890
20101W        W36575   4.998  11.603  12.383  0.0233 -0.2133 -0.3387
20102W        W36576   7.163   9.195  15.099  0.2643  0.1721  0.3789
20103W        W36577   3.627   7.543  14.599 -0.0974 -0.1469  0.1431
20104W        W36578   9.378   1.749  11.429 -0.0859 -0.0892 -0.1733
20105W        W36579  15.701   3.820  12.168  0.0222 -0.3151  0.3160
20106W        W36580  10.021   2.036  15.131  0.0242 -0.0038 -0.1585
20107W        W36581   5.899  16.421  12.465 -0.0027 -0.0872 -0.2273
20108W        W36582  13.668   2.425  12.816 -0.0362 -0.0473 -0.0986
20109W        W36583   2.499   3.430  13.283 -0.2251 -0.0140 -0.3174
20110W        W36584   6.069  15.522   2.864  0.3657  0.2380  0.1623
20111W        W36585   1.657   6.982   3.424 -0.1837 -0.0013 -0.0922
20112W        W36586   1.283   4.769   1.891  0.4775  0.0791  0.0112
20113W        W36587   2.764  17.979   1.711 -0.0800 -0.1542 -0.0078
20114W        W36588   9.527  15.841  14.444  0.5113 -0.2392 -0.1455
20115W        W36589   2.561   2.885   4.690 -0.0920  0.0420 -0.2550
20116W        W36590   7.200   7.911   4.830  0.0399 -0.2510 -0.0006
20117W        W36591   6.865   9.645   0.563 -0.1063 -0.3592 -0.1857
20118W        W36592   4.314   0.701  11.979  0.1325 -0.2736  0.0059
20119W        W36593   9.435   2.383  14.696  0.1220 -0.1451 -0.2094
20120W        W36594   8.437   4.988  13.846 -0.0945 -0.3639 -0.0448
20121W        W36595  10.411   4.535   3.811 -0.0916 -0.2720  0.0965
20122W        W36596  10.577  10.947   2.682 -0.0862 -0.0598  0.0518
20123W        W36597  14.898   4.096  15.522  0.0801  0.1926 -0.0297
20124W        W36598  16.300  12.775   5.730  0.0576 -0.1653  0.3395
20125W        W36599  10.073   6.484   2.308 -0.0514 -0.0775  0.0016
20126W        W36600  15.745  17.048   5.047 -0.2722  0.0004 -0.1380
20127W        W36601   9.744  13.995   3.090  0.1965  0.1769 -0.2807
20128W        W36602   6.412  17.833  14.001  0.1302 -0.0085 -0.1343
20129W        W36603  16.830  13.993   1.455  0.0365 -0.0418 -0.0169
20130W        W36604   9.424   7.696  14.072 -0.2303 -0.0867  0.0405
20131W        W36605   1.175   0.329  12.998 -0.0069 -0.0932  0.0253
20132W        W36606   1.115  10.900   1.931  0.0535  0.1321  0.0760
20133W        W36607   9.162  10.357   3.704 -0.4539 -0.0250  0.2164
20134W        W36608  15.412  17.730   5.902  0.1116  0.4109 -0.0476
20135W        W36609  12.867   1.788  14.290 -0.1235  0.0870 -0.0122
20136W        W36610   7.568   8.667   4.240  0.1501 -0.0324  0.2681
20137W        W36611  18.153   8.405   5.427  0.1740  0.1876  0.0170
20138W        W36612   6.195   8.028  14.477 -0.1792  0.0497  0.0811
20139W        W36613   9.013  16.517  11.880 -0.0596  0.2398 -0.2656
20140W        W36614  10.395   0.858  15.867 -0.0287  0.3132 -0.1735
20141W        W36615   2.846   6.294   1.598  0.1147  0.1864  0.1274
20142W        W36616  16.592  16.739   3.818  0.0288  0.3362  0.0346
20143W        W36617   1.084   2.575   5.501 -0.3383 -0.2548  0.0310
20144W        W36618   1.300  10.892  16.040 -0.1236 -0.0755 -0.3420
20145W        W36619   4.520   2.388  11.465 -0.0798 -0.1147  0.1039
20146W        W36620   5.790   6.359  16.234 -0.1950 -0.2404  0.0474
20147W        W36621  12.175   1.848  14.625  0.1462  0.0014 -0.2067
20148W        W36622  16.855   6.309  12.121 -0.0431 -0.1508  0.2696
20149W        W36623   4.835  14.809  16.245  0.0132 -0.0354  0.0544
20150W        W36624  14.873   2.918  12.438 -0.0081  0.1770  0.1106
20151W        W36625   3.025  14.503  14.638 -0.0144 -0.0474  0.0526
20152W        W36626   2.662  17.115  11.799  0.1247  0.1322  0.1248
20153W        W36627  17.016  17.670   1.346 -0.0829  0.0415  0.2253
20154W        W36628   4.341   8.657   2.293  0.0959 -0.1823 -0.1726
20155W        W36629   6.037  12.343  13.903  0.0256  0.1346  0.1369
20156W        W36630  17.154  12.033   3.675 -0.3377  0.0846  0.3405
20157W        W36631  13.813   5.146   2.864  0.1389 -0.5059 -0.1340
20158W        W36632  15.071   2.335   0.321 -0.1382 -0.0561 -0.0760
20159W        W36633   3.831   6.659   2.033 -0.3791 -0.0602  0.1769
20160W        W36634   5.800   8.996   0.143 -0.1739 -0.3586 -0.1106
20161W        W36635  15.659   1.772   5.008  0.2468  0.2101 -0.1426
20162W        W36636  12.286  11.033   6.254  0.0020  0.0672  0.2194
20163W        W36637  12.660   3.389  13.863 -0.2568  0.1057 -0.2601
20164W        W36638  17.091  16.378  15.583 -0.2447 -0.0074 -0.1221
20165W        W36639   8.446   8.418  13.507 -0.0611  0.0182  0.3632
20166W        W36640   5.211   1.599  14.684  0.0666 -0.2349  0.2850
20167W        W36641  14.281  16.858   4.905  0.1151 -0.6349 -0.0020
20168W        W36642  11.156   0.153  15.701 -0.1042 -0.1868  0.2928
20169W        W36643   8.599   6.011   5.453  0.0492  0.0702  0.0903
20170W        W36644   4.201   2.299   2.250  0.0242 -0.2037 -0.0432
20171W        W36645  14.412  13.606   5.172  0.1200  0.1865  0.3259
20172W        W36646  12.926  14.149  12.239  0.2961  0.0013  0.2813
20173W        W36647  11.354   8.910   0.874 -0.4039 -0.2217  0.0097
20174W        W36648   9.488   1.921   0.210  0.0670  0.0601 -0.1741
20175W        W36649  15.929  14.463  12.703  0.1312 -0.0499 -0.0047
20176W        W36650   8.785  16.094   2.698  0.1631 -0.2603 -0.1584
20177W        W36651   0.190  15.480   3.564  0.0556 -0.1019 -0.1389
20178W        W36652   9.821  12.863   1.689  0.0294  0.2544 -0.0299
20179W        W36653   1.133  11.520   6.132 -0.0393  0.0401 -0.0336
20180W        W36654   2.814  15.925  13.865  0.0528 -0.1560 -0.2105
20181W        W36655  12.189  10.208   5.832  0.0568 -0.0551 -0.0265
20182W        W36656   5.281   8.523   5.796 -0.0622  0.0273 -0.0076
20183W        W36657  16.088   3.984  14.782  0.2193  0.0257 -0.2674
20184W        W36658  14.743   3.383   2.877  0.0790 -0.0276  0.0313
20185W        W36659  18.119   3.430  13.790 -0.0899 -0.0048  0.1242
20186W        W36660  14.865   8.730   3.161  0.4568  0.1123 -0.0790
20187W        W36661   6.329  16.885   1.775 -0.1948 -0.2732 -0.1012
20188W        W36662   1.634   6.815  12.968  0.0289  0.0005  0.4289
20189W        W36663   5.141   9.457   0.888 -0.0704  0.2233 -0.0389
20190W        W36664   9.933  16.345  13.518  0.1723  0.1567 -0.3582
20191W        W36665  13.027   1.680  13.182  0.2633  0.0551 -0.0976
20192W        W36666  13.410   5.207   1.971  0.1088  0.2003 -0.0715
20193W        W36667  16.472  11.691  13.211 -0.0920 -0.2079 -0.1473
20194W        W36668   3.589  15.590   0.727 -0.1657  0.0112 -0.4816
20195W        W36669   4.636  11.706   0.923  0.1950  0.3042 -0.0685
20196W        W36670  15.100  12.271   4.914  0.0271 -0.1211  0.2791
20197W        W36671   6.279  12.586   4.719  0.0086 -0.2392 -0.0266
20198W        W36672   6.303  18.234  16.107 -0.1843 -0.1814  0.1270
20199W        W36673  15.225  14.218  13.479  0.1054 -0.2643  0.2703
20200W        W36674  10.483  15.421   5.814 -0.0184  0.0104 -0.0034
20201W        W36675  12.487   2.270   1.108  0.3368 -0.2202 -0.1651
20202W        W36676   5.852  16.534  12.998 -0.0916  0.0980  0.0810
20203W        W36677  12.576  15.077   2.289  0.0174  0.1474 -0.1368
20204W        W36678   4.861  12.354  16.127  0.1338  0.1674 -0.0850
20205W        W36679   9.207   9.067   5.757  0.0475  0.3639 -0.0388
20206W        W36680   2.549   9.514   0.060 -0.2317 -0.3423  0.3577
20207W        W36681   6.386   8.944   0.759  0.0392 -0.1908  0.0319
20208W        W36682  11.306  14.387   4.781 -0.2038  0.1560 -0.2628
20209W        W36683   7.246  11.496  14.233  0.4051  0.2455 -0.0165
20210W        W36684  14.351  13.668   3.629  0.0810  0.0837  0.0760
20211W        W36685   7.212   8.893  11.047  0.0550  0.3215 -0.0504
20212W        W36686  16.260   6.895   0.881 -0.2074  0.0307  0.0922
20213W        W36687   2.346  15.758   2.589  0.0942  0.2669  0.2197
20214W        W36688   0.364   2.850  11.016  0.4398 -0.0379 -0.0485
20215W        W36689   9.894   9.754  14.253  0.2104  0.1622 -0.2653
20216W        W36690   8.680  17.415  12.966 -0.1491  0.2580 -0.0863
20217W        W36691  16.269  18.301   2.848 -0.3217 -0.3422  0.0291
20218W        W36692  10.982  12.479  15.302  0.1463 -0.1519 -0.0345
20219W        W36693   8.750   4.792   4.491  0.1630  0.2297  0.0547
20220W        W36694   8.340  14.983  16.310  0.0835 -0.3276  0.0826
20221W        W36695   9.756  15.018   1.664  0.1901  0.1275  0.1156
20222W        W36696  12.485  12.967  11.519 -0.4041  0.1140 -0.0069
20223W        W36697  15.022  16.729   3.412  0.0422  0.0292 -0.1791
20224W        W36698  13.709   0.233  12.137 -0.0748  0.0745 -0.3951
20225W        W36699   1.765   2.226   3.049 -0.1441 -0.2023  0.0019
20226W        W36700  14.482  14.728   0.360 -0.0478 -0.2131  0.0716
20227W        W36701   0.395   2.369   0.620  0.0228 -0.0565 -0.2173
20228W        W36702   8.908   5.596   1.111  0.2336 -0.1158 -0.2095
20229W        W36703   7.083   0.836   0.129 -0.0092  0.0065  0.0674
20230W        W36704   6.312   1.669  15.325  0.1295  0.2591 -0.0523
20231W        W36705  15.001  16.042   1.052 -0.0424  0.1334 -0.0133
20232W        W36706   5.529  13.767  12.835 -0.2030 -0.1045 -0.0676
20233W        W36707   3.544   9.317   3.119  0.2226 -0.1925  0.2236
20234W        W36708  16.505   2.003  12.532  0.3535  0.0232 -0.0763
20235W        W36709   5.504   4.614   4.907  0.1301 -0.3126  0.2095
20236W        W36710   3.540  13.574   4.462 -0.0694  0.2077 -0.1258
20237W        W36711   0.095  17.103  15.726 -0.0902 -0.2812  0.1805
20238W        W36712  14.208   1.588   3.924  0.0606  0.1079 -0.2950
20239W        W36713   7.093  13.179  14.845  0.2461  0.0735 -0.0264
20240W        W36714   8.126   1.023  11.205 -0.1320 -0.2830  0.0219
20241W        W36715   1.521  15.854  11.274  0.0335 -0.1212  0.1870
20242W        W36716  12.626  16.201   0.214 -0.1745 -0.1021 -0.1328
20243W        W36717  12.082   0.981   2.961  0.1905 -0.1686 -0.0265
20244W        W36718   3.380  10.522   5.591 -0.1976  0.0181  0.1988
20245W        W36719   0.961   4.926   1.519 -0.0081 -0.0627 -0.1529
20246W        W36720  17.654   1.876  12.070 -0.0658 -0.2761 -0.1119
20247W        W36721  12.781  14.557   4.878  0.1317  0.0187  0.5152
20248W        W36722  10.566   9.411   5.508 -0.0158 -0.1155  0.0112
20249W        W36723  16.517   8.075   5.290  0.1274 -0.0628  0.1504
20250W        W36724  13.995   0.206   4.072 -0.0899  0.0544  0.0732
20251W        W36725   4.196   2.650   5.401  0.0394 -0.3517 -0.0259
20252W        W36726   9.293   1.936   1.022 -0.0649  0.0795 -0.0146
20253W        W36727  14.972   9.280  12.199 -0.2359 -0.3531 -0.2858
20254W        W36728   9.076  12.897   3.013  0.1296  0.0389  0.0313
20255W        W36729  16.675  17.941  13.652  0.0170 -0.2752 -0.1465
20256W        W36730   6.732  16.145  13.457  0.2233 -0.0511 -0.0134
20257W        W36731   8.054   9.958   1.395  0.0346  0.1464 -0.1042
20258W        W36732   1.765   6.461   0.304  0.1896 -0.2296  0.0068
20259W        W36733   5.179   0.684  11.443 -0.3020 -0.0532  0.0638
20260W        W36734   8.043   4.542   2.931 -0.2996 -0.0331  0.0239
20261W        W36735  15.832  13.801  15.936  0.0776 -0.0132 -0.1153
20262W        W36736   5.524  17.109   1.619 -0.0015 -0.2807 -0.1857
20263W        W36737  10.330  17.752  14.984  0.1601  0.1278  0.1558
20264W        W36738   7.938   1.633   0.062  0.0350 -0.0091 -0.1482
20265W        W36739  14.233   2.196  10.338  0.0528 -0.0391 -0.3195
20266W        W36740  13.493   3.973   2.825 -0.2080  0.0317  0.0572
20267W        W36741  17.170   9.770   0.588 -0.0796  0.1261 -0.2788
20268W        W36742   8.526   9.503  11.988  0.2284  0.2472  0.1157
20269W        W36743  10.914   2.302   2.117 -0.0962 -0.1399 -0.2326
20270W        W36744   2.868   7.472  12.429 -0.2712 -0.2494 -0.3215
20271W        W36745   8.077  15.836   0.221 -0.0604 -0.2980  0.1353
20272W        W36746  13.625  14.949  11.581  0.1428  0.0528 -0.0232
20273W        W36747  17.284  11.860   2.283  0.1290  0.2037  0.2589
20274W        W36748  15.764  12.164   2.514  0.4199 -0.1136 -0.2162
20275W        W36749   8.106   6.191   5.305  0.0252 -0.0553 -0.1436
20276W        W36750   6.458  13.412   2.769  0.3448 -0.0594 -0.4107
20277W        W36751   9.588   0.493  16.100  0.1883  0.1236 -0.0996
20278W        W36752  16.605   5.316   4.385  0.0228 -0.1743 -0.1086
20279W        W36753  18.164  14.275  12.556 -0.0729  0.2677 -0.1588
20280W        W36754   3.813  14.728   2.749  0.0422 -0.2546  0.4020
20281W        W36755  16.919  14.005  11.684  0.0001  0.0512 -0.1053
20282W        W36756  16.454  13.859  14.234 -0.1138  0.0892 -0.1613
20283W        W36757  17.990  13.232   1.575  0.0218  0.2743 -0.1648
20284W        W36758   0.205  10.142   4.008  0.1182  0.2814 -0.1530
20285W        W36759   8.440  14.914   0.471 -0.3938 -0.2972  0.2507
20286W        W36760  12.139   9.270  10.942 -0.1056 -0.1524 -0.0566
20287W        W36761  14.912  10.525   0.463  0.1561  0.3028 -0.1888
20288W        W36762   4.410  14.655  12.747 -0.1362  0.1769  0.4107
20289W        W36763   1.168   2.280  14.444  0.0213 -0.1389 -0.1986
20290W        W36764   4.010   8.483   0.721 -0.1057 -0.1628  0.2311
20291W        W36765  12.037   8.441  15.867  0.0324 -0.0877 -0.0777
20292W        W36766  16.628   8.427  14.728 -0.1159  0.1448  0.1264
20293W        W36767  10.092  11.132   5.826 -0.2047 -0.2731 -0.0826
20294W        W36768  13.006  15.187   2.071  0.0617  0.0737 -0.1095
20295W        W36769  15.054  15.441  13.360  0.1975 -0.0163  0.4077
20296W        W36770  17.963   8.529  13.710  0.1400 -0.0227  0.1319
20297W        W36771   9.578   5.342   4.557 -0.0703 -0.0024 -0.4186
20298W        W36772  12.457   5.466  13.615 -0.2640  0.0227  0.4734
20299W        W36773  17.076  10.334  14.027 -0.0105  0.0042  0.1743
20300W        W36774  12.832  14.507   3.712  0.0355  0.0385 -0.2338
20301W        W36775   5.259   5.144   5.638 -0.0410 -0.0133  0.0873
20302W        W36776   0.295  16.419  12.124  0.1249  0.1461 -0.2963
20303W        W36777   2.642   2.789  11.773 -0.1830  0.0437 -0.0876
20304W        W36778   8.787  12.597   2.002  0.2005 -0.0042  0.0175
20305W        W36779   8.760   5.827  15.111  0.0229  0.2695  0.0868
20306W        W36780  17.262  15.545  13.437 -0.0666  0.0779  0.0593
20307W        W36781  15.539   0.104   5.667  0.0225 -0.1504 -0.1464
20308W        W36782   3.175  10.368  13.057  0.1523  0.2918 -0.0288
20309W        W36783  17.605   7.529   1.736  0.1613 -0.1494 -0.1814
20310W        W36784  13.145   5.033  12.948 -0.1847 -0.0290 -0.0297
20311W        W36785   6.824   5.435  14.677 -0.2034  0.0399 -0.2497
20312W        W36786   7.788  14.727  12.956  0.0702 -0.0175  0.2784
20313W        W36787   6.347  16.263   4.080  0.0430 -0.1369  0.0073
20314W        W36788   2.610  10.591  11.470 -0.3648 -0.0049  0.3152
20315W        W36789  15.066   7.626   0.065 -0.0098 -0.1796 -0.0874
20316W        W36790  14.256   3.794  14.591 -0.2173  0.2271 -0.2186
20317W        W36791  11.671  17.287   0.831 -0.1734 -0.0884 -0.1524
20318W        W36792   1.330   2.978   3.742  0.0014  0.3861  0.0293
20319W        W36793  12.123  10.037   4.198  0.4166 -0.1704  0.0297
20320W        W36794   3.102   8.359  14.373 -0.4937  0.2622 -0.0354
20321W        W36795   3.421  14.408  14.923 -0.1572  0.0677  0.2315
20322W        W36796   2.846   9.766  12.779  0.0201 -0.1508 -0.1504
20323W        W36797  16.044   9.718  12.148  0.1241  0.0003  0.2861
20324W        W36798  17.859   3.433   3.817  0.1098 -0.0769  0.0706
20325W        W36799  13.651  12.177  16.106 -0.1007  0.0950  0.1801
20326W        W36800   8.567  16.917   2.511  0.0194  0.0957 -0.0130
20327W        W36801   4.019   8.088  12.325  0.0125 -0.1399 -0.0708
20328W        W36802  11.935   7.705   0.063  0.0526 -0.0646  0.4366
20329W        W36803   4.271  15.416   0.442 -0.4563 -0.2065 -0.1222
20330W        W36804   4.741  13.160   2.496 -0.0053  0.1163 -0.1889
20331W        W36805   2.327   6.171  16.136 -0.4108  0.1200 -0.0150
20332W        W36806   4.732   2.081  15.777 -0.0492 -0.1427 -0.1179
20333W        W36807  10.455  13.424   1.026 -0.0660  0.1145  0.1323
20334W        W36808   2.776   9.498   3.952 -0.3151 -0.3235  0.1964
20335W        W36809   7.707   8.883   4.652 -0.0793  0.1461  0.1101
20336W        W36810   8.080   6.720   5.411  0.0158  0.3132 -0.0260
20337W        W36811  15.460  13.838   1.817  0.3743  0.1002 -0.2723
20338W        W36812   9.358   0.617   1.127  0.2026  0.0484 -0.3107
20339W        W36813   2.978   7.789   2.700 -0.2271 -0.1121 -0.0902
20340W        W36814  14.782   1.354  13.671 -0.0789 -0.1877 -0.1117
20341W        W36815  11.590  17.199   4.533  0.2902 -0.2095  0.0953
20342W        W36816  10.914  11.122   0.023  0.0030 -0.6526  0.2198
20343W        W36817   0.136   6.007   1.371 -0.2759 -0.1193 -0.1984
20344W        W36818   8.954  12.797   5.404  0.0700  0.0942  0.3310
20345W        W36819   7.825   5.705   2.738  0.0087 -0.1178  0.0560
20346W        W36820  15.017   5.543   1.041  0.1236 -0.0181  0.1190
20347W        W36821  11.067  13.515   4.661 -0.3243 -0.1015 -0.1122
20348W        W36822  15.602  10.707   2.826 -0.0478  0.2778 -0.3056
20349W        W36823   5.726   0.524  14.537  0.0943  0.0782 -0.0368
20350W        W36824   3.981  16.955  16.146 -0.0933  0.1623 -0.1101
20351W        W36825   8.225   4.666   2.419  0.1245  0.0321 -0.1890
20352W        W36826   3.269   0.590   0.693  0.0338  0.0276 -0.0680
20353W        W36827   4.186   6.022   3.309 -0.1547 -0.0783 -0.0153
20354W        W36828   9.525   2.383  13.307 -0.0965 -0.1068 -0.1881
20355W        W36829   3.734   0.523  14.697  0.0444 -0.1865 -0.0151
20356W        W36830  14.532   1.871   4.639  0.3586 -0.2058 -0.0040
20357W        W36831  16.741   5.090   3.322 -0.0237 -0.5571  0.1352
20358W        W36832   0.683  13.032   3.119  0.1809 -0.2986 -0.3018
20359W        W36833   5.439   6.827  11.457 -0.0775 -0.4476 -0.3950
20360W        W36834   2.570   6.254  13.079  0.2055  0.1325 -0.2371
20361W        W36835   0.277   5.002  11.643  0.2901  0.0129  0.0467
20362W        W36836   1.891   3.812  14.403  0.0268 -0.0862  0.0861
20363W        W36837  10.474  12.590  16.049 -0.2356 -0.2496  0.1770
20364W        W36838   2.284   6.928   0.313  0.2764 -0.1390  0.1843
20365W        W36839   5.628  13.783  11.726  0.1462  0.0848  0.2422
20366W        W36840  18.195   9.275   1.360 -0.1657  0.3140  0.1268
20367W        W36841   8.792  10.173   0.812  0.1078  0.0155 -0.0202
20368W        W36842   3.982  10.705  16.312  0.0632  0.2064  0.0203
20369W        W36843   1.256  16.944  11.334 -0.2120 -0.0992  0.1143
20370W        W36844   3.921   7.027   2.341 -0.1005 -0.2510  0.3602
20371W        W36845   2.460   2.481   2.055  0.2493  0.1666 -0.1451
20372W        W36846  18.014   3.061   0.315  0.3640  0.0030 -0.1798
20373W        W36847   3.966   0.905   0.147 -0.0402  0.1176 -0.0653
20374W        W36848   2.452  12.360   4.699  0.4098 -0.3377  0.1193
20375W        W36849   4.964   2.013   1.680  0.0446  0.2565  0.0197
20376W        W36850  13.229   3.519  11.600  0.1492  0.1950  0.0576
20377W        W36851  13.056   2.784   2.339 -0.0314 -0.0735  0.2041
20378W        W36852  12.606   3.768  12.171 -0.0638 -0.1622 -0.0999
20379W        W36853   7.431   2.261  10.089 -0.2483  0.0596 -0.0082
20380W        W36854  10.132   1.379  14.015 -0.1612 -0.4235 -0.1705
20381W        W36855  10.462   7.104  13.872  0.1804  0.1641  0.1069
20382W        W36856   5.482   9.296  16.236  0.0703  0.0981 -0.1806
20383W        W36857   7.682  16.240   5.669 -0.0531 -0.0826 -0.1922
20384W        W36858   1.180   9.658   2.593  0.2452 -0.2669  0.0840
20385W        W36859   9.703   5.983   5.531 -0.0200  0.1954 -0.0262
20386W        W36860   4.434   6.700  11.842  0.0608  0.1962 -0.0625
20387W        W36861  16.109   3.441  15.380 -0.0029 -0.0969 -0.0627
20388W        W36862   9.647  15.757   2.646  0.3744 -0.0390 -0.0630
20389W        W36863   9.544   7.591  16.325 -0.2480 -0.0721 -0.1229
20390W        W36864   6.203  10.713  12.786 -0.2754 -0.1828 -0.1503
20391W        W36865   6.350   7.594  15.852 -0.2034  0.1930 -0.2620
20392W        W36866   5.838  12.686   1.837  0.0428 -0.1886 -0.1761
20393W        W36867   7.816   3.809  11.523  0.0103  0.1167  0.1339
20394W        W36868   9.363   9.510  14.677  0.0868 -0.0978 -0.3157
20395W        W36869  11.889  16.849   4.742  0.1549  0.1464 -0.2442
20396W        W36870  15.971   6.989   1.328 -0.2852  0.0364 -0.1864
20397W        W36871   6.460   7.172  14.402  0.0196 -0.1367  0.1396
20398W        W36872   3.604  16.790   5.950  0.0317  0.3472  0.1265
20399W        W36873   1.332  15.646  16.219  0.1124 -0.0696  0.2479
20400W        W36874  14.626   6.124  12.826 -0.2009 -0.1831 -0.2189
20401W        W36875   4.043  14.349   0.315 -0.0579 -0.1042 -0.0257
20402W        W36876  14.715   0.753  11.546 -0.1797  0.0362  0.1286
20403W        W36877   1.168  11.121   1.122  0.1508 -0.0371  0.0212
20404W        W36878  18.243  14.604   3.097 -0.0148 -0.3268 -0.0363
20405W        W36879   8.051  15.641  14.281  0.0553  0.0081  0.2008
20406W        W36880   1.662   2.507  13.826  0.1644  0.2088  0.1871
20407W        W36881  18.189  10.076  14.691 -0.1497  0.0956 -0.1122
20408W        W36882   1.800   9.180   1.143 -0.0500  0.0414  0.3531
20409W        W36883   3.722  13.676   2.558  0.0654  0.1360  0.0253
20410W        W36884   5.459  11.921  16.315 -0.0113 -0.0808  0.0276
20411W        W36885  13.604   0.668  14.323  0.6083 -0.0819  0.0482
20412W        W36886  13.441   9.499  15.712 -0.1074 -0.2508  0.2772
20413W        W36887   0.800   7.142   5.440 -0.1064  0.1187  0.3507
20414W        W36888  16.255   4.566   0.156 -0.0709 -0.3422 -0.1340
20415W        W36889  12.119   0.103  13.613 -0.0204  0.1385  0.0631
20416W        W36890  11.389  17.846  11.678  0.3766  0.1600  0.1322
20417W        W36891  12.495  13.883  14.100 -0.2838 -0.2166  0.1096
20418W        W36892   0.111  15.916   0.187 -0.1639  0.0919 -0.1521
20419W        W36893   2.663   9.170  11.866 -0.2694  0.1224  0.0983
20420W        W36894  13.078  15.601  13.021  0.2327 -0.1827 -0.0926
20421W        W36895   2.269   7.751  11.569  0.1179 -0.0816  0.0607
20422W        W36896  12.658  14.601   5.531  0.2130 -0.1150  0.1167
20423W        W36897  16.918   5.576  13.013  0.2957  0.0601 -0.0475
20424W        W36898  17.077   2.272   1.392 -0.4492  0.3615 -0.1254
20425W        W36899  12.943  15.146   0.004 -0.0486 -0.1924  0.1344
20426W        W36900  10.402  15.733   1.083 -0.1926 -0.0361 -0.0955
20427W        W36901   7.360   7.938  14.245 -0.0874 -0.1548  0.3141
20428W        W36902   0.157  18.045  13.625  0.3125  0.1360  0.3361
20429W        W36903   7.676   3.104   0.998 -0.0120  0.4344 -0.0477
20430W        W36904  13.599  17.135   3.264  0.0863 -0.1336 -0.1072
20431W        W36905  16.039  17.824  11.240  0.1393 -0.1138  0.0469
20432W        W36906  13.143  12.806   2.863  0.0508  0.0637  0.0445
20433W        W36907   7.829   7.908   0.052 -0.0875 -0.5308  0.0225
20434W        W36908   0.831  17.827  14.763  0.0379 -0.1127 -0.0840
20435W        W36909  12.517   0.119  14.060  0.1262  0.0145  0.0453
20436W        W36910   5.576   5.843  14.289 -0.0445 -0.2272  0.0708
20437W        W36911  17.609  17.822   4.329 -0.1130  0.0301  0.3020
20438W        W36912  17.997  13.362  15.860  0.0477 -0.3264 -0.0947
20439W        W36913  10.895   7.941  11.471 -0.0292 -0.1873 -0.1654
20440W        W36914  10.471   7.425   5.038  0.1138 -0.0270  0.0914
20441W        W36915  13.205  10.855  15.801  0.5212  0.2575 -0.1993
20442W        W36916  10.247  11.523  11.755  0.0304  0.4873 -0.1988
20443W        W36917  14.430   5.550  12.404  0.0439 -0.2644 -0.0922
20444W        W36918   8.467   8.091   0.841  0.3141  0.3747 -0.0287
20445W        W36919  10.653   3.871   5.092 -0.0736  0.0383  0.3374
20446W        W36920   4.494  17.938   2.985 -0.2821  0.1986  0.0772
20447W        W36921  13.030   9.714  15.453 -0.3529  0.1692 -0.3249
20448W        W36922   7.952   6.959  11.804 -0.0407  0.2120 -0.1781
20449W        W36923  17.782  12.426  12.255 -0.0143  0.3484 -0.0569
20450W        W36924   2.646  17.803  12.465  0.0114 -0.0820  0.0371
20451W        W36925   6.466  17.547   4.684  0.2742  0.0056  0.2870
20452W        W36926   3.507   3.813   0.682 -0.0844 -0.0327 -0.1330
20453W        W36927   4.310   0.372  14.966 -0.3115  0.3613  0.0121
20454W        W36928   5.536  15.478   2.537 -0.0512  0.1319  0.0797
20455W        W36929   7.592   2.547  12.678  0.1456 -0.1294 -0.2049
20456W        W36930  13.231  15.095   1.017  0.0022  0.2586 -0.0895
20457W        W36931  14.007   7.589   4.998  0.0253 -0.1899 -0.2096
20458W        W36932   5.435  10.866  13.275  0.1057 -0.0451 -0.1404
20459W        W36933  17.185   8.145  12.383  0.3755  0.2235 -0.1065
20460W        W36934  10.255  14.636   0.729 -0.1337 -0.0798  0.2779
20461W        W36935  17.238  10.593   1.063  0.1628  0.1426 -0.4684
20462W        W36936   9.489   3.922   4.237 -0.0571 -0.3070 -0.2743
20463W        W36937   5.768  15.476   3.870 -0.0047 -0.2023  0.1559
20464W        W36938   3.066   6.126   0.743 -0.3011 -0.1001 -0.1038
20465W        W36939   0.996   2.242  12.729 -0.0358 -0.0980  0.3043
20466W        W36940   6.870   7.470  14.166  0.2918 -0.1828  0.0276
20467W        W36941  15.636   2.394   5.790 -0.1221 -0.2838  0.0938
20468W        W36942   5.839   4.281   4.233  0.0345  0.1137  0.2307
20469W        W36943   1.722   8.999  12.050 -0.2734 -0.0463 -0.1003
20470W        W36944  14.534   1.705  14.793 -0.1145 -0.0370  0.1732
20471W        W36945  13.925  11.625   4.968 -0.1686  0.0263 -0.2648
20472W        W36946   7.543  18.059  14.471 -0.1945 -0.0944  0.0573
20473W        W36947  10.781   2.845  15.912 -0.3078  0.1079  0.1240
20474W        W36948   5.327   3.825   0.733  0.0026  0.1499 -0.2525
20475W        W36949  14.894  12.020   5.275 -0.2864 -0.0198 -0.1424
20476W        W36950  10.582  16.558  14.388 -0.2126  0.1649  0.2181
20477W        W36951  17.202   8.631  12.590  0.0009  0.1670 -0.2252
20478W        W36952  10.359  12.235   1.900 -0.1668  0.1455 -0.0325
20479W        W36953  16.852   0.809   3.854 -0.3265  0.1809 -0.2767
20480W        W36954   1.115   0.981  15.653  0.0415 -0.2197  0.0612
20481W        W36955   2.229   6.593  13.210 -0.2410  0.1980 -0.3709
20482W        W36956   9.755   5.043  14.541  0.1219 -0.0478  0.3423
20483W        W36957  18.038   2.936   3.074  0.0524 -0.0275 -0.2191
20484W        W36958  11.192   1.759  14.850 -0.2376 -0.3837 -0.1091
20485W        W36959  12.246  14.409  11.746 -0.0991  0.0564 -0.4385
20486W        W36960   4.183   6.742  12.297 -0.1802 -0.1734  0.2215
20487W        W36961   9.782   3.545   2.375  0.0853 -0.2157 -0.3965
20488W        W36962   5.337  16.517  15.361 -0.0457  0.0656 -0.1164
20489W        W36963   1.333  12.664   2.649  0.1335  0.1469  0.3969
20490W        W36964   3.715  13.278   4.084  0.0340  0.1581 -0.2511
20491W        W36965  18.218   7.852  13.975  0.1105  0.0229 -0.4583
20492W        W36966  17.087  15.859  15.595  0.0220  0.2618  0.5295
20493W        W36967  12.064   6.886  15.384 -0.1889  0.0703 -0.5177
20494W        W36968  13.142   5.793  15.719 -0.2066  0.0183 -0.1201
20495W        W36969  12.543   2.527   3.701  0.1586  0.0581 -0.0897
20496W        W36970   0.892   5.997  16.244 -0.2065  0.1524  0.2323
20497W        W36971   8.179   1.422   0.684 -0.0351 -0.2389  0.0612
20498W        W36972  10.052  10.226   2.753 -0.0163 -0.0090  0.0668
20499W        W36973  17.322  11.818   2.799  0.1536  0.1624 -0.1255
20500W        W36974   7.628  17.702  13.549  0.0283  0.4516  0.0661
20501W        W36975   7.716  12.277  11.264 -0.0149 -0.1411 -0.2505
20502W        W36976   9.521  15.528  13.436  0.0330 -0.0959  0.1922
20503W        W36977   7.942   9.538  14.689 -0.3617 -0.4127 -0.1046
20504W        W36978  18.079  12.802  12.371  0.0448 -0.1950 -0.1211
20505W        W36979  16.606   9.432  15.829 -0.0312 -0.0288  0.0352
20506W        W36980  10.996   2.021   0.690  0.1016 -0.1935 -0.3095
20507W        W36981  10.848  17.946   0.674  0.2995 -0.0880  0.0234
20508W        W36982   8.110   2.717   4.625 -0.1932  0.0795 -0.0758
20509W        W36983   7.312  13.956   0.366 -0.0095 -0.1411  0.1535
20510W        W36984  16.910   8.547  15.711 -0.0231  0.1257  0.0889
20511W        W36985  17.044   5.961   3.754  0.0222  0.1471  0.0131
20512W        W36986   0.676   9.433  13.649 -0.1033 -0.3354  0.2914
20513W        W36987   7.655  13.783  12.972  0.0820 -0.3310 -0.2626
20514W        W36988  13.260   8.190   5.329 -0.0442 -0.2511  0.1051
20515W        W36989   6.784   5.238   3.572  0.1393 -0.0264  0.0060
20516W        W36990  15.241   3.833   5.695 -0.1968  0.1605 -0.2473
20517W        W36991  18.147  12.776   1.754  0.3053 -0.2499 -0.4238
20518W        W36992  13.000   0.828  16.295  0.0272 -0.1805 -0.0354
20519W        W36993   5.465   9.598   6.032  0.3644  0.1666 -0.1953
20520W        W36994  18.216   3.974   0.493 -0.0401 -0.1705 -0.0710
20521W        W36995   2.116  15.968  15.941  0.0149  0.1394  0.2055
20522W        W36996  16.553   1.464   5.831  0.0415 -0.1517 -0.1275
20523W        W36997   7.545   1.001   0.614  0.3431  0.0878  0.0863
20524W        W36998  12.997  10.256   2.727  0.1798 -0.1344  0.1566
20525W        W36999  10.735   5.222   0.536  0.0054  0.2601 -0.2018
20526W        W37000   6.160  10.322  15.753  0.5367  0.0840  0.0711
20527W        W37001   4.082   3.095  14.663 -0.2153 -0.0340 -0.1446
20528W        W37002  10.260   5.728   3.205  0.0412 -0.2227  0.2089
20529W        W37003   7.990   0.495  12.134 -0.1625 -0.1584 -0.0904
20530W        W37004  17.469   1.079  12.486  0.2791 -0.0727  0.0084
20531W        W37005  15.412   9.485   3.544 -0.0785  0.2044 -0.1172
20532W        W37006   8.514  11.366  11.223  0.1323 -0.0527  0.0631
20533W        W37007   3.372   0.792  13.782 -0.2583 -0.0132  0.0618
20534W        W37008   1.370  12.649   2.048  0.0823  0.0417 -0.1237
20535W        W37009  11.739  15.918  15.538  0.1062  0.0480  0.1692
20536W        W37010   3.757  11.205  16.321 -0.0698  0.3470  0.0345
20537W        W37011   3.256   0.046  11.589  0.0354 -0.1208  0.2229
20538W        W37012  14.687   8.496   4.499 -0.3363  0.1690 -0.0023
20539W        W37013   5.223  17.944   2.191  0.1161  0.1789 -0.2946
20540W        W37014  16.112  17.951   3.222  0.2650  0.0143 -0.0789
20541W        W37015  17.493   5.343   2.187 -0.1069 -0.2428 -0.0689
20542W        W37016   8.326  10.498   5.460 -0.1431 -0.0170 -0.0800
20543W        W37017  12.757   2.872  14.348 -0.0093  0.2066  0.0171
20544W        W37018   7.923  17.556  15.028 -0.0918 -0.1775 -0.2019
20545W        W37019   4.550  14.406   3.415 -0.0953 -0.1254  0.2076
20546W        W37020   9.520  16.253   5.120 -0.2671 -0.2737  0.0973
20547W        W37021   8.832  14.740   0.118 -0.1099 -0.2509  0.0301
20548W        W37022   8.828   6.286  16.097  0.2860 -0.3595  0.0418
20549W        W37023   7.257  14.076   5.800  0.0289  0.0919 -0.0181
20550W        W37024   5.833   4.949   4.075 -0.2066  0.2148  0.0498
20551W        W37025  14.269  17.120  14.336 -0.1584 -0.0544  0.1051
20552W        W37026   9.528   3.932   1.350 -0.0138 -0.1204 -0.1205
20553W        W37027   8.075  14.319  15.698 -0.0015  0.4470  0.0949
20554W        W37028   4.431   9.330   3.650 -0.2683 -0.1267  0.2643
20555W        W37029  15.498   2.606   0.074  0.2689 -0.0475  0.1427
20556W        W37030   9.586  18.136  12.283 -0.1529  0.0860  0.2360
20557W        W37031   5.116  13.853  12.557  0.1612  0.0027  0.1856
20558W        W37032   2.468  17.545  10.702 -0.0745  0.4104 -0.2747
20559W        W37033  11.598  15.724  11.998  0.4045 -0.0717 -0.0453
20560W        W37034  11.182  12.442   3.148 -0.2417  0.1244  0.2357
20561W        W37035   7.008   4.683   2.327 -0.2607  0.0416 -0.0309
20562W        W37036   7.445  10.792  16.210 -0.3988  0.2809  0.2733
20563W        W37037   8.518  10.213  12.032 -0.1325  0.1375  0.0955
20564W        W37038   3.847   5.758  15.304 -0.2219 -0.0436  0.0860
20565W        W37039   2.992   3.694   0.935 -0.0578 -0.0672 -0.1787
20566W        W37040   0.519  15.037  12.526  0.1517  0.2251 -0.0776
20567W        W37041   5.191   6.687   0.872  0.2682 -0.0774  0.1528
20568W        W37042   8.251  15.450   3.062  0.0522 -0.0354 -0.3284
20569W        W37043   4.370   2.354   1.450  0.2692 -0.1372  0.0779
20570W        W37044  16.940   2.602  16.238  0.4479 -0.0252 -0.0745
20571W        W37045   9.522   6.911  12.623 -0.2265  0.1323 -0.3116
20572W        W37046  11.091  13.993  13.031  0.2592 -0.0785  0.2672
20573W        W37047   7.010   8.520   0.645  0.1478  0.1149  0.0081
20574W        W37048   0.077  16.476   3.888  0.1003  0.0620  0.2169
20575W        W37049  12.081  17.026   4.279 -0.1354  0.2269  0.0274
20576W        W37050  16.448  10.787   4.617 -0.1537 -0.0043  0.0617
20577W        W37051  16.403   0.031  14.352  0.0313 -0.0472 -0.1605
20578W        W37052   6.747   5.163  10.399  0.3624 -0.0287 -0.2802
20579W        W37053   9.589  12.234  12.096  0.1097  0.4102 -0.3164
20580W        W37054   9.069   4.240   5.133 -0.0048 -0.0140 -0.0132
20581W        W37055  11.563   5.543  13.867 -0.0576 -0.1407 -0.0594
20582W        W37056  17.796  18.043   5.746 -0.0356 -0.1309 -0.0388
20583W        W37057  17.246   3.224   0.839  0.2608 -0.0106  0.1996
20584W        W37058  15.844   5.638  13.663  0.0444 -0.2051 -0.0403
20585W        W37059   6.417   9.487  11.607 -0.0305 -0.3318  0.0352
20586W        W37060  16.206   3.919  11.353  0.0676 -0.2075  0.1685
20587W        W37061   6.071  15.838  11.336 -0.1274 -0.3118  0.1090
20588W        W37062   5.733   7.028  15.569  0.2905 -0.0339  0.0760
20589W        W37063   5.583  16.270   4.663  0.4722 -0.0267 -0.1142
20590W        W37064   7.332   0.370  11.213 -0.2567 -0.2443  0.0953
20591W        W37065   5.551  17.037   4.315 -0.2566 -0.0584  0.2642
20592W        W37066   4.689   9.120  15.217  0.0521 -0.0482 -0.0858
20593W        W37067  10.600  12.679   5.492  0.2136 -0.1909 -0.5012
20594W        W37068  11.265   2.488   2.479 -0.1702  0.1424 -0.4239
20595W        W37069  11.413   5.319   0.267 -0.2837 -0.2675  0.2258
20596W        W37070  14.649   5.094   3.292  0.0454  0.1089 -0.1597
20597W        W37071  11.089  14.891   3.482 -0.4444  0.0794 -0.0144
20598W        W37072  11.661   6.266  16.047  0.2477 -0.0045  0.1014
20599W        W37073   7.957  17.660  15.779 -0.1297 -0.1225 -0.0220
20600W        W37074   1.277   1.756   5.127  0.0683 -0.1349 -0.0123
20601W        W37075   8.637  10.559  15.336 -0.2054 -0.0025 -0.0061
20602W        W37076   0.990  10.722   1.447  0.1154  0.0677  0.0897
20603W        W37077  15.404  16.373  11.922  0.2427  0.0486 -0.1538
20604W        W37078  11.458  15.541  15.793 -0.1480 -0.2143  0.2683
20605W        W37079   2.528   1.888  12.231  0.2395 -0.0997 -0.1723
20606W        W37080  12.601   7.092   1.036  0.0356  0.4385 -0.2958
20607W        W37081  10.721  14.373  14.880  0.0689 -0.2172  0.1346
20608W        W37082   3.411   3.627   0.126  0.3187  0.0034 -0.1047
20609W        W37083  16.471   7.400   2.231  0.1531 -0.1080  0.0791
20610W        W37084   1.443   5.778   2.431 -0.2228  0.1174 -0.2543
20611W        W37085  10.851   8.975   5.177 -0.1519  0.5275  0.0957
20612W        W37086   7.532  12.061  12.281  0.0978 -0.0149 -0.2166
20613W        W37087   2.206   1.245  14.875 -0.1473  0.2637  0.2186
20614W        W37088  14.457  13.884  15.969 -0.2321 -0.0631  0.2753
20615W        W37089  13.680   6.863   1.508 -0.0322 -0.1111 -0.2625
20616W        W37090  11.243   9.506  13.357  0.1399  0.0002 -0.0736
20617W        W37091  12.156   8.596  14.575  0.1212  0.0966 -0.2128
20618W        W37092   3.280   3.718   2.944 -0.0702 -0.0739  0.0797
20619W        W37093  10.438  16.446  13.620  0.1427  0.0269 -0.0694
20620W        W37094  17.078  16.253  11.665 -0.1981 -0.3619 -0.0413
20621W        W37095   8.624   2.230   5.326 -0.0923 -0.1341 -0.2088
20622W        W37096   1.380   1.946   4.667  0.1226  0.1029 -0.0482
20623W        W37097  15.713  13.135  11.277  0.1621 -0.1322 -0.3110
20624W        W37098  10.154   1.403  14.925 -0.1307 -0.1525 -0.1191
20625W        W37099   5.532  12.736  13.966  0.2497 -0.0409 -0.0293
20626W        W37100   1.976   1.017   1.042  0.2462  0.1169  0.0437
20627W        W37101  14.897  12.246  11.118 -0.0136  0.1240 -0.1678
20628W        W37102  14.182   7.458  15.192  0.3143  0.1048  0.0933
20629W        W37103   5.440  14.099   4.360  0.1747  0.0869  0.0320
20630W        W37104  11.999   8.396   0.307 -0.3704 -0.4518  0.0858
20631W        W37105   4.989  12.702   0.277 -0.0180 -0.1880 -0.3940
20632W        W37106   2.761  17.565  12.010 -0.2856 -0.2775 -0.2506
20633W        W37107  17.977   6.277   2.632  0.5545 -0.0727  0.1757
20634W        W37108   0.817  15.929   4.755  0.3177  0.0539  0.2705
20635W        W37109   3.672   9.255  12.565  0.0719 -0.1736  0.0621
20636W        W37110   4.898  17.691   3.006  0.1391  0.4432  0.1750
20637W        W37111  11.306   2.198   1.748 -0.0227  0.1858 -0.1252
20638W        W37112   1.706   5.799   4.537  0.2582  0.0226 -0.2061
20639W        W37113  14.563   6.450  14.083 -0.0778 -0.1836  0.3761
20640W        W37114   8.837  11.073   0.379 -0.0935 -0.1028 -0.1246
20641W        W37115  11.046   6.334  14.281  0.0309 -0.0652 -0.2093
20642W        W37116  11.478  13.471  14.342  0.0958 -0.0441  0.0251
20643W        W37117  16.386   7.998   2.134 -0.1125 -0.1492  0.1427
20644W        W37118  10.462   5.369   0.060 -0.0713 -0.3213 -0.2716
20645W        W37119  13.097   1.491  13.859 -0.3908 -0.0709  0.0059
20646W        W37120  10.514  14.736  11.630 -0.1937 -0.1659  0.0459
20647W        W37121  17.316   8.331  14.196  0.0302  0.0191  0.2933
20648W        W37122  17.373   1.256  16.274 -0.0302  0.2156  0.1016
20649W        W37123  14.148  16.240   4.371  0.1918  0.0742  0.2140
20650W        W37124   6.769   6.614   6.547 -0.0127 -0.1227 -0.0905
20651W        W37125   4.585  16.319  10.893 -0.1920  0.0002  0.0250
20652W        W37126  14.893   5.484   1.524  0.0135 -0.0836 -0.0680
20653W        W37127   1.677   4.264  14.537  0.0230 -0.1815 -0.1608
20654W        W37128   7.921  15.208   2.701 -0.0622  0.2592  0.0513
20655W        W37129   8.342   1.426   1.134  0.0782 -0.3948  0.1053
20656W        W37130   2.099   8.182  14.125 -0.0891  0.2074 -0.0366
20657W        W37131   8.038   3.225   4.618 -0.0146  0.1223 -0.3029
20658W        W37132   9.691  12.408   2.277  0.0718 -0.0446 -0.3109
20659W        W37133   7.403  15.771   2.736  0.2741  0.1557  0.0506
20660W        W37134  13.987   3.967  12.793 -0.1754  0.2053  0.2838
20661W        W37135   9.475   1.421   1.988  0.1686  0.1299 -0.1275
20662W        W37136   8.625   1.969   3.966  0.0978 -0.1344 -0.0061
20663W        W37137   6.664   4.506  11.531 -0.0133 -0.3412 -0.1646
20664W        W37138  18.166  12.941  16.121  0.2208 -0.0602 -0.1902
20665W        W37139   9.587  10.064  15.359 -0.1107 -0.0733 -0.0206
20666W        W37140   1.020  11.906  16.090 -0.3359  0.2608  0.0496
20667W        W37141   9.516  18.155   4.743 -0.1752 -0.0062 -0.1394
20668W        W37142  14.578  15.555  14.384  0.2896  0.3011  0.1016
20669W        W37143   7.877   6.534  12.755 -0.1964 -0.1056  0.0087
20670W        W37144  12.189   7.275   3.179 -0.1240 -0.0743 -0.0548
20671W        W37145   6.642   3.156  15.642 -0.2084  0.1494 -0.2714
20672W        W37146  15.522   1.385   2.462 -0.1715 -0.2016  0.1218
20673W        W37147   3.094   9.268  14.972 -0.0870 -0.1028 -0.4148
20674W        W37148  14.222   1.897   1.586  0.1264 -0.1298  0.0580
20675W        W37149  11.457   5.793  13.420  0.1029  0.0920 -0.1814
20676W        W37150   5.552   4.808  14.281  0.1981 -0.1590 -0.0775
20677W        W37151   2.904   0.675  15.359 -0.4169 -0.1048 -0.2439
20678W        W37152   4.573   6.422  14.140 -0.0635 -0.1070  0.1145
20679W        W37153  10.046  11.150  11.544  0.0503  0.2047 -0.0442
20680W        W37154  10.836  12.127  14.430  0.0191  0.0052  0.0540
20681W        W37155   4.522  17.130  14.562 -0.0970 -0.1079 -0.2289
20682W        W37156  17.927  11.518  11.153  0.2004 -0.0475  0.0990
20683W        W37157   3.354   1.964   3.943 -0.0062  0.0034  0.0372
20684W        W37158  12.330   0.506  14.281 -0.3695  0.2260  0.1809
20685W        W37159   7.253   2.640  14.055  0.1328 -0.1364 -0.1920
20686W        W37160  14.374  17.114  13.153 -0.1071 -0.0398 -0.1822
20687W        W37161  17.102  14.177   3.484  0.0275 -0.2667  0.1471
20688W        W37162  12.134  13.830   3.571  0.3593  0.2822 -0.0328
20689W        W37163  11.076   8.600  15.398 -0.0153  0.0949  0.0323
20690W        W37164  14.630   8.047   5.199 -0.0779  0.2326 -0.1318
20691W        W37165   8.051   7.551   4.475 -0.2401  0.4153  0.1129
20692W        W37166   2.722  12.202  11.553 -0.1009  0.2595 -0.1492
20693W        W37167   6.632  10.648   4.868 -0.0128 -0.0489 -0.1666
20694W        W37168  10.682  12.981   1.076  0.4758 -0.0995  0.0730
20695W        W37169   0.513   0.811   4.265  0.1380  0.4638  0.2023
20696W        W37170   5.175  11.083   5.656 -0.1453  0.0747 -0.0487
20697W        W37171   9.266   3.661   0.066  0.0569  0.1880 -0.3766
20698W        W37172  12.963   1.715  12.305  0.0778  0.2316  0.1205
20699W        W37173  17.881   5.308  12.758 -0.2434 -0.1251 -0.1384
20700W        W37174  15.924  15.866  13.661  0.2237 -0.1143 -0.4724
20701W        W37175  17.679   3.646  13.993 -0.1662  0.0386 -0.0504
20702W        W37176   2.076   8.816  15.979  0.1313  0.1483 -0.0281
20703W        W37177   2.915  12.018  13.557 -0.0150 -0.4111 -0.0584
20704W        W37178   8.741  15.359   0.622 -0.0579 -0.1741  0.0495
20705W        W37179   8.109  13.129   0.954  0.1048  0.2288 -0.1555
20706W        W37180  10.979  10.469  15.628  0.1623  0.2053  0.2645
20707W        W37181  15.806   7.230  13.771  0.2189  0.0573 -0.0327
20708W        W37182   8.836  15.175  16.228 -0.1753  0.0178 -0.2559
20709W        W37183   0.832   7.243   3.789 -0.2051  0.1917 -0.0886
20710W        W37184  14.243  16.916  15.440  0.0747 -0.0651 -0.2283
20711W        W37185  15.898  11.886   1.599 -0.1237  0.1122 -0.0409
20712W        W37186  13.177   9.643  12.023  0.0409 -0.1704  0.0669
20713W        W37187   0.137   5.912  14.987  0.0558 -0.2698 -0.0281
20714W        W37188  11.936   9.584   5.303 -0.0597  0.1484 -0.1666
20715W        W37189   4.196  17.369   5.309  0.0531  0.1137 -0.0868
20716W        W37190  12.837  11.634   2.992 -0.0578 -0.0787 -0.1264
20717W        W37191  16.874   0.170  14.347 -0.3692  0.1180  0.0173
20718W        W37192   4.099  12.846  14.522  0.1699 -0.6303 -0.0823
20719W        W37193   3.843  14.292  15.666  0.1201  0.0387 -0.0191
20720W        W37194   0.574  13.732   2.388  0.0085  0.1065 -0.0480
20721W        W37195  15.118   5.750   3.063  0.0855 -0.1776 -0.0295
20722W        W37196   7.579  12.738  10.245  0.1864  0.1424  0.2551
20723W        W37197   3.057   9.797   4.637  0.2153  0.1581  0.2529
20724W        W37198   3.553   7.087  14.442 -0.0979  0.0488 -0.0713
20725W        W37199   6.148   4.551  13.560  0.1494 -0.0875 -0.1820
20726W        W37200  10.886   3.508  10.838  0.1282 -0.1178  0.0325
20727W        W37201  16.113  17.734   4.182 -0.2433 -0.1800  0.0299
20728W        W37202  15.071  11.436   0.426  0.2416 -0.3331 -0.3832
20729W        W37203   0.611  10.556   4.999  0.0808 -0.0346  0.2543
20730W        W37204   1.089   0.568   2.079 -0.4266  0.1990 -0.2739
20731W        W37205   8.869   5.108  14.100  0.1548  0.0821  0.1389
20732W        W37206  10.045  10.766  12.563 -0.0021 -0.4606 -0.1798
20733W        W37207  16.476  16.865  12.627 -0.0020 -0.2690 -0.1790
20734W        W37208   2.970  12.166   2.531 -0.2212  0.0200 -0.2244
20735W        W37209  18.262  17.851   1.876  0.1123  0.1777  0.1285
20736W        W37210  12.451   9.469  14.801  0.0900 -0.0514  0.1575
20737W        W37211  17.992   1.468   0.792  0.2239 -0.1660 -0.0863
20738W        W37212   5.559   7.231   0.639  0.1055 -0.0708  0.1657
20739W        W37213   0.616   0.674  10.994  0.4194  0.2231  0.2248
20740W        W37214   1.487   2.281   1.601 -0.1892 -0.0463  0.2350
20741W        W37215   0.984   8.690   3.447  0.1379 -0.1191 -0.0633
20742W        W37216   4.902   3.520  15.467  0.1170  0.1343 -0.1458
20743W        W37217  13.043   8.123   3.126  0.1226  0.0919 -0.3349
20744W        W37218   9.148   0.393  14.095  0.0773  0.2069 -0.1620
20745W        W37219  11.578  16.031   1.637  0.0646  0.0289  0.2375
20746W        W37220  11.445   9.615  14.569  0.1517  0.0106 -0.0558
20747W        W37221  13.875   0.908   3.379  0.4157 -0.1499 -0.2221
20748W        W37222   7.212  17.782   3.476  0.3219 -0.1540  0.0643
20749W        W37223   5.190  15.156  14.659  0.0037  0.1931  0.2829
20750W        W37224  14.500  10.143   0.543 -0.0702  0.1027  0.0919
20751W        W37225   1.607  15.367  15.331 -0.0447 -0.0768 -0.1489
20752W        W37226  17.417  13.570   3.324 -0.0997  0.1771  0.0428
20753W        W37227  15.837  16.812  14.621 -0.0170  0.1063  0.0702
20754W        W37228   4.625   6.032  12.804 -0.1749 -0.1407 -0.1239
20755W        W37229   6.450  17.772   5.266 -0.2519 -0.1034 -0.0307
20756W        W37230  10.755   9.087  15.282 -0.0564  0.2371 -0.3535
20757W        W37231   1.686  13.890   3.634 -0.0257  0.2497 -0.0313
20758W        W37232  14.036   6.039  11.305  0.0755 -0.0964 -0.0906
20759W        W37233   7.520  14.635  13.699  0.2269 -0.2252 -0.0371
20760W        W37234   2.372  18.235   1.484  0.1614 -0.1078  0.0033
20761W        W37235   8.724  16.394   0.294  0.1414 -0.1016  0.0114
20762W        W37236  18.032  13.387   3.459 -0.1337 -0.1030 -0.0469
20763W        W37237  11.225   7.613  12.562 -0.1483 -0.0681  0.1767
20764W        W37238   0.862   7.247   4.820  0.0776  0.3401 -0.1619
20765W        W37239  10.337  12.918  14.063 -0.0719 -0.0032 -0.2664
20766W        W37240   4.169  11.181   2.091 -0.0892  0.0190 -0.0097
20767W        W37241  10.342  14.150  12.195  0.1608  0.2266 -0.1242
20768W        W37242  16.748   9.777  14.182  0.2415 -0.1543 -0.0394
20769W        W37243   3.689  11.233   2.228 -0.0682 -0.0835  0.1049
20770W        W37244   0.807   1.122   1.301 -0.4548 -0.0728 -0.0093
20771W        W37245   6.092   3.915   3.075 -0.0311  0.1110  0.0650
20772W        W37246  10.348   9.399   4.051  0.3126  0.0384  0.3282
20773W        W37247   6.760  11.585  14.309 -0.2907 -0.2543 -0.3926
20774W        W37248  15.572   2.472   3.351  0.1947  0.1844  0.0473
20775W        W37249   2.140   2.104   2.108 -0.1247  0.0414 -0.0486
20776W        W37250   5.993   5.048   2.076  0.1239  0.1500 -0.0922
20777W        W37251  12.613   1.602  14.712  0.4248  0.3228  0.2569
20778W        W37252  14.834   0.729   0.897  0.1217  0.1798  0.2576
20779W        W37253  10.238  13.254   4.136  0.1407 -0.2865 -0.1185
20780W        W37254  12.340   9.265   4.532  0.0275 -0.2717 -0.1143
20781W        W37255   7.836  12.644   4.408  0.0998 -0.0448 -0.3357
20782W        W37256  12.307  18.025  12.336 -0.1160  0.0246  0.0146
20783W        W37257   9.241   5.273  14.412  0.0162  0.0762 -0.3452
20784W        W37258   4.871   4.341   2.666  0.0143 -0.0256 -0.0988
20785W        W37259   6.339  15.631  15.348  0.2183 -0.0385  0.0256
20786W        W37260  10.437  10.471  14.963 -0.0839 -0.0514  0.5313
20787W        W37261  12.424  12.142   1.593 -0.0685  0.0717 -0.0492
20788W        W37262  11.540  15.102  13.802  0.4196 -0.1684  0.1331
20789W        W37263   1.356   0.587   3.669 -0.0783 -0.0665  0.1495
20790W        W37264  14.780   2.031   0.038 -0.0859  0.1752 -0.0649
20791W        W37265  13.500   9.141   0.616 -0.1432  0.0049  0.0351
20792W        W37266   6.317  10.143  14.956 -0.0538 -0.1393  0.1209
20793W        W37267   9.947   0.651   3.662 -0.1528  0.1614 -0.1499
20794W        W37268   2.543  10.996   4.599 -0.1085 -0.1188 -0.2990
20795W        W37269   2.264  10.823   1.236  0.1350  0.2359  0.1987
20796W        W37270  10.741  12.862  11.051  0.2141 -0.1675  0.0558
20797W        W37271   6.832   6.244   0.258  0.2173  0.2617 -0.0569
20798W        W37272   1.848   3.369   1.715  0.3238 -0.0910  0.2335
20799W        W37273  12.233   2.183   3.458 -0.0133  0.0174 -0.1218
20800W        W37274   5.925  11.940  14.340 -0.1492 -0.1051  0.2799
20801W        W37275  16.147  14.928  12.822  0.2474 -0.1083 -0.2500
20802W        W37276  15.065  11.085  15.143 -0.0985 -0.3077  0.1122
20803W        W37277   4.545   6.034   1.591  0.1313  0.0071  0.0971
20804W        W37278   3.445   1.870  11.838  0.4348  0.4697 -0.0358
20805W        W37279   3.178   5.684  14.647  0.0364 -0.0040  0.0496
20806W        W37280  10.300  18.068   2.389 -0.1081  0.0763  0.1884
20807W        W37281   2.844  17.557  12.861 -0.0461 -0.0565  0.0551
20808W        W37282  13.295   9.317  15.174  0.1365 -0.2782 -0.2447
20809W        W37283   1.448   2.069  12.968 -0.5484  0.0272 -0.3498
20810W        W37284   3.698   7.899   0.386  0.0818  0.2259  0.0703
20811W        W37285   2.969  13.227   1.466 -0.2623 -0.0501  0.0194
20812W        W37286  13.585   6.422  15.948 -0.1771  0.2610  0.0051
20813W        W37287  10.944   5.105  15.837  0.1847  0.2740  0.2061
20814W        W37288  13.060   5.325  15.563  0.0206 -0.0751  0.0547
20815W        W37289  11.572   2.147  12.712  0.0981 -0.2835 -0.0795
20816W        W37290   9.947   2.933   5.587 -0.1416  0.0419  0.1951
20817W        W37291   0.830   0.479   0.615 -0.1307 -0.1409  0.0320
20818W        W37292  12.593   1.483  15.810 -0.2201  0.0331 -0.2811
20819W        W37293   2.435   1.434  11.905 -0.0482 -0.0067 -0.0140
20820W        W37294   6.868   4.045   2.457 -0.2705 -0.1320 -0.1430
20821W        W37295   7.970   5.058   5.504 -0.0681 -0.0002 -0.4209
20822W        W37296   8.884  11.355  15.259 -0.1239 -0.0634  0.1760
20823W        W37297  16.401   2.647   2.956  0.0443 -0.0403  0.0948
20824W        W37298   7.802  13.368  13.329  0.0211 -0.2338 -0.1237
20825W        W37299   1.255   1.213  12.158 -0.0291 -0.1942  0.1062
20826W        W37300  14.033  10.965  12.471  0.1617  0.2086  0.1242
20827W        W37301  17.257  12.758  12.933 -0.1359  0.0962 -0.1121
20828W        W37302  15.772  16.699  12.168  0.2493  0.1790 -0.1025
20829W        W37303   9.374  15.722  11.735  0.0763  0.3448  0.0180
20830W        W37304   8.491   4.912  13.305  0.0588 -0.0011  0.0256
20831W        W37305   7.582   4.782   3.030 -0.2895 -0.1095  0.2919
20832W        W37306  15.169   8.027   3.558 -0.0911  0.0591 -0.0482
20833W        W37307  16.775  12.455  12.907  0.1279  0.0382 -0.1194
20834W        W37308   2.949   0.130  15.287 -0.1961 -0.2307  0.0948
20835W        W37309   0.201  16.981   1.121 -0.3224 -0.0669  0.0646
20836W        W37310  17.649   4.199  12.658 -0.2445  0.3704 -0.2425
20837W        W37311   2.075  15.753  12.528  0.0215  0.2408  0.0158
20838W        W37312  11.960  10.986  13.185 -0.0570  0.0685 -0.1172
20839W        W37313   3.086  10.198  14.661 -0.0422 -0.1546  0.1004
20840W        W37314   7.833  14.809  15.071  0.0331 -0.0698 -0.1959
20841W        W37315  17.063  14.576  11.541 -0.1051  0.0634 -0.1954
20842W        W37316   5.217  14.973   0.343 -0.0778 -0.1509  0.0349
20843W        W37317  16.219   9.774  12.778  0.0318 -0.0366 -0.3215
20844W        W37318   9.531   4.920   2.489  0.0919  0.1176  0.2382
20845W        W37319  15.008   2.814   2.239  0.0547 -0.2335  0.0493
20846W        W37320  13.535  12.910  15.845  0.0692  0.2984 -0.0742
20847W        W37321  16.091   1.319   0.141  0.1130 -0.3293 -0.4518
20848W        W37322  13.567  15.333   4.755 -0.0014 -0.0862  0.0001
20849W        W37323   4.454  15.059   2.252 -0.4026 -0.0537  0.2455
20850W        W37324  17.365  13.657   2.791 -0.2724  0.1724  0.1855
20851W        W37325  12.181   6.434  13.863  0.2442 -0.5058 -0.0021
20852W        W37326   6.344   6.388   0.027 -0.1901  0.0868 -0.1966
20853W        W37327  16.290  12.965  16.220 -0.0457  0.0495 -0.2955
20854W        W37328   4.692   3.418  11.827 -0.3388  0.0379  0.0417
20855W        W37329   8.654   8.385   2.937  0.1076  0.4468  0.0060
20856W        W37330  16.068  12.040  15.522 -0.3223 -0.1791 -0.3000
20857W        W37331   9.756   3.840  13.437 -0.1393  0.2605  0.0854
20858W        W37332  17.873  12.229  11.735 -0.1431 -0.2861 -0.2328
20859W        W37333   8.753  18.277   2.144  0.2285 -0.1752 -0.3662
20860W        W37334   5.535   6.857   2.155  0.1156 -0.0408  0.1242
20861W        W37335   2.306   0.922  13.411  0.1808 -0.0647  0.1245
20862W        W37336   6.882  15.630   2.531  0.0310  0.0477  0.1225
20863W        W37337   8.094  10.432   2.679  0.0689 -0.1604 -0.0630
20864W        W37338  16.073   3.800  15.804 -0.1031  0.1977  0.2863
20865W        W37339  12.684   4.535  15.275  0.1195  0.0831  0.0205
20866W        W37340  12.723   9.291   5.335  0.0261  0.0086 -0.0635
20867W        W37341  18.244  13.887  15.243 -0.3834 -0.3348 -0.1085
20868W        W37342   6.159  17.438  15.525  0.1318 -0.0100 -0.0642
20869W        W37343  17.512   0.878  11.149 -0.1382 -0.0489  0.0823
20870W        W37344   3.943  16.470   0.282  0.1051  0.2119 -0.0813
20871W        W37345  14.388  12.435   4.170 -0.1521 -0.0725  0.0316
20872W        W37346   6.265  11.445   1.248  0.1862  0.0076 -0.0023
20873W        W37347  16.150  13.340   1.316  0.0370  0.0120 -0.1110
20874W        W37348   0.670   8.255  12.565 -0.2726 -0.3923  0.0048
20875W        W37349  17.838   5.880  11.240 -0.1543  0.0687  0.0270
20876W        W37350   2.060  14.867   3.199 -0.0074  0.0993  0.0612
20877W        W37351   7.320  12.565  13.173  0.1686  0.1853 -0.0711
20878W        W37352  10.700   0.386   5.922  0.1388 -0.3274  0.2978
20879W        W37353   1.297  14.769  12.699 -0.1770 -0.0099  0.2556
20880W        W37354   9.617  12.916  16.235  0.0689 -0.1495 -0.0371
20881W        W37355  11.144   4.948  11.295 -0.2075  0.1062  0.0449
20882W        W37356   4.477  11.594  12.395  0.0988 -0.2595  0.0851
20883W        W37357   1.738  10.001   5.301 -0.3174  0.3679 -0.1082
20884W        W37358   3.856  11.127  13.028  0.0401 -0.0655  0.0659
20885W        W37359   0.202  10.915  14.478  0.0426 -0.2016 -0.0411
20886W        W37360  16.132   1.121   3.241 -0.0840 -0.0809 -0.0236
20887W        W37361   0.788  10.572   2.764 -0.0482  0.1897 -0.0231
20888W        W37362  11.639   0.546   2.475 -0.0300 -0.1054 -0.0413
20889W        W37363   5.237  10.097   0.864 -0.4642  0.1169  0.1132
20890W        W37364  15.277   8.286  15.923  0.1754 -0.2525  0.2037
20891W        W37365  15.026   5.381  16.042 -0.0909  0.6497 -0.1724
20892W        W37366  14.196   1.971   4.306 -0.0121 -0.3342 -0.0298
20893W        W37367  15.897   0.032   5.293 -0.1746 -0.0860 -0.2824
20894W        W37368   7.432  16.056   5.278 -0.0562  0.1202  0.2741
20895W        W37369  11.563  11.978   4.536 -0.5036  0.0278  0.2689
20896W        W37370  15.635   8.894  12.704 -0.2809  0.0983 -0.0242
20897W        W37371  16.045   6.249   2.883  0.0569 -0.0114  0.0347
20898W        W37372  12.319   8.408  12.390  0.0492  0.1407 -0.0200
20899W        W37373   7.422   7.815  11.731 -0.0264  0.1508 -0.0412
20900W        W37374  14.005   5.686  12.543 -0.1094  0.1920 -0.0010
20901W        W37375   0.125   7.800  14.412  0.0455 -0.2138  0.1326
20902W        W37376   2.686  13.287  15.111  0.0917 -0.3766 -0.0504
20903W        W37377  12.153   1.791   2.576 -0.1401 -0.4846  0.3544
20904W        W37378   5.420   0.877  15.630 -0.0282 -0.0711 -0.1344
20905W        W37379   4.255   8.823  15.626 -0.4641 -0.1352 -0.1785
20906W        W37380   8.275  15.181   4.907  0.1241  0.0509  0.0683
20907W        W37381   3.682   4.980   0.070 -0.0871 -0.2302  0.0702
20908W        W37382  15.452   0.598   5.525 -0.0718  0.0701  0.1616
20909W        W37383  10.640   3.989  11.891  0.2614  0.1299  0.0753
20910W        W37384  17.407   4.958  15.421  0.2647 -0.1640 -0.0299
20911W        W37385  16.212  14.166   6.000 -0.1311  0.0514  0.0571
20912W        W37386   6.015  17.322  10.972  0.2139  0.0077 -0.0747
20913W        W37387  17.394   3.220  11.044 -0.1926 -0.0481 -0.0299
20914W        W37388  13.842  13.250   2.721  0.0851  0.1077 -0.0706
20915W        W37389   0.047   6.440   2.287 -0.0616 -0.1333  0.1122
20916W        W37390   3.184  17.275  14.592 -0.0963 -0.0939  0.3211
20917W        W37391   2.404   3.159  11.502  0.3501  0.4165 -0.0201
20918W        W37392   4.205   3.580  12.032 -0.0035 -0.0037  0.2272
20919W        W37393   7.149  10.334   2.265  0.0938 -0.2289 -0.3979
20920W        W37394  10.496  14.922  14.252 -0.3944 -0.0997 -0.1443
20921W        W37395  13.015   7.901  12.040  0.1399 -0.3364  0.2003
20922W        W37396  10.971   3.793  15.597  0.0366 -0.0903 -0.0488
20923W        W37397   7.142  11.901   4.423  0.2149 -0.0124  0.4990
20924W        W37398   8.878   5.561  14.337  0.1874 -0.1367  0.1514
20925W        W37399  16.325  17.686  12.964 -0.0802 -0.0806  0.0334
20926W        W37400  16.197   4.131  16.158  0.0555 -0.2296 -0.0098
20927W        W37401   3.755  12.600  14.334  0.0368  0.1927  0.0210
20928W        W37402   7.626  14.349   3.015 -0.0728 -0.1070  0.1519
20929W        W37403  14.676  10.689   0.849 -0.2006 -0.2955  0.3439
20930W        W37404   9.260  16.475  14.497 -0.0142  0.3285  0.2562
20931W        W37405  11.009   7.538  16.141  0.1642 -0.4096 -0.1692
20932W        W37406   3.358  11.716  14.942  0.2066  0.0702 -0.3874
20933W        W37407   7.972  14.288   1.134  0.3678  0.0903  0.0464
20934W        W37408  13.341   2.551   0.273  0.0093  0.0987  0.3615
20935W        W37409   2.071   1.213   5.028 -0.1700 -0.0324 -0.0199
20936W        W37410  13.251  16.331  12.070  0.0133 -0.0139  0.0774
20937W        W37411   1.710   5.764   3.931 -0.0426 -0.4044 -0.1856
20938W        W37412  13.748  12.681  14.209 -0.0226 -0.1102  0.4720
20939W        W37413   6.265   2.729  11.553 -0.0520  0.0050 -0.3122
20940W        W37414   3.824   7.666  16.046 -0.1085 -0.4188  0.1857
20941W        W37415   5.637   6.005  15.801 -0.3982 -0.0378  0.0041
20942W        W37416   5.946  18.215   0.089  0.3288 -0.1173 -0.2334
20943W        W37417   8.501  15.801  13.138  0.3600  0.1684 -0.0735
20944W        W37418   2.783   8.367   3.719 -0.2219  0.5111 -0.0730
20945W        W37419   5.738  16.749   0.427 -0.1998 -0.0621 -0.1583
20946W        W37420   0.615   8.333   5.231  0.0122 -0.1087  0.3868
20947W        W37421  16.122  10.887  13.232  0.0250 -0.2019 -0.1231
20948W        W37422   0.311   6.372   1.726  0.0412  0.0879  0.0097
20949W        W37423   6.565  17.088  11.694  0.1614 -0.2702 -0.3358
20950W        W37424  11.764   1.298  15.312 -0.1147  0.0368 -0.3260
20951W        W37425  15.609   8.654   1.715 -0.0714  0.0521  0.1022
20952W        W37426  10.134   5.950   4.500 -0.3875 -0.1202  0.2047
20953W        W37427   7.321   7.263  12.930  0.0636 -0.1298 -0.0295
20954W        W37428   6.536  11.243  14.718 -0.0044  0.3051  0.0304
20955W        W37429   4.269   7.274   3.500  0.2080 -0.0397  0.3086
20956W        W37430   8.048   1.285  14.971  0.1151 -0.0701  0.1677
20957W        W37431  17.138  10.653   2.259 -0.1481  0.0893 -0.0519
20958W        W37432   0.523   6.316   2.752 -0.0141  0.1190  0.0954
20959W        W37433   1.595   3.307   0.422  0.2096  0.0286 -0.3048
20960W        W37434  12.001  15.222   3.813  0.0244 -0.0359  0.4035
20961W        W37435   7.423  11.104   6.187 -0.1139 -0.0072 -0.0186
20962W        W37436   0.680  10.034  12.294 -0.1614  0.0965 -0.4072
20963W        W37437  12.235  15.352   2.058  0.0853 -0.0157  0.0098
20964W        W37438   5.411   9.212   0.438 -0.1574 -0.0567  0.3166
20965W        W37439  12.877   7.686   2.935 -0.3142  0.0973 -0.1604
20966W        W37440   3.468  15.724  13.809  0.2740 -0.0729 -0.0641
20967W        W37441   1.962  17.291   1.737  0.0462 -0.1034  0.2112
20968W        W37442  16.003  13.653  12.372  0.0022  0.0967 -0.0223
20969W        W37443   3.780  16.711   0.670  0.0906 -0.1040  0.2905
20970W        W37444   0.393   3.031   3.933 -0.1507 -0.1280 -0.3658
20971W        W37445   9.364  13.337   6.147  0.2884 -0.0616 -0.1904
20972W        W37446  16.844   3.211  13.919 -0.0214  0.1305 -0.1848
20973W        W37447  10.145  12.186   1.410  0.2575 -0.1147 -0.0783
20974W        W37448  12.982  16.606  15.080 -0.0219  0.0250  0.0279
20975W        W37449   6.138  18.121  14.334 -0.2630 -0.0973 -0.0872
20976W        W37450   0.959  17.867   1.875  0.2726  0.0989  0.1546
20977W        W37451   1.430   2.571   0.475  0.2270 -0.0016 -0.1129
20978W        W37452   9.048  16.816  11.485 -0.1183  0.1247  0.0026
20979W        W37453   3.872   1.309   2.017 -0.1940  0.3551  0.3809
20980W        W37454   8.133   5.161  11.929  0.2483 -0.3177  0.0354
20981W        W37455   1.939   5.372  16.043  0.1506 -0.1298 -0.0109
20982W        W37456   4.735   6.764   2.703 -0.2029  0.1042  0.1457
20983W        W37457  14.665   7.293   0.217 -0.1959  0.1671 -0.3750
20984W        W37458   9.821  11.887   2.262 -0.3341  0.1845  0.1003
20985W        W37459   6.159   0.692   0.587 -0.0090  0.0663  0.0090
20986W        W37460  16.798  13.381   0.079 -0.1463  0.2694 -0.0790
20987W        W37461  16.311   0.717   5.376 -0.1496  0.2558 -0.1075
20988W        W37462  15.530  16.919  15.517  0.0982 -0.1125  0.0718
20989W        W37463   2.657  16.084  13.387  0.0742 -0.1058 -0.0704
20990W        W37464  17.275   2.784   0.611  0.0036  0.2277  0.0214
20991W        W37465   8.178   1.114   3.770 -0.0724  0.0410 -0.0407
20992W        W37466  14.903   9.561   3.584 -0.2042 -0.1593 -0.0547
20993W        W37467   1.828  14.794   1.733  0.1282  0.0173  0.0242
20994W        W37468   3.680   6.289   0.145  0.5791  0.1031  0.1987
20995W        W37469   4.224   3.196  12.516  0.0071  0.1809 -0.2409
20996W        W37470  10.313  11.116   1.220  0.0811 -0.0098 -0.3456
20997W        W37471  13.299  15.156   0.433 -0.1260 -0.1761 -0.0991
20998W        W37472   2.148  10.906   4.346 -0.0307 -0.1598  0.0858
20999W        W37473  10.966  17.963   4.829 -0.1048 -0.0589 -0.1180
21000W        W37474   7.343   0.044  11.579 -0.0419  0.0850  0.1631
21001W        W37475   5.304   8.257  15.560  0.0233  0.0983 -0.0137
21002W        W37476   9.240   1.030  11.655 -0.2672 -0.1883  0.1962
21003W        W37477   1.692   2.958   2.771 -0.2677  0.7177  0.0291
21004W        W37478   8.969   8.645  16.070 -0.1057 -0.0222 -0.0797
21005W        W37479  11.986  16.288   1.768  0.3969 -0.2351 -0.0641
21006W        W37480  14.376   0.798  12.056  0.1569  0.2987  0.0041
21007W        W37481  11.311  14.341   1.537  0.0587  0.0891  0.2405
21008W        W37482  13.452   7.823   5.683 -0.1677 -0.2865 -0.0291
21009W        W37483   0.925   0.604  14.471  0.0840 -0.0690  0.1459
21010W        W37484   8.044  14.449  12.053 -0.0693  0.0571 -0.1102
21011W        W37485   9.664  12.642  12.358  0.3929 -0.0022  0.0907
21012W        W37486   7.164  16.805   4.052 -0.0160 -0.1970 -0.1196
21013W        W37487   0.274   9.322  12.468 -0.2445  0.3419  0.0853
21014W        W37488  12.733  11.342   6.374 -0.3920  0.2551  0.1198
21015W        W37489  17.133   7.352  14.050 -0.0065  0.3062 -0.1539
21016W        W37490   5.893   5.439   6.124 -0.2885  0.1275 -0.1565
21017W        W37491  15.283   9.160  14.726  0.0030  0.1394  0.1588
21018W        W37492  18.216  18.078   3.191 -0.1162  0.0373  0.2310
21019W        W37493   5.344   3.794   4.689  0.1515 -0.1013 -0.1857
21020W        W37494  16.262  16.688   0.532 -0.1437  0.1078  0.2676
21021W        W37495  11.278   0.060   3.748 -0.1801 -0.0159  0.0789
21022W        W37496   9.414  11.993   2.565 -0.3344  0.2262  0.0114
21023W        W37497   3.973  14.814  12.907 -0.1000 -0.1491  0.1983
21024W        W37498  12.876   7.049  15.571 -0.2458  0.0357  0.1313
21025W        W37499  15.716   1.084  15.774  0.2394  0.2191 -0.4148
21026W        W37500  16.510  11.719   2.601  0.1034  0.1503 -0.0300
21027W        W37501   0.960  11.032   2.822 -0.0037  0.1219  0.2715
21028W        W37502  18.281  12.965  14.101 -0.0792  0.0398  0.0927
21029W        W37503   7.227  12.290   5.399 -0.2871 -0.0140 -0.2430
21030W        W37504   9.454  17.759  14.124 -0.1151 -0.1900  0.2260
21031W        W37505   2.650   1.999   4.878 -0.0185 -0.0194 -0.0416
21032W        W37506   9.993   1.436   0.708  0.1183  0.0935 -0.2661
21033W        W37507   2.743   1.023   3.061 -0.0038 -0.2240  0.1833
21034W        W37508  17.340  13.104  11.660  0.1391  0.0817  0.3314
21035W        W37509   1.403   3.212   3.314  0.0290 -0.1175  0.0974
21036W        W37510   0.665  16.889  13.458 -0.1395 -0.2342 -0.1264
21037W        W37511  16.089   5.822   5.497  0.2186  0.0541  0.1394
21038W        W37512  11.596  15.888   2.467  0.2707 -0.0377 -0.0045
21039W        W37513   2.015   4.237   2.526  0.3055  0.0236  0.2487
21040W        W37514  17.271  10.094   0.959 -0.1135 -0.3211  0.0577
21041W        W37515  17.453  10.127  11.446 -0.4288 -0.0722  0.2929
21042W        W37516   8.591   4.285   3.774 -0.0970 -0.1291 -0.1467
21043W        W37517   3.393  15.207  12.431 -0.1823 -0.1626  0.1442
21044W        W37518   2.036  14.018   2.171  0.2550  0.1196  0.1820
21045W        W37519  10.586   4.531   4.881 -0.2131  0.1780  0.0379
21046W        W37520  18.008   2.828  12.119 -0.0235  0.0765 -0.2031
21047W        W37521   5.458   7.359  12.343  0.0638 -0.1370  0.0341
21048W        W37522   0.928   2.522   5.002 -0.2039  0.0208 -0.2814
21049W        W37523  14.854   6.538  11.213 -0.4687  0.0269  0.4651
21050W        W37524  15.523  12.544  13.861  0.0153 -0.0754  0.1434
21051W        W37525  10.971  15.517  11.472  0.0661 -0.2368  0.3926
21052W        W37526  13.290   7.602   0.078  0.2208  0.0189  0.2508
21053W        W37527   3.366  16.139  12.775  0.1916 -0.2260 -0.3418
21054W        W37528   1.290   6.698  12.215 -0.0704  0.0155  0.0034
21055W        W37529   1.869   7.733  13.957  0.1019  0.0050  0.0812
21056W        W37530   2.751   7.411   3.865  0.0349  0.0842  0.1018
21057W        W37531  13.329   2.187   4.450 -0.3442 -0.1145 -0.0854
21058W        W37532   9.665   6.066  15.971 -0.0379  0.0451 -0.0060
21059W        W37533   2.973  15.321  13.911  0.1027  0.1518 -0.0006
21060W        W37534  15.371  16.732   5.164  0.0588 -0.2454 -0.0677
21061W        W37535  11.495  13.737  15.423  0.1820 -0.1350  0.0777
21062W        W37536  15.302  15.098   2.876  0.4891  0.2776  0.1487
21063W        W37537  13.838  14.149  13.724 -0.1263  0.1178  0.3445
21064W        W37538   6.956   3.716   0.353  0.0168 -0.1485 -0.0383
21065W        W37539   5.924   4.586  15.512  0.2118 -0.0770  0.0253
21066W        W37540   3.934   4.653   2.039 -0.1013 -0.0215 -0.0752
21067W        W37541   5.941   6.476   3.642 -0.0989 -0.1390 -0.0333
21068W        W37542  15.146   2.359  15.649  0.0624  0.2439 -0.2632
21069W        W37543   5.114  10.436  12.444  0.1751  0.1189 -0.0863
21070W        W37544   6.250   2.365   3.322  0.1244 -0.0807  0.1784
21071W        W37545  16.629  14.066   3.610  0.2577  0.1093 -0.0162
21072W        W37546   2.442  11.637   5.474 -0.1939  0.0339  0.0801
21073W        W37547  13.328  15.323  14.023 -0.1183 -0.0707  0.2333
21074W        W37548  15.170   8.692  11.565  0.2324 -0.1606  0.0920
21075W        W37549   4.890  16.286  12.968 -0.2379  0.0741 -0.2272
21076W        W37550  18.146  15.919  11.507  0.2117  0.0748 -0.1208
21077W        W37551   7.952  13.222   2.380 -0.1427 -0.3843 -0.0074
21078W        W37552   3.477  12.129  11.015 -0.2080  0.0119  0.0114
21079W        W37553  11.121  16.499   0.920  0.0234  0.0485  0.3316
21080W        W37554  10.949   1.629  12.558  0.1283 -0.1446  0.0658
21081W        W37555   3.892  11.462   1.214 -0.1836  0.2495 -0.1661
21082W        W37556  10.008   6.684  12.877 -0.1333  0.2428 -0.1669
21083W        W37557   9.345   7.222   2.231  0.0604 -0.0732  0.3378
21084W        W37558  17.135   2.483  10.694  0.0673  0.1797  0.2245
21085W        W37559   6.279   8.050   1.095  0.0594 -0.2536  0.0437
21086W        W37560   9.023   1.138   4.307  0.0791 -0.0146 -0.0957
21087W        W37561   7.293  12.425   3.149  0.0603  0.1487  0.1078
21088W        W37562  10.854  15.607  15.068  0.1888 -0.2409  0.0098
21089W        W37563   3.865  13.386   3.597 -0.1684  0.1827  0.2456
21090W        W37564   1.886   1.444  12.802  0.3720  0.1280  0.3100
21091W        W37565  14.089   5.501   3.703 -0.1668  0.2873 -0.1090
21092W        W37566  12.569   8.619  15.740  0.3187  0.3166 -0.2702
21093W        W37567   7.153   3.293  15.295 -0.1239 -0.0634 -0.1702
21094W        W37568  15.227  15.005   2.363 -0.1847 -0.2820 -0.2323
21095W        W37569  12.888   5.169   3.131 -0.0088  0.1061  0.2071
21096W        W37570  15.527  11.781  13.094 -0.0043  0.0542 -0.2559
21097W        W37571  15.383   4.394  12.446  0.0639 -0.3443  0.0736
21098W        W37572   7.960   4.780  15.147  0.1293  0.0241  0.3189
21099W        W37573  17.011   1.569  16.090  0.2345  0.1105  0.2023
21100W        W37574   3.497  10.519   2.051 -0.2159 -0.1622  0.0831
21101W        W37575  11.347   7.234   2.744 -0.0687 -0.2435 -0.1118
21102W        W37576  15.549  11.925  11.626  0.0020  0.1240  0.0284
21103W        W37577  10.045   7.739   2.787  0.0612 -0.1086  0.0786
21104W        W37578  17.430   3.297   4.017 -0.0730  0.0258 -0.1266
21105W        W37579   3.509  10.676   3.849  0.0629 -0.2577  0.1426
21106W        W37580  13.086  11.114  11.545  0.1331 -0.2398  0.1748
21107W        W37581   6.926  17.831  11.599 -0.2023 -0.0710 -0.1729
21108W        W37582  16.337   3.968   2.229 -0.0876  0.2082  0.0693
21109W        W37583  13.408  12.454  15.756  0.2696 -0.1018 -0.0491
21110W        W37584   3.033  16.281   1.238  0.0288  0.1758  0.3769
21111W        W37585   4.182  11.436  15.253 -0.1958  0.2345  0.1123
21112W        W37586   2.778  16.614  16.218  0.0516  0.3689  0.4161
21113W        W37587  16.946   9.859  15.801 -0.0230 -0.1626 -0.0524
21114W        W37588   1.250   1.015  14.205  0.1302  0.0713  0.0409
21115W        W37589   9.021   7.708  16.293 -0.0564 -0.0091 -0.0203
21116W        W37590   1.910  10.457   3.615  0.0748  0.1836  0.1448
21117W        W37591  17.889  13.874  16.245 -0.3335 -0.2929 -0.2165
21118W        W37592  13.215   6.202   2.240  0.5092 -0.0090 -0.3357
21119W        W37593   8.975  14.298  13.287  0.1059 -0.2999 -0.0443
21120W        W37594  11.514   7.682   0.893  0.2214 -0.0237  0.2164
21121W        W37595   6.096  10.789   5.707 -0.1117  0.1896 -0.2440
21122W        W37596  13.357  16.000  12.484  0.1046  0.0340  0.1617
21123W        W37597   9.312   0.059   2.197  0.1063  0.2593  0.0403
21124W        W37598   7.216   2.358  11.438 -0.0716 -0.1200 -0.2412
21125W        W37599   2.367  17.288  14.866 -0.1434 -0.3897  0.4228
21126W        W37600   0.323  15.028   1.803 -0.2782  0.1547 -0.0546
21127W        W37601   5.847  10.156   3.169 -0.3784 -0.1686 -0.1231
21128W        W37602  14.975   5.272  11.178  0.3178 -0.1635  0.1242
21129W        W37603   2.102  15.471  15.652 -0.1574  0.0467 -0.1977
21130W        W37604   1.598  15.633   5.313 -0.0527 -0.0445  0.3230
21131W        W37605  14.784  13.702   1.721 -0.0501  0.2155 -0.2163
21132W        W37606  16.708  10.471   2.236  0.2757 -0.1144 -0.3937
21133W        W37607  17.309   6.026  12.206  0.0239  0.0009 -0.2230
21134W        W37608   4.463   5.565  11.547  0.0245 -0.1596  0.1082
21135W        W37609   6.439   7.278   4.584 -0.1607 -0.1200 -0.0138
21136W        W37610   6.504   3.532   4.788 -0.3496  0.2450 -0.2449
21137W        W37611  17.401  18.298  13.229  0.1226 -0.0668 -0.2201
21138W        W37612  11.139   3.316  12.296  0.0878 -0.2402 -0.3241
21139W        W37613  14.669   8.679   3.639 -0.0671 -0.1924  0.3178
21140W        W37614  15.634   8.394   3.671 -0.1620  0.2488  0.2027
21141W        W37615  14.973   3.952   1.825 -0.2852 -0.2996  0.0649
21142W        W37616  12.244  10.803   0.608 -0.0275 -0.1129  0.0918
21143W        W37617   2.349   9.741  12.613 -0.2802 -0.2260 -0.1818
21144W        W37618   9.417  14.827  13.552  0.0226  0.0558  0.2402
21145W        W37619  15.075  12.979   0.453  0.2350  0.0251 -0.1326
21146W        W37620   5.163   7.870  11.569  0.0300  0.2994  0.0647
21147W        W37621   8.080   7.577  12.396 -0.3109 -0.0021 -0.0741
21148W        W37622  17.785  11.060  12.123  0.0489 -0.0208  0.0900
21149W        W37623   4.111  14.808   0.880 -0.1348  0.0818 -0.1408
21150W        W37624   8.950  14.015  14.661 -0.3558  0.2229  0.1371
21151W        W37625   2.438   3.735  12.879  0.0469 -0.0894  0.0406
21152W        W37626  18.226   2.219   2.326 -0.0355  0.1288  0.1596
21153W        W37627  12.165   7.399  12.354  0.0640  0.0361  0.1756
21154W        W37628   3.253   9.228   0.423  0.0318  0.1661 -0.0424
21155W        W37629  13.867   8.837  13.051  0.0136  0.0831 -0.0327
21156W        W37630  17.115   0.550  12.541 -0.0555  0.1535 -0.0517
21157W        W37631   9.098  12.856   2.272 -0.0342 -0.1260 -0.2214
21158W        W37632   0.964   2.560   0.238  0.0901  0.1975 -0.0960
21159W        W37633  17.478  16.786   4.180 -0.2883 -0.1355  0.5370
21160W        W37634  11.823  17.036  11.801  0.0022  0.2414  0.0845
21161W        W37635   2.349  16.542   0.205  0.2274 -0.0683 -0.0922
21162W        W37636   5.566   9.725   0.716  0.0454 -0.1305 -0.0217
21163W        W37637   9.998  15.766   4.445  0.4095 -0.0314  0.2107
21164W        W37638  14.078  11.231  15.643 -0.0341  0.0618  0.0224
21165W        W37639   6.303  11.428  12.098 -0.1457 -0.2863  0.0967
21166W        W37640  12.602  17.327   4.842  0.2225 -0.2041  0.1989
21167W        W37641   9.649   3.408   3.581 -0.1572  0.0694  0.0730
21168W        W37642  15.966  13.395   0.271 -0.2188 -0.2373  0.0021
21169W        W37643  15.326   7.425   4.784 -0.2671  0.0416 -0.1090
21170W        W37644   4.463   7.106  13.970  0.2709 -0.2340  0.1553
21171W        W37645  11.953   9.275  11.889  0.0486 -0.0410  0.1243
21172W        W37646   4.974  10.306  11.399  0.3178 -0.0598  0.1707
21173W        W37647  10.462  11.852   0.286 -0.0367 -0.1245 -0.3620
21174W        W37648   7.038  14.565   1.642  0.0441 -0.0188 -0.1286
21175W        W37649  10.776  14.300   1.685 -0.0721 -0.0898  0.2058
21176W        W37650  13.798  10.852   4.375  0.2003  0.0350 -0.0281
21177W        W37651   3.239  10.409  13.566  0.1726 -0.4335 -0.0817
21178W        W37652   0.890  14.992   5.120 -0.2546  0.2112  0.0821
21179W        W37653  17.057  15.943   0.527  0.1570  0.1542 -0.3442
21180W        W37654  11.467  10.914  13.953 -0.2388  0.3418 -0.2818
21181W        W37655  13.465   5.086  15.540 -0.1304 -0.1362  0.0436
21182W        W37656  11.265   4.464  11.168 -0.0530 -0.0239 -0.0573
21183W        W37657   7.113  10.013   4.778  0.2474 -0.5369 -0.0027
21184W        W37658   5.637  17.327   5.237 -0.0326  0.1414  0.0087
21185W        W37659  10.144   0.154   0.999 -0.1661  0.0278  0.2642
21186W        W37660   7.577  12.321  11.851  0.2495  0.1675 -0.1112
21187W        W37661  18.132   1.754  11.248  0.0960  0.4233  0.1620
21188W        W37662   0.449  16.539  13.883  0.0052  0.0090 -0.2653
21189W        W37663   6.476   3.689  11.967  0.2177  0.0468  0.1760
21190W        W37664  13.650   9.758  12.096 -0.0776  0.2551 -0.0483
21191W        W37665   6.649  10.167  15.920 -0.0161  0.2054 -0.0167
21192W        W37666   0.444  12.835  13.466 -0.0396 -0.0426 -0.2022
21193W        W37667  17.121   0.201  15.422  0.2552 -0.0044 -0.1606
21194W        W37668   0.012  18.248  11.392  0.2619  0.2891 -0.3543
21195W        W37669   6.894   8.723  11.445 -0.3176 -0.2527 -0.3823
21196W        W37670   2.527   2.209  14.387  0.0455  0.1366  0.2214
21197W        W37671  16.316   4.440   2.388  0.0568 -0.0871  0.1322
21198W        W37672   4.439  11.340   2.900 -0.2175  0.0427 -0.2374
21199W        W37673  12.316  11.487  12.419  0.1363 -0.0540 -0.0115
21200W        W37674   9.596  15.174  13.862 -0.0489 -0.0160  0.0307
21201W        W37675   4.214  11.614  14.219 -0.0958 -0.0364  0.0491
21202W        W37676  10.478   2.200  15.235  0.0767  0.1889 -0.1488
21203W        W37677  10.222   7.509   4.623 -0.2937 -0.0051 -0.1205
21204W        W37678  16.009   8.816   4.110 -0.1057  0.0873  0.1834
21205W        W37679  17.465   3.985   3.324 -0.0357  0.0111 -0.1292
21206W        W37680   5.078   8.538   0.660 -0.1292 -0.0981 -0.0511
21207W        W37681   8.991  13.232   3.844  0.0701 -0.0100  0.0202
21208W        W37682   5.696   0.632   1.067 -0.0692  0.0674  0.2191
21209W        W37683   5.181  14.495   4.590  0.0390  0.0654 -0.3201
21210W        W37684  15.947  13.994   1.641  0.2861  0.1678  0.0918
21211W        W37685   5.981   1.376   3.537  0.1562 -0.2448  0.0307
21212W        W37686   2.177  14.738  14.196  0.2137 -0.0435  0.2471
21213W        W37687  16.694   5.650   2.641 -0.0395 -0.1591 -0.1362
21214W        W37688   0.640  12.587  15.023 -0.2407 -0.1310 -0.0901
21215W        W37689   6.670   6.183  15.089 -0.1983  0.0639  0.0957
21216W        W37690  15.156  11.423  14.253 -0.1410  0.2506  0.0836
21217W        W37691   7.653  10.438  15.007 -0.0716  0.2217  0.0299
21218W        W37692  12.280  16.331  12.383  0.1771  0.0421 -0.1161
21219W        W37693   3.020   5.029  12.711  0.2006  0.1096 -0.5686
21220W        W37694   5.152   7.987  13.342 -0.0338  0.2407 -0.0071
21221W        W37695  17.457  12.772  12.067  0.2866  0.1580 -0.3200
21222W        W37696  16.189  11.046  15.824 -0.3933  0.2077  0.1929
21223W        W37697   8.789   2.918   3.840  0.0870 -0.2244 -0.1766
21224W        W37698   7.319   2.913  15.655 -0.2449  0.2127  0.2287
21225W        W37699   0.217   7.934   4.150  0.0199 -0.0968 -0.0026
21226W        W37700  17.547   7.038   5.140  0.1548  0.2519  0.1575
21227W        W37701   2.328  12.302  14.288 -0.0832  0.0830 -0.0257
21228W        W37702  14.007   6.851   3.143 -0.1163 -0.1487 -0.0999
21229W        W37703  15.253   8.092   2.880 -0.0508 -0.0988 -0.0663
21230W        W37704  15.662  15.493  14.104 -0.0195  0.2006 -0.1192
21231W        W37705  16.129  17.651   1.851  0.0955  0.4532 -0.1359
21232W        W37706   0.209   9.876  14.209 -0.1261 -0.1767  0.0931
21233W        W37707   0.925  12.981  13.345 -0.0801 -0.1636 -0.0999
21234W        W37708   6.899   8.915   2.534 -0.0762  0.1380  0.2394
21235W        W37709   5.332  12.730  14.410  0.0265 -0.2209  0.1187
21236W        W37710  12.752  16.600   2.319  0.1145 -0.0219 -0.2864
21237W        W37711  10.725  11.027   1.772 -0.1388  0.0416 -0.0812
21238W        W37712   9.164  14.620  14.615  0.1272 -0.0077  0.1698
21239W        W37713   2.281  13.212  14.876  0.3644 -0.3955  0.0869
21240W        W37714   7.787   5.345  15.744 -0.0393 -0.0035 -0.1468
21241W        W37715   4.910   4.006  13.258  0.2136  0.0962 -0.2108
21242W        W37716  10.716  13.502  11.782 -0.2336 -0.0104  0.3311
21243W        W37717  12.006  14.911  11.678 -0.1597  0.1999  0.1027
21244W        W37718   8.358   6.883   2.168  0.3510  0.0022 -0.2014
21245W        W37719   1.304  17.113   0.797  0.1817  0.2133  0.3113
21246W        W37720  14.335  10.431   2.175 -0.1082 -0.0231 -0.1592
21247W        W37721   0.221   2.760  12.309 -0.0801 -0.0661  0.1940
21248W        W37722   9.091   5.449  11.680 -0.4449 -0.0819  0.2098
21249W        W37723  10.169   9.722   0.527 -0.3010  0.1827  0.1240
21250W        W37724  18.277  13.748   3.238  0.1537  0.0137  0.2250
21251W        W37725   2.811   4.251   3.625  0.1387  0.3137  0.1994
21252W        W37726  12.884   1.924   4.435 -0.1830 -0.2414 -0.0057
21253W        W37727  12.422  11.440  12.972  0.0625 -0.3539  0.0405
21254W        W37728   1.739   3.677  15.267  0.1507 -0.1095 -0.1925
21255W        W37729  10.080  17.007   2.384  0.0510  0.0654 -0.1304
21256W        W37730   9.880  17.029  10.825 -0.0451 -0.1001  0.2741
21257W        W37731   9.982  16.474   1.416  0.4108 -0.1575 -0.3831
21258W        W37732  10.590   8.717  14.467 -0.0387  0.0573  0.2897
21259W        W37733  17.602   9.140   3.845  0.1514  0.0687 -0.2991
21260W        W37734  12.692  10.513   1.310 -0.0064 -0.1852  0.0924
21261W        W37735  17.243   5.499  10.433  0.0642 -0.2289  0.1682
21262W        W37736   1.704   9.340   6.016 -0.0805 -0.1268  0.0502
21263W        W37737  14.638  15.268   2.431  0.0613 -0.3848  0.0860
21264W        W37738  13.196  13.730   2.769 -0.1397 -0.3886 -0.0363
21265W        W37739   1.386   9.076   1.550  0.0296  0.2470 -0.1744
21266W        W37740   9.141   6.431   0.700 -0.3300  0.1992 -0.2562
21267W        W37741   8.432   6.274   4.440  0.1398 -0.1342  0.4339
21268W        W37742  17.898   3.946  12.278  0.3197 -0.1454  0.0676
21269W        W37743   5.306   8.491   5.185 -0.0315  0.0821  0.0213
21270W        W37744   6.598   6.296   5.961  0.0088  0.0129  0.0214
21271W        W37745  10.580  15.014   0.468  0.0958 -0.1490 -0.2098
21272W        W37746   7.447  16.928  15.582 -0.0253  0.1598 -0.0230
21273W        W37747   5.296  17.484   1.971  0.0134 -0.1564  0.2392
21274W        W37748  18.009  14.248   2.246 -0.2396 -0.2609  0.2300
21275W        W37749   5.635  10.840   5.956 -0.2363 -0.0324 -0.0444
21276W        W37750   6.558   4.738  11.931 -0.3197  0.0688 -0.3825
21277W        W37751   1.907   9.905  11.374  0.1097 -0.0712  0.2120
21278W        W37752   6.916  13.043   1.384  0.2050 -0.1819  0.2869
21279W        W37753  16.842  10.125   0.408 -0.1963 -0.0993  0.0505
21280W        W37754  17.881  16.101  15.510  0.1970 -0.1617  0.0617
21281W        W37755  16.004  12.386   2.929 -0.1913  0.2742  0.0037
21282W        W37756  10.785  10.857   1.239  0.0832 -0.0271 -0.1290
21283W        W37757   9.959  16.536   2.423 -0.1762 -0.0892 -0.0089
21284W        W37758   8.225   5.842  14.430  0.2844  0.1650  0.1049
21285W        W37759   9.617   0.151   0.704 -0.1835 -0.0358 -0.0036
21286W        W37760   0.480   8.515  15.814  0.0583  0.1173 -0.0456
21287W        W37761   5.555   7.938   5.934 -0.0527  0.4317  0.2116
21288W        W37762   8.177   1.474  11.507  0.0260  0.0993  0.1250
21289W        W37763  13.988   0.316  11.704  0.0080 -0.2943  0.0003
21290W        W37764  14.474   4.466   5.615 -0.2879  0.1457 -0.0056
21291W        W37765  17.716   4.980  14.846  0.1404  0.0672  0.2120
21292W        W37766  14.335  12.091   3.267  0.0075 -0.3059 -0.3083
21293W        W37767  16.645  15.699  15.419 -0.2625 -0.3459  0.0323
21294W        W37768  17.771   0.055   5.345  0.2399  0.1630 -0.4943
21295W        W37769   4.458   5.284   4.979  0.0631 -0.1563  0.4697
21296W        W37770  17.492   3.478  14.899 -0.0305  0.2476  0.2171
21297W        W37771  17.828   3.165  11.274 -0.2499 -0.3263 -0.0681
21298W        W37772   2.094   8.477   1.752 -0.0617 -0.2819 -0.4182
21299W        W37773  17.943   6.824  13.365 -0.1400  0.2694 -0.1881
21300W        W37774  15.520  15.310   0.024  0.1863  0.1786 -0.2346
21301W        W37775   3.502  15.062   2.564  0.1577  0.2177 -0.1881
21302W        W37776  12.822  11.585   4.256 -0.4844 -0.1980  0.5562
21303W        W37777   5.168  16.136  13.384  0.0373 -0.0783  0.0547
21304W        W37778  12.411   8.549   2.408  0.2069  0.1377 -0.3440
21305W        W37779  13.919  11.971   4.405  0.0050 -0.0121 -0.3361
21306W        W37780  15.373  16.906   0.463 -0.0893  0.3234 -0.1319
21307W        W37781   1.284   7.046  13.934  0.2236  0.0076 -0.3789
21308W        W37782  17.397   3.164  11.562  0.1209  0.0161 -0.3994
21309W        W37783  15.487   7.427   0.774 -0.3771  0.0343 -0.1902
21310W        W37784   5.913  12.031  14.840 -0.3602 -0.1413  0.0424
21311W        W37785  11.849  17.780  15.970 -0.2950 -0.2035  0.2217
21312W        W37786  17.969  18.241  15.898 -0.0613  0.0917 -0.2023
21313W        W37787  11.257   8.206   4.999 -0.2187 -0.1496  0.0170
21314W        W37788  11.762   1.747  14.959  0.0524  0.0022  0.1140
21315W        W37789   8.747  15.347  14.093 -0.2311  0.2457 -0.2267
21316W        W37790  16.268   9.381   4.920 -0.0062 -0.1759 -0.2567
21317W        W37791   5.840   8.377  15.657  0.3283  0.2710 -0.0373
21318W        W37792   3.881  17.279   1.423  0.0202  0.2502 -0.0653
21319W        W37793   2.156  11.422  14.103 -0.1728 -0.0619 -0.2985
21320W        W37794  10.075  13.603   3.316  0.1755 -0.3923  0.2460
21321W        W37795  10.322   0.843   4.258 -0.0219 -0.1221  0.0666
21322W        W37796   4.544   0.237   1.943 -0.1635  0.1561  0.1602
21323W        W37797   3.310  11.818  16.182  0.2917  0.0846 -0.0676
21324W        W37798   5.429   2.901   1.236  0.0790  0.3136  0.0109
21325W        W37799   4.169   7.523   5.385 -0.1510 -0.2538  0.1808
21326W        W37800  10.720  11.449  15.033  0.0786  0.0735  0.0741
21327W        W37801   1.344  14.142  11.888 -0.4599  0.0408  0.0470
21328W        W37802   0.105  11.126   2.942  0.0843 -0.4348 -0.0283
21329W        W37803  17.346   9.465   1.612 -0.3305 -0.0194 -0.3163
21330W        W37804   1.051  17.213  13.170 -0.1314  0.2341  0.0999
21331W        W37805  10.813  13.939   2.994 -0.1924  0.1922 -0.1891
21332W        W37806  17.208   6.192   0.259  0.0123 -0.1088 -0.1875
21333W        W37807  17.064  11.287  11.531  0.3019  0.3074  0.1458
21334W        W37808  17.020   3.584  12.858 -0.2527 -0.1118 -0.2298
21335W        W37809   8.018  17.736  13.200  0.1213  0.5162 -0.3785
21336W        W37810   7.504  14.542   0.416 -0.1084 -0.0041 -0.1517
21337W        W37811   8.822  13.858   3.096 -0.0454  0.0086  0.4910
21338W        W37812  10.692   7.429   0.392  0.1197  0.1815 -0.0893
21339W        W37813  12.033   8.764   5.733  0.0035 -0.1490  0.1847
21340W        W37814   5.678  11.364   2.876  0.0721  0.1408  0.2795
21341W        W37815  15.946   6.864  15.182 -0.1786  0.1730 -0.0205
21342W        W37816   6.828   6.587   3.995  0.1529 -0.2289  0.2760
21343W        W37817   5.852   8.079  14.156  0.2056 -0.1069 -0.2154
21344W        W37818   4.260  15.345  14.294  0.2391 -0.2713  0.1103
21345W        W37819  10.530  12.745  12.083  0.1288  0.1559 -0.0456
21346W        W37820   3.967  10.365  11.399  0.3526 -0.1737 -0.1919
21347W        W37821  12.901   3.108  15.301 -0.0196 -0.2281  0.0177
21348W        W37822  14.853   6.233  13.439 -0.1238  0.1022 -0.1124
21349W        W37823  13.169  15.113  13.257  0.0467 -0.2179 -0.4168
21350W        W37824  14.910   2.273  14.050 -0.2307  0.1146  0.2066
21351W        W37825   8.426   1.315   5.539  0.1435 -0.1167 -0.1424
21352W        W37826  12.328  11.351   4.250  0.0505  0.1948 -0.2214
21353W        W37827   3.845   0.761  13.640  0.0927  0.0616  0.0486
21354W        W37828   1.220  14.193  13.824 -0.0173  0.2364  0.0019
21355W        W37829  13.102  10.194  15.698  0.2456  0.2391 -0.0986
21356W        W37830   5.789  16.391  14.759 -0.4350  0.3534 -0.2281
21357W        W37831   6.877  17.793   0.148 -0.1054  0.0346  0.2455
21358W        W37832   6.493  16.538   5.404  0.0608 -0.2471  0.4268
21359W        W37833   1.203   9.730   1.610  0.0882 -0.1877 -0.2267
21360W        W37834   8.613  17.643   0.949  0.1857  0.1884 -0.2251
21361W        W37835  13.315  11.771   1.122  0.1941  0.2196 -0.3532
21362W        W37836   9.316  14.783   3.789  0.1346  0.0054 -0.1286
21363W        W37837   0.564   8.250  14.421 -0.2697 -0.2561  0.0082
21364W        W37838   2.744   8.263  13.894  0.2280 -0.2595 -0.0454
21365W        W37839  17.324   9.191  13.768  0.1006 -0.2003  0.5191
21366W        W37840  17.613  11.620   3.588 -0.0295 -0.2331 -0.0162
21367W        W37841   9.316  13.479  12.241 -0.0627 -0.0359 -0.0199
21368W        W37842  15.220  15.837   5.356  0.1580  0.1227 -0.3764
21369W        W37843  10.618   2.593  13.464  0.3000 -0.1572 -0.1786
21370W        W37844  10.932  12.387   5.298 -0.0916 -0.3131  0.0091
21371W        W37845   9.223   9.111   0.378 -0.1156  0.0289  0.3580
21372W        W37846   1.692   3.104  15.941 -0.3023 -0.1026  0.0838
21373W        W37847  10.007  11.595  12.797  0.0657 -0.4285 -0.1837
21374W        W37848   3.747   4.439   3.155 -0.2536  0.1718  0.2408
21375W        W37849   2.584   7.775   5.427 -0.0050  0.1056  0.1060
21376W        W37850  17.708   4.571  11.762 -0.0394  0.2163 -0.0141
21377W        W37851   4.432  13.474  11.876  0.0679 -0.1146 -0.1386
21378W        W37852   3.528   2.867   4.292  0.2527 -0.4133  0.4350
21379W        W37853  18.171   6.296  13.975 -0.0816 -0.4574  0.1833
21380W        W37854  13.913  17.715   4.668 -0.0055 -0.2977  0.3766
21381W        W37855   7.331  17.339   4.076 -0.0280  0.1806 -0.0222
21382W        W37856   5.172   2.706  13.328 -0.0803  0.3071  0.0114
21383W        W37857  11.343   1.339   4.625 -0.0807 -0.0301  0.0014
21384W        W37858  10.763  16.276   2.337 -0.2516 -0.0291  0.0217
21385W        W37859  17.853   2.922   1.251 -0.0819 -0.1514 -0.0503
21386W        W37860   1.553  17.723  12.872 -0.2208  0.2481  0.2599
21387W        W37861   4.279  14.390  15.485 -0.1826 -0.1237  0.0996
21388W        W37862  17.762  13.058   5.187  0.0477 -0.1582 -0.0768
21389W        W37863   8.331   1.208   1.789 -0.1840 -0.2447  0.0138
21390W        W37864  10.606  15.383   0.006 -0.4449  0.1843 -0.0671
21391W        W37865   7.572   4.367  13.656  0.2184 -0.0936  0.3288
21392W        W37866  16.951   3.324   4.836 -0.0043  0.0951 -0.0977
21393W        W37867   2.595  13.622  14.752  0.0366 -0.0699 -0.1828
21394W        W37868  16.072  17.923  12.572  0.2726 -0.0624  0.1185
21395W        W37869  18.176  11.547   1.775 -0.1941 -0.0150  0.0894
21396W        W37870   6.456   8.745   2.818  0.1627 -0.0443  0.0473
21397W        W37871   8.714  11.418   3.294  0.1289 -0.3939  0.0167
21398W        W37872   6.214  14.253  15.230 -0.0836 -0.1348  0.1875
21399W        W37873   2.553   2.221   5.813 -0.0586  0.0324 -0.0431
21400W        W37874  15.467   5.925   2.593 -0.0234  0.0105  0.1839
21401W        W37875   1.139  11.042  13.147 -0.0718 -0.1859 -0.1159
21402W        W37876  16.563   0.595  14.542  0.1817  0.0008  0.0565
21403W        W37877   7.248  10.844   3.049  0.0967 -0.1462 -0.2491
21404W        W37878  15.247   3.983   0.702 -0.3337  0.0824  0.1881
21405W        W37879   4.951   6.331  13.794 -0.3111  0.1864  0.0313
21406W        W37880   5.909  16.021  15.374  0.0206 -0.0041 -0.1998
21407W        W37881   9.212   3.288   4.895 -0.0186  0.1650  0.1051
21408W        W37882  16.325   3.487   3.845 -0.0932 -0.2042 -0.1703
21409W        W37883  10.375  17.312  12.934 -0.0033  0.1078 -0.1279
21410W        W37884   3.052   1.816  13.501  0.0867  0.0265 -0.0085
21411W        W37885   9.511   6.259  11.493 -0.1347 -0.0447  0.1249
21412W        W37886   7.518  10.361   4.421  0.3385  0.3321  0.0064
21413W        W37887  15.428   5.522  15.610 -0.0656  0.1987  0.0072
21414W        W37888  16.800  14.382  11.934 -0.0794  0.1212 -0.0508
21415W        W37889  14.611   5.567   3.002  0.2268 -0.1409 -0.4196
21416W        W37890   1.873  16.459  13.291  0.2607  0.5142  0.3277
21417W        W37891  15.523  17.114  14.816  0.1801 -0.0724  0.1850
21418W        W37892   9.513  15.404  16.269  0.2874 -0.2313 -0.0545
21419W        W37893  16.393  14.535   3.850  0.0284  0.2197  0.1269
21420W        W37894   0.773   2.617  14.546  0.1198 -0.0718 -0.1548
21421W        W37895  17.723  17.253   4.459 -0.1832 -0.0830 -0.0224
21422W        W37896  16.634   4.339  14.016 -0.0346  0.1579 -0.0620
21423W        W37897   3.030   9.577   0.109  0.1549  0.1251 -0.1840
21424W        W37898  17.751  15.790  12.146  0.0089  0.0939  0.1015
21425W        W37899   1.255   2.799  15.846  0.2661  0.2335  0.2365
21426W        W37900  12.520   6.844  15.142  0.2724  0.2706  0.1046
21427W        W37901  15.613   7.712   1.187 -0.1633 -0.0050 -0.1414
21428W        W37902   8.814   7.997  14.613 -0.0969 -0.4421 -0.0737
21429W        W37903   9.852   3.543  13.795 -0.4010 -0.1568  0.1604
21430W        W37904   8.629  16.599   2.936  0.2786 -0.2861 -0.1661
21431W        W37905   6.573   6.771   5.109 -0.2539  0.1658 -0.0156
21432W        W37906  17.821  13.640   2.980  0.0773  0.2201  0.2459
21433W        W37907   0.987   2.059   1.815  0.4374 -0.0045 -0.1868
21434W        W37908  17.569   5.308  15.784 -0.1506  0.1215 -0.0973
21435W        W37909  16.694   3.592   2.794  0.1487 -0.1756  0.0448
21436W        W37910  15.636   8.556  11.272  0.0419 -0.0534 -0.3217
21437W        W37911   9.960   8.241  14.676  0.0544  0.0888  0.0216
21438W        W37912   7.179  16.596  15.192  0.1495 -0.0029 -0.0025
21439W        W37913   4.430  14.580   4.258 -0.2024  0.0435  0.0747
21440W        W37914   9.620  14.356   2.756  0.2137  0.2084  0.1482
21441W        W37915  10.550   0.502  13.045  0.2459 -0.0484  0.0582
21442W        W37916   9.919  14.387   1.641  0.3192 -0.2195  0.0126
21443W        W37917  18.222   7.101   3.042 -0.0067  0.1018  0.0094
21444W        W37918   8.372   8.551   0.958 -0.1945 -0.1116  0.0958
21445W        W37919   8.887   9.942  13.342  0.0708  0.2076 -0.1340
21446W        W37920   5.649  17.638   4.894  0.2685  0.1489  0.3238
21447W        W37921   9.523  11.189   3.622  0.0814 -0.3633  0.0113
21448W        W37922   3.491  12.103   2.665  0.3486  0.0723  0.1177
21449W        W37923  15.782   4.929   1.288  0.2287  0.2554  0.2473
21450W        W37924   1.290   0.159  14.091  0.2234  0.0900 -0.0461
21451W        W37925  15.372   3.022   1.333 -0.0619 -0.2845 -0.1178
21452W        W37926  12.970   5.982   1.491 -0.0001 -0.3338  0.0545
21453W        W37927  15.279  10.535   5.353  0.1031 -0.0229 -0.1625
21454W        W37928   0.885   7.378  16.126 -0.0726 -0.2053  0.0524
21455W        W37929   2.970  13.836  11.693 -0.0874 -0.4083  0.2191
21456W        W37930   6.180   4.120  16.069  0.0618  0.0884 -0.0378
21457W        W37931  14.570   3.043  13.556 -0.1524 -0.1937 -0.1529
21458W        W37932  18.119   7.010  15.351 -0.1471 -0.0189  0.2661
21459W        W37933  11.733   8.217  14.130 -0.4252  0.3908 -0.0654
21460W        W37934  18.006   5.869  13.751 -0.0107  0.3143 -0.0197
21461W        W37935   3.641   3.212  16.145 -0.2117  0.2273  0.1194
21462W        W37936   7.819   2.191  11.919  0.0490  0.4115 -0.0488
21463W        W37937   1.091   0.094   0.854 -0.2828 -0.1690  0.1301
21464W        W37938  14.617   1.241  13.072  0.0807  0.1545 -0.0047
21465W        W37939   7.516   2.564  11.859  0.0967  0.4265  0.1730
21466W        W37940   8.069  16.702  12.199 -0.4791  0.0776  0.0721
21467W        W37941   8.597  16.859   1.511  0.1902  0.1111  0.0858
21468W        W37942  15.150  17.721  14.136  0.0999 -0.4021 -0.0948
21469W        W37943   7.890   5.944   0.452 -0.2294 -0.1056  0.1845
21470W        W37944   7.417  17.845  11.764  0.2580 -0.1058 -0.1206
21471W        W37945   3.848  13.043  14.084 -0.1055 -0.0805  0.1362
21472W        W37946  17.276  14.175   2.118 -0.1462  0.0403  0.1269
21473W        W37947  15.585   7.546   3.441 -0.3346 -0.2922  0.0245
21474W        W37948  13.594   9.974  14.600  0.1864 -0.1273 -0.2824
21475W        W37949   0.288  10.148   5.067 -0.2726  0.0060 -0.2369
21476W        W37950  18.000  12.934  12.933 -0.0225  0.2057 -0.2445
21477W        W37951  14.425  10.839   5.167  0.2224  0.1668 -0.2359
21478W        W37952   8.739   2.390  10.390  0.2307  0.1226  0.1287
21479W        W37953  10.037   1.148   1.183 -0.2926  0.1120 -0.1204
21480W        W37954   1.239   1.870  13.499 -0.0517  0.0088  0.1871
21481W        W37955  14.138   1.038   0.400  0.1714 -0.1244  0.0809
21482W        W37956  16.587  16.399  12.477 -0.0639  0.0955  0.0729
21483W        W37957  13.843  14.304   1.119  0.0770 -0.0336 -0.0936
21484W        W37958  14.411   3.754  13.160  0.0203 -0.1111 -0.0858
21485W        W37959   5.126   6.406   2.879  0.0702  0.1007  0.1136
21486W        W37960  17.914  17.079   4.909  0.2458  0.4686 -0.0113
21487W        W37961  14.167   0.037  12.335  0.0303  0.1129  0.0702
21488W        W37962   7.715  11.883  15.314 -0.0172 -0.4110 -0.0674
21489W        W37963   1.521  11.672  16.246 -0.3302  0.2950 -0.0235
21490W        W37964   6.350  12.088   5.888  0.0586 -0.0615  0.4763
21491W        W37965  12.276  15.759  14.390 -0.1101  0.1690 -0.1483
21492W        W37966   4.738  17.986   3.934 -0.0076 -0.0530  0.0345
21493W        W37967  17.357   8.395   3.272  0.2202  0.0922  0.1932
21494W        W37968   6.286  17.470  13.367 -0.1427 -0.1807  0.0436
21495W        W37969  12.379   3.524  16.207 -0.1450  0.1849  0.2255
21496W        W37970   1.500  17.533  16.305 -0.0717 -0.1772 -0.0929
21497W        W37971   2.466  12.223  12.472 -0.0614 -0.5142  0.0768
21498W        W37972  18.255   1.771   1.174 -0.2930 -0.1482 -0.0158
21499W        W37973  10.434  10.338  11.646  0.0075  0.1588 -0.0261
21500W        W37974  16.846   1.927  14.822  0.0342  0.1664  0.2055
21501W        W37975  17.280   4.236   3.681  0.0406 -0.2724  0.2406
21502W        W37976   6.991   5.715   2.524 -0.2131  0.1808 -0.2259
21503W        W37977   7.511   8.450  14.764  0.2436 -0.0444 -0.3164
21504W        W37978   7.936  12.740   6.123 -0.0010  0.1874 -0.1154
21505W        W37979  16.826   1.294   2.591 -0.2724 -0.1487 -0.2611
21506W        W37980  16.716  17.182   3.360  0.1319  0.0905  0.1460
21507W        W37981  17.803   4.362  13.847  0.3351 -0.0103  0.0179
21508W        W37982  16.186  14.978  11.918  0.2403  0.1311  0.2352
21509W        W37983   7.950  15.488  14.799 -0.2396 -0.0929 -0.0816
21510W        W37984   9.720  13.866   0.862  0.1771 -0.1868 -0.2626
21511W        W37985  14.158   2.128  12.320 -0.4785 -0.1614  0.1280
21512W        W37986  11.693  10.781   3.695  0.1583  0.1500 -0.1698
21513W        W37987  15.722  15.189  12.090 -0.0227  0.0638  0.0675
21514W        W37988  16.782   9.565  11.575 -0.0571 -0.1459 -0.1921
21515W        W37989   4.062   6.298  13.534  0.0266  0.2818  0.3166
21516W        W37990   3.491  15.863  13.296 -0.1601  0.1371 -0.0057
21517W        W37991   0.756  14.296   2.657 -0.1283 -0.0478  0.0472
21518W        W37992  16.812  10.678  13.833  0.1617  0.0342 -0.0235
21519W        W37993   7.028   2.605  13.058 -0.1571 -0.0179 -0.0448
21520W        W37994  17.961   4.247   4.533  0.2028  0.2917 -0.0307
21521W        W37995  10.750   8.186   1.441 -0.3008  0.0569  0.2500
21522W        W37996  10.613   9.222  14.729  0.1984 -0.1905 -0.0512
21523W        W37997  15.919   1.217   1.560  0.0104  0.0134 -0.0323
21524W        W37998   9.469  10.464  12.668 -0.1323 -0.1520  0.0613
21525W        W37999  11.347  11.679   3.728 -0.1232 -0.1220 -0.2044
21526W        W38000   9.685   4.923   4.229  0.0623  0.3406  0.1372
21527W        W38001  14.261  10.724   3.258 -0.1531  0.0579  0.0778
21528W        W38002  14.295   8.362  15.563 -0.1114 -0.1549 -0.0580
21529W        W38003  16.517   5.046   0.778 -0.3349 -0.0201  0.1627
21530W        W38004   8.800  13.563  13.628  0.3832 -0.1696 -0.2145
21531W        W38005   9.671   5.637   3.640  0.1433 -0.2775  0.3001
21532W        W38006  14.728  10.657  14.745  0.0611  0.0444  0.0148
21533W        W38007  10.143   5.565  14.013 -0.0915  0.0868 -0.1783
21534W        W38008  11.290   0.322   1.734 -0.1749 -0.0739  0.2436
21535W        W38009  11.793   0.735  15.528 -0.0510 -0.0524 -0.0102
21536W        W38010   9.761  12.786   3.694  0.0841  0.0221 -0.2269
21537W        W38011   4.593  15.776   0.194  0.3634  0.2704 -0.3624
21538W        W38012   8.400   9.097   1.987 -0.0420 -0.0727  0.0816
21539W        W38013  14.686  11.449  13.977  0.1805  0.1651  0.2077
21540W        W38014   6.705  16.600   2.068 -0.0051  0.1486 -0.4880
21541W        W38015  12.254  17.682   3.081  0.0595  0.0325 -0.1226
21542W        W38016  12.249   7.169   0.661  0.2619 -0.4118  0.2530
21543W        W38017   6.536  12.549   1.890 -0.1198  0.3852 -0.1135
21544W        W38018  15.370  12.374  14.646 -0.0459  0.0725 -0.1891
21545W        W38019  13.984  17.426   0.594  0.1551 -0.0455  0.1301
21546W        W38020   6.407  12.942   2.560  0.0536 -0.1112 -0.0103
21547W        W38021  11.973   1.674   0.135  0.1464  0.3277  0.0371
21548W        W38022   6.074   1.708   3.911  0.0488  0.0523  0.0970
21549W        W38023   1.571  15.869  12.491  0.2194 -0.0372  0.1932
21550W        W38024   0.835   7.078  15.705  0.3072  0.2607  0.0520
21551W        W38025   1.310   9.686   3.238 -0.1316  0.1892 -0.2539
21552W        W38026   8.017  10.434   1.291  0.1980 -0.1162 -0.0562
21553W        W38027  12.625  13.435   1.319 -0.1378  0.0033 -0.2726
21554W        W38028  12.561   0.913   3.502  0.0121 -0.0495 -0.2365
21555W        W38029   5.205  12.602   3.859 -0.1894  0.0309  0.0889
21556W        W38030  14.435  18.212   2.491 -0.0123 -0.3211 -0.0054
21557W        W38031  16.996  12.161   1.971  0.0285  0.0938  0.0928
21558W        W38032   6.906   3.048   1.421  0.3034 -0.1694  0.0119
21559W        W38033   4.230  12.146   1.775 -0.2670  0.0045 -0.1289
21560W        W38034   6.371   4.862  15.372 -0.1938 -0.2815  0.1630
21561W        W38035  11.998   2.114   1.778 -0.0153 -0.0482 -0.0733
21562W        W38036  14.820   9.524   2.933  0.0593 -0.2362  0.0831
21563W        W38037  12.135  14.536  16.121  0.3215 -0.1400 -0.1540
21564W        W38038   3.481   7.229  13.524 -0.0128 -0.0763 -0.0901
21565W        W38039  10.580   9.861   4.153 -0.1557 -0.2286  0.2174
21566W        W38040   1.003  12.143  12.167 -0.1988 -0.1481 -0.3425
21567W        W38041  10.655  13.053  16.098 -0.1647 -0.0905 -0.0656
21568W        W38042  13.715  14.610  11.996 -0.0054  0.2732  0.3021
21569W        W38043  18.112  17.588  15.054 -0.1104 -0.0931  0.4348
21570W        W38044  13.817  16.001   4.074  0.2768 -0.0494 -0.2207
21571W        W38045  15.923  12.938  14.765 -0.1749 -0.0796 -0.0098
21572W        W38046   3.845  15.031   4.394  0.0775  0.0516  0.3995
21573W        W38047   4.390   3.095  12.066  0.2831  0.2048  0.2694
21574W        W38048  14.603  13.165   0.765 -0.2573 -0.4182 -0.1189
21575W        W38049  10.323  15.331   4.441 -0.2771  0.3934  0.3145
21576W        W38050  14.052  15.927  13.629  0.1278  0.1459 -0.0143
21577W        W38051  16.796  15.883   3.962  0.1392  0.1201  0.1936
21578W        W38052   6.650   2.833  12.107 -0.2712 -0.0986  0.0902
21579W        W38053  15.096   6.637   3.266 -0.1256  0.0556 -0.1753
21580W        W38054   6.914   2.782   3.144 -0.0909 -0.2313 -0.0790
21581W        W38055  17.986   3.734  13.369 -0.1043 -0.1018  0.0289
21582W        W38056   1.846   8.441   5.403  0.0503 -0.1722  0.2632
21583W        W38057   2.989   2.829  13.915  0.1044  0.0323  0.0398
21584W        W38058  16.698  14.267   5.590 -0.1604  0.1796 -0.0432
21585W        W38059   1.045   9.003  12.495 -0.2856  0.1005 -0.0593
21586W        W38060  10.001  11.123   3.558 -0.1140 -0.1376 -0.0939
21587W        W38061  17.155   0.123   3.505  0.2093 -0.1824  0.1217
21588W        W38062   0.040  10.801   4.283  0.3836  0.0958  0.2554
21589W        W38063   7.560   0.700   4.923  0.0327 -0.2233 -0.1588
21590W        W38064   8.363   1.362  12.437  0.0082  0.1957  0.1680
21591W        W38065   8.978  10.369  12.175 -0.1563  0.0310 -0.1793
21592W        W38066   7.355   0.165   2.128  0.2209 -0.1156 -0.0508
21593W        W38067  15.856  13.935   5.078  0.1211 -0.0282  0.0995
21594W        W38068  14.258  15.108   5.248 -0.1817  0.3273  0.0129
21595W        W38069   5.089   9.473  12.158  0.0177  0.0190 -0.2998
21596W        W38070   9.677   8.906  13.940 -0.2494  0.0991  0.2609
21597W        W38071  18.286  11.034  12.169  0.0230 -0.0814 -0.0898
21598W        W38072   8.548   3.428  15.676 -0.0854 -0.2056  0.2171
21599W        W38073  14.808  15.560   0.572  0.3043  0.0771 -0.3230
21600W        W38074   2.054   2.630   2.299 -0.0778  0.0867  0.3225
21601W        W38075  17.075  12.119   0.596 -0.2770 -0.1318  0.0657
21602W        W38076  17.772  15.453  11.214  0.1555 -0.3222 -0.0826
21603W        W38077   1.192  15.172  11.803  0.1608 -0.0730 -0.1473
21604W        W38078  18.171   7.818   4.773 -0.2142  0.1525  0.4906
21605W        W38079   2.305   1.816  12.742  0.3699 -0.2436  0.0061
21606W        W38080  16.057  11.644  13.983 -0.1886  0.0811 -0.2872
21607W        W38081  12.521   6.772   2.567 -0.0226  0.1002  0.0741
21608W        W38082  12.599   6.924   4.896  0.1594  0.1821 -0.0323
21609W        W38083   9.579   9.074   1.414 -0.2502  0.2487  0.2697
21610W        W38084  15.059   0.548  14.348 -0.1639 -0.2257  0.1127
21611W        W38085   7.161   9.343   0.222 -0.1338  0.1580 -0.4433
21612W        W38086   2.851   8.026   4.153  0.0296  0.1798 -0.0218
21613W        W38087   2.488   1.350   1.962  0.1256  0.0210  0.1670
21614W        W38088   8.094   0.300   0.262  0.1390 -0.0383  0.0742
21615W        W38089   9.681   6.054  14.843  0.2090  0.0436  0.0195
21616W        W38090   8.529  16.451   4.609 -0.1094  0.2856 -0.0779
21617W        W38091   9.148   3.429   0.533 -0.0595  0.1635 -0.0186
21618W        W38092  12.655   7.341   3.229 -0.0216  0.4171 -0.3628
21619W        W38093   8.691  10.233  13.738 -0.0521  0.0450  0.1197
21620W        W38094   0.756   9.833  12.793  0.0966  0.0841  0.1002
21621W        W38095  16.565   9.672  13.689 -0.0186 -0.3026  0.1447
21622W        W38096  16.369   1.158   2.442  0.0006  0.2089 -0.2424
21623W        W38097  10.515  14.132   3.803 -0.0265  0.2688  0.3092
21624W        W38098   4.588  15.664   2.905  0.1702  0.1534 -0.0157
21625W        W38099  16.949   2.996   0.283 -0.2457  0.1679  0.1844
21626W        W38100   3.628  12.192  14.686  0.2775  0.0566 -0.3127
21627W        W38101  11.475  16.209   4.668  0.2717 -0.0496  0.6153
21628W        W38102   0.296   0.180  11.114  0.0946 -0.0098 -0.1375
21629W        W38103   9.864   5.339   2.415 -0.1372 -0.0683 -0.2854
21630W        W38104  17.026  12.944   0.308 -0.2139  0.2519  0.1550
21631W        W38105   0.228  13.761  13.696  0.3011 -0.1583 -0.3669
21632W        W38106  17.844  11.727   5.972  0.1485 -0.2156  0.2831
21633W        W38107   8.487   3.369  14.235  0.1276  0.0288 -0.2576
21634W        W38108  13.194   1.397  15.168 -0.0197  0.0348  0.0492
21635W        W38109   8.627  13.678   1.448  0.0771 -0.0076  0.1652
21636W        W38110  15.113   8.391   1.465 -0.1149 -0.2644  0.1311
21637W        W38111  11.321  15.319   5.780 -0.2012  0.0207  0.2426
21638W        W38112   6.533  16.470  11.841 -0.2542  0.0664  0.1228
21639W        W38113   3.643  18.172  11.955 -0.1411 -0.1387  0.1752
21640W        W38114   9.389   1.859  14.412 -0.0513  0.0424 -0.0646
21641W        W38115  13.775   5.622   1.820 -0.2481 -0.0712 -0.2566
21642W        W38116   2.565  15.569   4.983  0.1794  0.1299 -0.2104
21643W        W38117  11.813   5.856   0.973  0.2481 -0.1420  0.0648
21644W        W38118   7.143   4.494  11.434 -0.0570 -0.0818  0.2483
21645W        W38119  16.241   9.239   0.693  0.1886  0.3841  0.0250
21646W        W38120  12.124  13.379   1.127 -0.1602  0.1853 -0.4139
21647W        W38121   2.051   2.896   1.837  0.0838  0.0921  0.3146
21648W        W38122   2.840  18.277   2.203 -0.0147  0.0711  0.2539
21649W        W38123  10.484  14.950  13.521 -0.1771 -0.0698  0.0452
21650W        W38124   5.509   8.659   2.437  0.0837 -0.1128 -0.4278
21651W        W38125  17.172   8.173   0.321  0.0781  0.0551  0.0691
21652W        W38126  16.846  18.328   2.068  0.4813 -0.3097 -0.0608
21653W        W38127  11.472  13.696  14.830  0.1198 -0.0717 -0.1529
21654W        W38128   8.522  13.389  12.742 -0.0866 -0.3673  0.3167
21655W        W38129   3.089   1.250  12.326  0.3008  0.3257 -0.2988
21656W        W38130   6.125   5.256  13.791 -0.2607 -0.0414 -0.0315
21657W        W38131  12.833   5.732   3.136 -0.1166  0.1626  0.1251
21658W        W38132  11.825  17.637   4.441 -0.1324 -0.1983 -0.0584
21659W        W38133  12.207   5.408  12.441 -0.2299 -0.2296 -0.1449
21660W        W38134   7.384   4.049  11.693  0.0332  0.3022  0.2298
21661W        W38135  14.773   0.713  15.845  0.3014 -0.3525 -0.2646
21662W        W38136   2.067   7.724   3.114 -0.1269  0.2261  0.2422
21663W        W38137   7.654   6.537  15.462 -0.0180  0.2708 -0.1146
21664W        W38138   2.162   0.231   3.540  0.0094 -0.0017  0.0800
21665W        W38139   3.618   6.776   0.038 -0.0173  0.1617  0.2492
21666W        W38140   7.375   4.006   2.127  0.3445 -0.1611 -0.2081
21667W        W38141   0.443   7.844   5.976 -0.2897  0.3025 -0.2265
21668W        W38142  13.870   5.026   2.216 -0.2397  0.0363  0.3087
21669W        W38143   3.170   3.120  12.182 -0.2901  0.1334 -0.5767
21670W        W38144   2.874  13.231   4.446 -0.0739  0.2398  0.1325
21671W        W38145   1.225  16.080   5.553  0.0027 -0.1882 -0.1382
21672W        W38146   9.776  11.462   5.288 -0.0328  0.2103  0.1158
21673W        W38147   2.728  10.931  16.230 -0.1022 -0.1084  0.0687
21674W        W38148  12.328  16.720  13.115 -0.0260 -0.3265  0.0139
21675W        W38149  10.156   9.444   0.972 -0.1457 -0.1795 -0.3095
21676W        W38150   4.544   2.565  11.991 -0.0780  0.1833 -0.2046
21677W        W38151   5.626   3.840  14.301 -0.1581  0.3746  0.1420
21678W        W38152  11.428   8.256   2.962  0.3122  0.0029  0.1527
21679W        W38153   8.689  16.832  13.630 -0.0557  0.2323 -0.0256
21680W        W38154  10.368   8.941   5.201  0.1086  0.0892  0.0279
21681W        W38155   5.181  12.282  15.270  0.4093  0.0778 -0.1984
21682W        W38156   0.454  13.502  14.551  0.0208  0.0341  0.0800
21683W        W38157   8.309  10.631  13.189 -0.1187 -0.0762  0.1404
21684W        W38158   1.446  13.456   0.666  0.5358 -0.2409  0.1142
21685W        W38159  10.544   5.918   0.067  0.1007 -0.0666 -0.1409
21686W        W38160   6.573  16.992   5.356  0.0418  0.2271 -0.3279
21687W        W38161  17.278   9.937   2.402  0.0801  0.2913  0.1735
21688W        W38162  14.344   0.172  13.411 -0.0750  0.2809 -0.1009
21689W        W38163  12.902  16.674   0.238  0.3325 -0.1276  0.0798
21690W        W38164   3.329   8.105   2.934 -0.1335 -0.0299  0.0872
21691W        W38165   5.360   0.596   4.610 -0.2157 -0.2611 -0.0832
21692W        W38166   4.931   5.252   0.352 -0.2338 -0.0320 -0.1074
21693W        W38167  16.548   8.528   3.947 -0.1112  0.1976  0.2620
21694W        W38168   3.188  16.065  14.975  0.1211  0.2260  0.0130
21695W        W38169   2.781   8.489   0.380  0.2238 -0.0563  0.0934
21696W        W38170  14.175   8.769  11.286  0.2860  0.1802  0.2212
21697W        W38171  14.208   3.363   1.040 -0.1453  0.0348  0.1219
21698W        W38172  16.956   0.611   0.689  0.1370 -0.1368  0.1360
21699W        W38173  18.262   5.081   4.059 -0.2393  0.0707  0.1555
21700W        W38174   7.509  13.789   3.024 -0.0918 -0.0168 -0.1771
21701W        W38175   8.521   9.628   2.103  0.0044 -0.0895  0.0422
21702W        W38176  12.207  14.519   5.897 -0.0320  0.2143  0.2008
21703W        W38177  18.321   8.679   2.098  0.1465  0.0399  0.1542
21704W        W38178   4.707  14.272   3.927 -0.2563  0.0907  0.1042
21705W        W38179   3.096   5.967   1.932 -0.0575 -0.3286 -0.1471
21706W        W38180  17.688   7.384  14.165  0.1893  0.0177 -0.0169
21707W        W38181  13.785  15.828  12.656 -0.0952 -0.0937 -0.1582
21708W        W38182   7.430   3.659   3.092 -0.4361 -0.0096 -0.1557
21709W        W38183   0.347   2.442   1.788 -0.4270  0.0277 -0.3438
21710W        W38184  17.296  15.730  15.144  0.1304  0.0129 -0.0899
21711W        W38185  13.461   5.909   4.952 -0.0719 -0.0390 -0.3117
21712W        W38186  10.856   2.152   4.342  0.1439 -0.3605  0.0308
21713W        W38187  10.882   8.226   2.752  0.1921  0.2016 -0.0466
21714W        W38188   3.373  16.262  14.580 -0.0857 -0.2012  0.2179
21715W        W38189   1.304   3.623   4.737  0.0718  0.1106  0.1955
21716W        W38190   7.538  18.285   0.711  0.0780 -0.1558 -0.1687
21717W        W38191  12.519  11.640   5.497  0.1788  0.2052 -0.1723
21718W        W38192   8.612  12.443   2.466 -0.0594  0.2039 -0.0416
21719W        W38193   5.574   3.409   3.504  0.0737 -0.2166 -0.3805
21720W        W38194   6.376  17.854   2.910  0.0390  0.2387  0.1938
21721W        W38195  15.128  14.384   3.561  0.0888  0.3021 -0.1845
21722W        W38196   4.863  14.417  12.599  0.2033  0.1857  0.3119
21723W        W38197  11.851   8.917   4.279 -0.0133  0.1399 -0.2222
21724W        W38198   2.899   9.345   5.476 -0.0601  0.0496  0.1271
21725W        W38199   5.409  17.852  14.564 -0.0423  0.1600  0.0514
21726W        W38200   0.750  14.727   5.547 -0.0535 -0.0412  0.1925
21727W        W38201   0.140   3.971   5.440 -0.1331  0.1203  0.0225
21728W        W38202   3.579   6.446   5.122 -0.1258  0.0791 -0.1405
21729W        W38203   3.898   3.360   5.094 -0.0948  0.0100 -0.0561
21730W        W38204   6.172  18.263   3.820 -0.0642 -0.0871  0.1137
21731W        W38205  15.815  10.382   5.033 -0.2370 -0.1507 -0.1020
21732W        W38206  13.572   3.447  14.293 -0.1375  0.0918 -0.0714
21733W        W38207  10.299   9.115  11.989  0.1053 -0.0702  0.1182
21734W        W38208   0.652   8.434  11.438  0.0111  0.0116  0.1745
21735W        W38209   8.845  14.376  12.046  0.1347  0.4974 -0.3621
21736W        W38210   7.183   4.483  15.596  0.1243  0.1519 -0.1256
21737W        W38211  15.558  11.936  15.361  0.3343  0.1397  0.1795
21738W        W38212  18.019   5.420  10.950 -0.0515 -0.0997 -0.1359
21739W        W38213  12.887   0.533   0.808 -0.1465 -0.1047 -0.0946
21740W        W38214   0.028   5.113   1.731  0.0918 -0.2574 -0.0164
21741W        W38215   8.055   2.046  14.025  0.0360  0.0973  0.5310
21742W        W38216   4.251  16.939   3.591 -0.2323  0.1638 -0.2022
21743W        W38217  15.230   5.261   5.196  0.0685  0.2569  0.0321
21744W        W38218   8.195   4.544   4.744  0.2506 -0.0887  0.0649
21745W        W38219   3.547   6.028   3.646  0.2568  0.0630 -0.4338
21746W        W38220   3.817  14.812   0.086  0.2536 -0.1657 -0.3381
21747W        W38221   8.829   5.134  14.689 -0.1115  0.0810 -0.2310
21748W        W38222  10.826  12.190  13.099  0.2267  0.0039  0.2051
21749W        W38223  10.720  11.147  14.477 -0.3618 -0.3103  0.1169
21750W        W38224  15.792  13.715  12.817  0.1438 -0.1595 -0.0755
21751W        W38225  13.616  10.015   4.731 -0.1947  0.1024  0.0955
21752W        W38226  13.395  13.939  13.663 -0.1184 -0.2723 -0.0176
21753W        W38227  17.451  14.031   3.098 -0.2471 -0.0327  0.3316
21754W        W38228  11.140  12.487   1.255  0.1379 -0.3169 -0.2223
21755W        W38229   8.443   5.537   1.310  0.0581  0.7881 -0.0071
21756W        W38230   2.225  10.093  14.253  0.0090  0.2558  0.3661
21757W        W38231   7.516  10.163  12.784 -0.1437 -0.0794  0.0170
21758W        W38232   2.806   0.790   4.689  0.2853 -0.0121  0.4718
21759W        W38233   2.357   2.879  15.067  0.1297  0.1209 -0.2496
21760W        W38234   0.723   7.683  15.719  0.1440 -0.1292 -0.0682
21761W        W38235  12.623  13.880  16.044  0.0129 -0.4099  0.0384
21762W        W38236  15.510   4.421   4.724  0.1128  0.0633  0.1236
21763W        W38237   3.317  13.230  12.479 -0.4931  0.2997 -0.3033
21764W        W38238   7.108   2.848  13.497 -0.2111 -0.3856  0.0453
21765W        W38239  14.249   6.340   3.104  0.3497  0.1233 -0.0143
21766W        W38240  14.782  10.339   1.831  0.2779  0.1317 -0.2837
21767W        W38241   0.877   7.114  12.560 -0.0025 -0.1323 -0.2480
21768W        W38242   6.802  18.020   4.527 -0.0064  0.0588 -0.0164
21769W        W38243  10.555   7.877  14.036  0.1394  0.2503 -0.1183
21770W        W38244  10.816   1.687   3.791  0.1470 -0.1299  0.3784
21771W        W38245   5.772   4.692  15.075  0.0229 -0.2470 -0.0508
21772W        W38246   4.855   6.012  15.414  0.0116  0.0730  0.0474
21773W        W38247  16.122   2.796   1.764  0.0760 -0.3989  0.0831
21774W        W38248  10.570   8.965   4.548  0.2245  0.0088 -0.1537
21775W        W38249  11.251  10.691  12.134 -0.2319 -0.1277  0.1640
21776W        W38250  16.552   8.958   3.336  0.0408  0.0319  0.0865
21777W        W38251   6.562   7.828   3.263 -0.0088  0.1535  0.1450
21778W        W38252  14.843   0.792   4.820 -0.0130 -0.1715 -0.3231
21779W        W38253   6.922   2.156  15.768  0.5225  0.1626 -0.0727
21780W        W38254  17.842   6.723   2.822  0.3579  0.5173 -0.0527
21781W        W38255  18.227   8.279  12.841 -0.2636 -0.1445  0.0439
21782W        W38256  13.339   1.914  15.930 -0.0387  0.3550  0.1203
21783W        W38257   1.806  10.895  15.725 -0.1293  0.0393  0.0980
21784W        W38258  14.026   7.890  15.459 -0.1325 -0.1233  0.0667
21785W        W38259   5.975  11.705   2.658 -0.3385 -0.0725 -0.1115
21786W        W38260   6.843   7.630   1.838 -0.0754 -0.2496  0.2468
21787W        W38261   8.601   3.459   1.997  0.0042 -0.1903  0.0336
21788W        W38262   6.745   8.191   1.882  0.1443 -0.1234  0.1315
21789W        W38263  14.508  14.587  14.166  0.2798  0.5643 -0.0218
21790W        W38264   5.711   2.876   0.747  0.0965  0.3828 -0.1097
21791W        W38265  12.143   9.599  15.705 -0.0157 -0.3135 -0.2636
21792W        W38266  15.382   3.103  14.027  0.1191 -0.1583  0.0273
21793W        W38267  15.166  10.446   0.070 -0.1256 -0.2395  0.1354
21794W        W38268   7.740   5.760   3.325 -0.0332 -0.1032  0.0447
21795W        W38269   0.622   6.323   3.384  0.2621  0.0374 -0.0205
21796W        W38270  13.358   7.795  13.683 -0.1047 -0.0089 -0.1607
21797W        W38271   6.278  11.539   0.165 -0.0750 -0.0350  0.1562
21798W        W38272   6.983   0.847  12.729 -0.1346  0.0051 -0.1381
21799W        W38273   0.313   4.800   2.268  0.1202 -0.1425  0.0279
21800W        W38274  15.836   4.388   3.530  0.0184 -0.2092 -0.0067
21801W        W38275   3.330   2.398   2.610  0.0078  0.1627  0.1020
21802W        W38276   2.005  15.060   4.468 -0.1467 -0.4259  0.0103
21803W        W38277  15.859   3.895   3.016  0.0684 -0.2431  0.0244
21804W        W38278  13.074   6.050  13.159  0.0416  0.1108  0.0171
21805W        W38279  14.763   0.199  12.958 -0.0467 -0.2055  0.0294
21806W        W38280   8.954   9.654  16.196  0.3019 -0.1674  0.1670
21807W        W38281   3.427  16.933   2.570 -0.3435 -0.0220  0.0610
21808W        W38282   9.271  15.342  14.222 -0.1280  0.1001  0.0180
21809W        W38283  10.549  18.117   3.499 -0.3521  0.0543 -0.0430
21810W        W38284  14.548  12.567   2.492  0.0345  0.1158  0.0722
21811W        W38285   2.468   3.644   4.165 -0.0054 -0.0612  0.3633
21812W        W38286   0.003   0.895  11.705  0.1704 -0.0023 -0.0147
21813W        W38287   0.117   5.147   5.448 -0.2379 -0.0633  0.3134
21814W        W38288  17.206  12.998  13.418  0.1847 -0.5773 -0.0732
21815W        W38289   7.343  16.435  13.415  0.1098  0.0041  0.1027
21816W        W38290   9.603  11.724  15.769  0.1655 -0.1131 -0.0756
21817W        W38291   0.512  13.734  16.044  0.2524  0.2312  0.1136
21818W        W38292  10.316   6.033  12.013  0.0146 -0.0731 -0.1244
21819W        W38293   2.143   6.052   3.935 -0.0064 -0.3340 -0.1792
21820W        W38294   0.643  11.282  12.918 -0.1671  0.0955  0.2193
21821W        W38295  12.504   0.773  12.175 -0.1349 -0.2203 -0.2654
21822W        W38296  15.190  10.941   0.752  0.1090  0.2943 -0.0751
21823W        W38297   1.515   4.549  11.179  0.1031 -0.1441 -0.0198
21824W        W38298  13.635   0.634  13.687  0.1232 -0.0495  0.0463
21825W        W38299  12.372   6.354   2.957  0.2058 -0.0216 -0.1278
21826W        W38300   8.337   3.455   3.825  0.0903  0.1325  0.0639
21827W        W38301  17.395  16.784   2.714  0.0765 -0.0773  0.3232
21828W        W38302   0.360  17.807   3.392 -0.0911  0.0116  0.3213
21829W        W38303   4.552  10.122  14.384  0.2248  0.0933  0.2778
21830W        W38304  10.986   6.814   2.837 -0.1060 -0.2368 -0.0870
21831W        W38305   3.707   6.700  13.510 -0.0970  0.0470 -0.0541
21832W        W38306  10.493  17.729  12.451 -0.0903  0.1768 -0.0435
21833W        W38307  16.380  15.943   4.282 -0.1341 -0.0569 -0.0322
21834W        W38308  17.587   2.455   1.051 -0.2228  0.1967 -0.0283
21835W        W38309   2.209  17.077  12.497  0.1668  0.2747 -0.1841
21836W        W38310   7.953  12.020   4.566  0.4487  0.3334 -0.0991
21837W        W38311  10.710  11.189   5.608 -0.0672  0.1035  0.1778
21838W        W38312   4.018   7.811  12.792 -0.1042 -0.1413  0.1203
21839W        W38313   2.112   2.038   3.586  0.0907  0.3652  0.0947
21840W        W38314  15.829  15.300  13.548  0.0203  0.1223  0.1108
21841W        W38315   0.575  12.912   1.892 -0.2265  0.4088  0.1261
21842W        W38316   0.963  13.821   2.871  0.0523 -0.3464 -0.2106
21843W        W38317   0.464  11.709  14.893 -0.1509 -0.1617  0.0904
21844W        W38318   2.562   9.412  13.546  0.0148  0.0394 -0.1094
21845W        W38319  16.928  10.913  13.287 -0.1111 -0.1087 -0.0137
21846W        W38320   9.637   7.761  11.522  0.0689 -0.0131  0.0027
21847W        W38321   2.092  11.792  14.974  0.0582 -0.0098 -0.2718
21848W        W38322   6.423   0.506  14.804 -0.1810  0.0146  0.0559
21849W        W38323   1.538  13.646   4.805 -0.2221 -0.0096  0.0453
21850W        W38324   4.118   2.192   3.154 -0.1266 -0.2585  0.0930
21851W        W38325   6.031  14.971   3.790  0.1270 -0.0909 -0.2681
21852W        W38326   3.720   2.660  16.234 -0.2776  0.0897  0.0953
21853W        W38327  10.610  10.252  13.323 -0.2852  0.1510  0.0028
21854W        W38328  17.843  14.502   4.912 -0.0639 -0.2120  0.0400
21855W        W38329  18.114   9.452   5.550  0.2222  0.0520 -0.0881
21856W        W38330   0.434  10.841   0.258  0.1354 -0.0312 -0.1047
21857W        W38331  17.954   5.366  14.501  0.1190  0.3868  0.3772
21858W        W38332  16.080   3.241  13.342  0.2176  0.3340 -0.0085
21859W        W38333   5.392   1.880   2.194  0.3132 -0.0094 -0.1407
21860W        W38334  14.635   8.178   0.948  0.0340  0.1342 -0.2511
21861W        W38335   8.639  12.878  12.997  0.0083  0.0192 -0.0257
21862W        W38336   9.549  18.310   5.322 -0.0503  0.1885  0.1449
21863W        W38337   6.350   9.942   6.454  0.0688 -0.1047  0.1923
21864W        W38338  13.538  17.246  11.645  0.0370  0.0132 -0.0855
21865W        W38339  17.064  17.190   1.145  0.0114  0.0084 -0.0220
21866W        W38340  17.134  15.712   4.775  0.1783  0.3406 -0.1112
21867W        W38341   6.170   3.921   4.125  0.2978 -0.3830  0.1546
21868W        W38342  12.669  15.786   4.925  0.0783 -0.0504  0.0963
21869W        W38343   9.348   3.224  15.954 -0.1002 -0.0154  0.0433
21870W        W38344   2.523   5.741  13.067 -0.1585  0.1071  0.1244
21871W        W38345  12.017  11.225   5.663 -0.0633 -0.2033  0.0612
21872W        W38346  18.241   5.820  14.540 -0.0231 -0.2724  0.0681
21873W        W38347   4.706  14.609   2.064  0.0176 -0.0578 -0.1681
21874W        W38348  13.781   9.015  11.739  0.0917  0.1970 -0.0898
21875W        W38349   3.587   7.578  12.973  0.0158  0.3777 -0.1052
21876W        W38350  17.636   5.475   1.665 -0.1794  0.1666 -0.0475
21877W        W38351   7.276   8.989   2.895  0.4907  0.0155  0.1238
21878W        W38352  16.005  13.452  10.139  0.1035  0.3516  0.0234
21879W        W38353  17.171  15.366   1.352 -0.1230 -0.3348 -0.1098
21880W        W38354   7.645   7.809  13.735  0.0501 -0.0376  0.1919
21881W        W38355   2.065  11.982  12.271 -0.0148  0.0319  0.1027
21882W        W38356   6.132   9.422  15.632 -0.0355 -0.4060  0.3858
21883W        W38357   4.984   1.200  15.501  0.0241  0.1024  0.1120
21884W        W38358  11.870  17.733   3.959  0.1230  0.0651  0.3410
21885W        W38359  12.105   2.857  11.438  0.3818 -0.1485  0.1180
21886W        W38360   1.574  11.947   1.301  0.1631  0.0132  0.1779
21887W        W38361  16.690  16.694   3.324 -0.2998 -0.0091  0.1605
21888W        W38362   0.037   4.154   5.902 -0.1360  0.0152 -0.0038
21889W        W38363   4.004  16.455   4.452 -0.3948 -0.0038  0.2985
21890W        W38364   3.099  14.110   1.266  0.1654  0.0122 -0.2099
21891W        W38365   2.093   0.669   2.510  0.3433  0.0082  0.2571
21892W        W38366  14.202   9.602   0.930  0.0052  0.0768 -0.0873
21893W        W38367   6.619   6.019  12.651  0.0340 -0.0251 -0.0635
21894W        W38368   4.976  18.170   3.071 -0.1391  0.0681 -0.2442
21895W        W38369   1.830   3.716   0.295 -0.1454  0.0705 -0.1569
21896W        W38370   4.122  11.670  13.315 -0.1313  0.1690  0.1093
21897W        W38371   9.044   7.175   3.960  0.1106  0.0324 -0.4223
21898W        W38372   9.827  15.224   3.746  0.2008 -0.2230  0.2386
21899W        W38373  13.259   6.841  12.851  0.1635 -0.2487 -0.1081
21900W        W38374   8.804   0.755  13.043 -0.1084  0.1517 -0.1723
21901W        W38375  17.203   1.760   1.471 -0.3837 -0.0452  0.2527
21902W        W38376   9.522   1.875   1.853 -0.1601  0.0460 -0.1886
21903W        W38377   6.073   9.749   1.183 -0.0868 -0.1408 -0.3929
21904W        W38378  13.013  11.184   2.815  0.2745  0.1462 -0.2171
21905W        W38379   7.960   3.505   0.892 -0.0674 -0.1435  0.0736
21906W        W38380  16.280  15.774   2.533 -0.1706 -0.3701 -0.1275
21907W        W38381   5.582   1.125  14.771 -0.1970 -0.0882  0.2007
21908W        W38382  13.638  13.028  13.439 -0.2587 -0.5124 -0.0089
21909W        W38383  11.572  14.797   3.416  0.2588 -0.0155 -0.0089
21910W        W38384   0.902   1.998   4.808  0.0465 -0.1717 -0.0327
21911W        W38385  14.833   8.737  13.763  0.1309 -0.0907  0.1986
21912W        W38386   4.219   5.255  11.224 -0.4220 -0.0002  0.0650
21913W        W38387  14.726  12.557  12.387  0.0061 -0.0361  0.2851
21914W        W38388  10.792  17.615  15.327  0.1307  0.0824  0.0209
21915W        W38389   2.698  13.433  16.242  0.0745  0.1032  0.3788
21916W        W38390   2.867   3.497  12.961  0.0704  0.0720 -0.5416
21917W        W38391   7.252   1.396  11.602  0.2549  0.0715 -0.1254
21918W        W38392  10.229  13.446   4.657  0.2476  0.0425 -0.1049
21919W        W38393   6.776  13.890  16.115  0.0928 -0.1090  0.2814
21920W        W38394   6.110  13.807  13.615 -0.1917  0.0318 -0.1273
21921W        W38395   3.428  15.202  14.106 -0.0157  0.0090  0.1378
21922W        W38396   1.184  12.151   5.012 -0.0908 -0.0535  0.0304
21923W        W38397  18.090   0.418   4.754  0.1127 -0.0855  0.0907
21924W        W38398  15.113   0.446   3.315 -0.2060 -0.1079  0.0714
21925W        W38399   4.348   7.282   0.249  0.1047 -0.0748  0.0525
21926W        W38400   0.261   7.297   1.685 -0.0482  0.1455 -0.0075
21927W        W38401  17.654   8.553   1.198 -0.0415  0.1051  0.3199
21928W        W38402   2.339  18.107   1.971  0.1617 -0.0790  0.1559
21929W        W38403  18.109   1.211   2.533 -0.4387 -0.1035 -0.1943
21930W        W38404  15.310   8.785   3.040  0.0359  0.0702  0.0065
21931W        W38405   7.936  14.681  14.203 -0.0240 -0.1023  0.1564
21932W        W38406  18.113   0.371  11.535 -0.2507  0.2480  0.0919
21933W        W38407  14.865   9.205  13.129  0.2058  0.1452 -0.3909
21934W        W38408   5.097  13.558  14.175 -0.0366  0.2920 -0.1640
21935W        W38409  17.476  15.452   2.252 -0.0387 -0.0800  0.0047
21936W        W38410  12.890   1.876  12.765 -0.1048  0.0699  0.1436
21937W        W38411  11.129   3.838   3.811 -0.0113 -0.3288  0.2763
21938W        W38412  12.278  17.109  14.109 -0.2131 -0.0377  0.1516
21939W        W38413   3.765  15.162  14.549 -0.0832 -0.0192  0.0657
21940W        W38414   0.656  14.442  14.155  0.1215  0.1215 -0.3149
21941W        W38415   9.711   8.393   3.510  0.1453 -0.1657  0.1548
21942W        W38416  15.756  17.354   1.707 -0.0947 -0.1511  0.2291
21943W        W38417   8.370   4.529  12.478  0.1722  0.1659 -0.1391
21944W        W38418  14.281   8.590   1.738 -0.0344 -0.2130 -0.0178
21945W        W38419  15.536   1.449  11.653  0.0130  0.1205  0.3340
21946W        W38420   9.950  11.235  13.926 -0.0285  0.2580  0.2181
21947W        W38421  11.902   7.592   4.605  0.1669 -0.3106 -0.0001
21948W        W38422   3.916  17.864   1.664  0.0093 -0.0451  0.1032
21949W        W38423   0.343  11.715   4.508 -0.0559  0.0743 -0.0832
21950W        W38424  17.389   4.437   0.563 -0.0568  0.3060  0.1362
21951W        W38425  12.750   0.482   3.307 -0.0426  0.0866  0.2428
21952W        W38426   0.524   8.077   1.205  0.1481  0.0423 -0.0014
21953W        W38427  10.307   8.308  14.269 -0.0378  0.0582 -0.0111
21954W        W38428  15.810  15.729  12.753  0.0089 -0.0692  0.3075
21955W        W38429   5.882  14.182   4.768  0.1740  0.0889 -0.0857
21956W        W38430   4.536  14.404   2.538 -0.1086 -0.0296 -0.0382
21957W        W38431   8.626  14.395  14.981  0.1904 -0.1244  0.0212
21958W        W38432  15.200  14.651   2.708 -0.0063 -0.0504  0.2314
21959W        W38433   2.195  14.803  13.085 -0.0104  0.3608  0.1211
21960W        W38434   2.467  14.615   3.387 -0.0213 -0.1497 -0.0892
21961W        W38435  17.668   2.829  12.443 -0.0318 -0.2128  0.0522
21962W        W38436   7.036  15.100  12.416  0.2849 -0.3508  0.2644
21963W        W38437   1.526  10.958   5.066  0.4004  0.1002 -0.2161
21964W        W38438   7.695   3.319   1.751 -0.1671 -0.3425 -0.1589
21965W        W38439   2.683  12.501   1.490  0.1587  0.0134  0.0971
21966W        W38440  12.669   3.839   2.791 -0.0842 -0.1856 -0.0038
21967W        W38441  11.219  18.247   2.085  0.0458 -0.1403 -0.2746
21968W        W38442  10.926   1.419   0.770 -0.4418  0.3110 -0.0853
21969W        W38443  14.439   6.019   3.976 -0.0926 -0.1506 -0.0206
21970W        W38444   9.996  16.565   0.402  0.3783 -0.1547 -0.1022
21971W        W38445   7.949  12.126  13.591  0.3668 -0.0294 -0.1650
21972W        W38446   6.501  15.107  12.484  0.0177  0.0826 -0.1289
21973W        W38447   7.668   3.134  14.725  0.0449 -0.1904  0.0926
21974W        W38448  17.377  18.197   5.595 -0.0596 -0.2338  0.2180
21975W        W38449   8.974   5.065  16.013 -0.2558 -0.3392  0.2858
21976W        W38450  13.142   5.253  13.879  0.1491 -0.2358 -0.0923
21977W        W38451   4.021   2.084   4.601 -0.1541  0.1468  0.1487
21978W        W38452  14.101   3.623   2.189  0.1174  0.0949 -0.0739
21979W        W38453  17.203   9.922   1.470 -0.2612 -0.1082  0.1861
21980W        W38454   5.795  14.134   5.296  0.3309 -0.3504 -0.2184
21981W        W38455   9.387  10.403  15.042 -0.0447  0.0066 -0.0059
21982W        W38456   6.644  13.453   4.505  0.4480  0.1109  0.1728
21983W        W38457   1.238  13.601   2.528 -0.2243 -0.2359  0.0726
21984W        W38458  11.173  10.865  14.639  0.0035  0.0360  0.2881
21985W        W38459   4.808   1.966  12.420  0.1495  0.0198 -0.1636
21986W        W38460   9.547  13.150   5.667  0.0707 -0.0693 -0.2338
21987W        W38461   8.594  14.650   1.456 -0.0031 -0.1015 -0.4450
21988W        W38462   5.061   5.819  11.617 -0.0185  0.0128  0.1867
21989W        W38463  17.300  10.450  11.910  0.2800  0.0385 -0.0436
21990W        W38464   7.781  11.870   3.344 -0.0866 -0.0973  0.0886
21991W        W38465  11.421   7.015  15.093 -0.0710  0.0643  0.2493
21992W        W38466   1.350   7.138  11.567  0.1585 -0.0006 -0.1237
21993W        W38467  10.973   4.466   3.948 -0.3282  0.0943  0.1736
21994W        W38468  15.481  17.191   2.402  0.0478  0.0692 -0.2485
21995W        W38469  14.311   2.877   2.124 -0.1634  0.0324 -0.1645
21996W        W38470  11.163   7.364   3.696 -0.3693 -0.1343 -0.0693
21997W        W38471   6.890   6.453  12.625  0.0734  0.2975  0.0064
21998W        W38472  10.630  13.664   4.548 -0.2578  0.1336 -0.1685
21999W        W38473  14.338   9.410  13.925  0.0535 -0.0559 -0.1604
22000W        W38474   2.659  14.479   1.529 -0.0748  0.2204  0.2053
22001W        W38475   6.457   9.662  12.635  0.7038  0.1903 -0.3659
22002W        W38476  14.481  16.677   1.699  0.1858  0.2172 -0.0485
22003W        W38477   3.274   5.185  14.589  0.0772 -0.0763  0.0077
22004W        W38478  12.155  18.044   4.233 -0.0499  0.2394 -0.1117
22005W        W38479   5.984   0.123  11.545 -0.0335 -0.0560 -0.0564
22006W        W38480  16.684  16.763  15.639 -0.1089  0.2263 -0.0224
22007W        W38481  18.261   1.749  12.147  0.0648 -0.2794  0.1220
22008W        W38482   8.335  16.967   3.785 -0.1226 -0.2098 -0.1541
22009W        W38483   6.599  16.852   2.901  0.2160 -0.2529  0.0212
22010W        W38484   8.800   3.401   4.056  0.0290 -0.3187  0.0054
22011W        W38485  15.458   9.832  11.645 -0.1783  0.0045  0.1439
22012W        W38486  15.958   0.853  12.249 -0.0322 -0.0690 -0.0137
22013W        W38487  14.781  12.128   4.354  0.1944  0.1289 -0.0107
22014W        W38488   4.634   0.985   3.520  0.1085  0.1258 -0.2441
22015W        W38489   4.744  12.574   2.528  0.2016  0.0671 -0.2156
22016W        W38490   5.973  10.709  13.533 -0.1282  0.0223  0.0191
22017W        W38491   3.303   0.739   2.163  0.2492  0.0905 -0.2473
22018W        W38492  15.939  14.657  15.285  0.1653 -0.2059 -0.0738
22019W        W38493  13.344  14.481  14.580 -0.0433  0.1068 -0.2102
22020W        W38494  10.703   8.920   3.357  0.0118  0.1651 -0.0562
22021W        W38495   5.253   5.943   4.437  0.0255 -0.2968 -0.1280
22022W        W38496  16.380   9.825   0.526  0.2473  0.1971  0.0043
22023W        W38497   6.269   8.146   5.667  0.1430 -0.1494  0.1848
22024W        W38498   6.527  16.058   1.892 -0.1287 -0.0402  0.1541
22025W        W38499   9.170  11.086   4.151  0.3678 -0.0734 -0.1108
22026W        W38500  13.261   6.157   0.497 -0.2935 -0.1691  0.3173
22027W        W38501  15.935   8.685  14.691  0.2171 -0.3755 -0.1751
22028W        W38502  15.950   2.177   0.858 -0.0835 -0.0000  0.1249
22029W        W38503  17.233   4.657   4.670  0.0015 -0.2188 -0.1384
22030W        W38504  10.583  16.171  15.819 -0.0461 -0.1042 -0.3680
22031W        W38505  17.786   6.108   1.963 -0.2286  0.1403  0.0301
22032W        W38506   2.721  16.021  15.302  0.0393  0.0216  0.1458
22033W        W38507  15.672   1.137  14.725  0.0009 -0.1206 -0.0149
22034W        W38508   7.438   7.387   3.070  0.1729 -0.1432  0.1730
22035W        W38509  17.699   2.623  13.833 -0.0035  0.1517  0.2857
22036W        W38510   0.544   2.768  11.510  0.0561 -0.3462 -0.1633
22037W        W38511   1.686   4.103   0.612  0.2971 -0.1808  0.0627
22038W        W38512   5.057  10.568   0.940 -0.0017 -0.1130 -0.0114
22039W        W38513  15.807  11.658   2.614 -0.1899 -0.0209 -0.1421
22040W        W38514   4.856   0.289   1.528 -0.0967 -0.1400 -0.0456
22041W        W38515  11.690   2.527   1.773  0.0077 -0.0748  0.1338
22042W        W38516   4.164   9.837   1.919 -0.1169 -0.0920  0.1488
22043W        W38517   5.894   7.554  15.782  0.1092 -0.0179 -0.0205
22044W        W38518   7.083   5.312  15.097  0.2418 -0.1008 -0.3746
22045W        W38519   3.180  17.169   2.940  0.0733  0.1163  0.0848
22046W        W38520  13.057  12.030  14.981  0.0536  0.0593  0.1254
22047W        W38521   1.340  15.709  15.687  0.2514 -0.0373 -0.1210
22048W        W38522  11.674   0.874  11.905 -0.0543 -0.2300 -0.2175
22049W        W38523  16.891  16.063  14.058 -0.0929  0.1694 -0.0983
22050W        W38524  17.909  11.248  16.158  0.1189  0.0383  0.0161
22051W        W38525   5.139  15.274   6.217 -0.0180 -0.2868 -0.1211
22052W        W38526   6.261  14.691   4.086  0.3396  0.4011  0.2381
22053W        W38527  11.416  16.460   3.786  0.2341 -0.1601 -0.2817
22054W        W38528   4.260   0.670  13.972 -0.0735  0.0271  0.3184
22055W        W38529  10.437   5.398  11.558  0.0772  0.2406 -0.0907
22056W        W38530   0.653  11.019  16.041  0.2178 -0.1916 -0.1065
22057W        W38531  13.507   3.800  13.943 -0.3081 -0.1717 -0.0323
22058W        W38532  13.680   0.595   4.852 -0.0120 -0.0390 -0.1135
22059W        W38533   1.349   3.797   0.288 -0.0461  0.1553 -0.2056
22060W        W38534   8.096   4.465   1.978  0.0925 -0.0417  0.0074
22061W        W38535   2.034  12.286  14.769 -0.1379  0.3426  0.1729
22062W        W38536  13.427   7.514   2.689 -0.1672 -0.1502 -0.2531
22063W        W38537  11.280   3.545   5.024  0.2680  0.1579  0.1758
22064W        W38538   4.650  16.210   5.007  0.0209 -0.2510 -0.1151
22065W        W38539  13.941  13.557   5.334 -0.3424  0.0045  0.0626
22066W        W38540   6.131  11.168   2.025 -0.1301  0.0698 -0.1940
22067W        W38541  14.966   1.935  15.912 -0.1027 -0.1321 -0.0596
22068W        W38542  12.372   0.093   0.990  0.0627  0.2192 -0.1202
22069W        W38543   3.234  17.698  12.003 -0.0045  0.3223 -0.1972
22070W        W38544   4.524  11.776  13.761  0.1949  0.1161  0.0588
22071W        W38545   9.221   2.973   0.502 -0.0868  0.1395 -0.0465
22072W        W38546   4.494  16.340  14.105 -0.3026 -0.0529  0.0745
22073W        W38547  12.320   2.020   2.132  0.2674  0.3630 -0.2572
22074W        W38548  11.408  15.536   2.879 -0.2271 -0.0737  0.0767
22075W        W38549  16.883   5.814  10.399  0.2041  0.2476 -0.1748
22076W        W38550   3.983  14.355  12.635 -0.1390 -0.2855  0.1281
22077W        W38551  15.278   9.410  11.637  0.1350 -0.2009  0.2630
22078W        W38552  11.879   6.178   2.810 -0.2870  0.0644  0.0048
22079W        W38553   3.076   8.195   5.636  0.0269 -0.2097  0.0218
22080W        W38554  12.248  10.985   1.838 -0.2473  0.1920 -0.0159
22081W        W38555  16.711   2.905   0.753  0.0745 -0.0848  0.3882
22082W        W38556   3.462  12.750  15.650  0.2313 -0.1685  0.0940
22083W        W38557   7.049  15.735   5.576  0.2699  0.0688 -0.4735
22084W        W38558   7.509   0.650   2.140  0.0363  0.1074 -0.1044
22085W        W38559   0.473   9.847   0.425  0.1921 -0.1375 -0.0520
22086W        W38560   4.945   4.715   1.851 -0.3058  0.2677  0.0436
22087W        W38561  10.828   8.788   2.828 -0.0002  0.2020 -0.2295
22088W        W38562  10.999   4.040  10.925  0.0284  0.0639 -0.0382
22089W        W38563  13.978  15.104   1.628 -0.1152 -0.4147 -0.0038
22090W        W38564   3.947  13.155  14.991  0.2955 -0.1131  0.2399
22091W        W38565  14.868   5.695  12.677  0.0318  0.0438 -0.0672
22092W        W38566   2.780  14.082  14.394 -0.2419  0.0349  0.0604
22093W        W38567   8.814   8.775   0.370 -0.1983 -0.0373  0.0218
22094W        W38568  12.326  10.227  13.344 -0.1673 -0.1399  0.0632
22095W        W38569   1.817   1.135   3.262 -0.1060 -0.0541 -0.2602
22096W        W38570   6.318   8.121   0.138  0.2265 -0.2080  0.1268
22097W        W38571   6.616   2.986  14.628 -0.1400  0.1250  0.1974
22098W        W38572   7.400   4.025   4.626  0.2176  0.1820 -0.1966
22099W        W38573   6.881  10.168  13.174  0.1514  0.0266  0.2790
22100W        W38574   0.588  11.228   2.221 -0.1357 -0.1506  0.2806
22101W        W38575   8.259   2.992   3.671  0.0732 -0.2938 -0.1735
22102W        W38576  12.027  11.600   5.272 -0.0819 -0.1549 -0.0045
22103W        W38577  16.382  13.853   4.975 -0.1463  0.0209 -0.0906
22104W        W38578  10.956  16.540   3.306 -0.4538  0.0807 -0.2353
22105W        W38579  16.712   0.582  15.056  0.1392  0.0005 -0.1770
22106W        W38580  11.468  13.211   4.943  0.0697 -0.6159 -0.1433
22107W        W38581  11.700  11.540   5.944 -0.1880 -0.2122 -0.2303
22108W        W38582  15.560  15.556   1.477  0.0568  0.2644  0.0023
22109W        W38583   8.273  13.816  15.785 -0.0820  0.0765  0.0936
22110W        W38584   9.953   6.151  12.836  0.0263  0.3068 -0.1364
22111W        W38585   0.193   9.671  13.755 -0.0949  0.2926 -0.2420
22112W        W38586   3.455   6.524   6.145 -0.1169 -0.1367 -0.2851
22113W        W38587   7.932   7.771   2.481 -0.0630  0.0560 -0.0155
22114W        W38588   7.688   9.128  13.708 -0.2067  0.2968 -0.1506
22115W        W38589   1.879  13.825   1.742 -0.2787 -0.1528 -0.2252
22116W        W38590   7.838  18.199   4.571 -0.1790  0.1150  0.0188
22117W        W38591   4.084   1.581  13.015 -0.1142 -0.0163  0.2194
22118W        W38592  13.575  13.886   3.972  0.2830  0.0630 -0.0883
22119W        W38593   5.714  10.446  14.770  0.0017  0.0414 -0.1876
22120W        W38594   1.809   0.482  13.987  0.0535 -0.0413 -0.2618
22121W        W38595   3.703  13.562   1.524 -0.1363 -0.4602 -0.1710
22122W        W38596  12.385   9.759  13.473  0.0375 -0.0343  0.0741
22123W        W38597   7.225   3.827  15.250  0.4565 -0.0734 -0.1264
22124W        W38598  14.309   2.963  12.554  0.0226 -0.2526  0.1587
22125W        W38599   0.959  10.931  14.149  0.0258  0.0525  0.1590
22126W        W38600   0.414   2.183   5.046 -0.0438  0.0618  0.0273
22127W        W38601   3.725  16.620  14.833 -0.1108  0.0388  0.2883
22128W        W38602   2.446   1.755  14.193 -0.0258  0.5703 -0.1047
22129W        W38603   9.409   0.793   0.533 -0.0174  0.1314 -0.1909
22130W        W38604  16.987   6.154   2.575 -0.0134  0.1682 -0.1215
22131W        W38605   7.150  17.687  14.458 -0.1277  0.0899  0.3479
22132W        W38606   7.672  11.411   4.902  0.0163  0.0678 -0.1161
22133W        W38607   3.681   2.904   3.772 -0.1165 -0.2500 -0.0539
22134W        W38608  16.913  11.404  13.378  0.0386 -0.1115 -0.1229
22135W        W38609  15.805   5.413   5.183  0.2412  0.2047  0.3836
22136W        W38610   0.780   3.752   1.253 -0.0312 -0.0730 -0.1693
22137W        W38611   1.356  15.093   4.983  0.3038 -0.1553 -0.0406
22138W        W38612  18.159  13.753  11.060 -0.0115  0.0639  0.2636
22139W        W38613   6.174   9.217   3.531  0.1548  0.1925 -0.3696
22140W        W38614  17.658  18.069   0.937  0.1183 -0.0073  0.2652
22141W        W38615   7.312  11.602  15.644 -0.0314  0.0287  0.1626
22142W        W38616  12.425   8.864  13.210  0.0889  0.2885  0.3904
22143W        W38617  17.715   3.840  14.514  0.0481  0.2244  0.0858
22144W        W38618   3.128  14.552   1.737  0.2614  0.1810  0.2964
22145W        W38619  16.354   4.571  14.982 -0.0534 -0.0078 -0.1734
22146W        W38620   1.350  16.546   0.036  0.0248  0.2380  0.2238
22147W        W38621  14.420   7.199   4.699 -0.0044 -0.0291 -0.2069
22148W        W38622   2.210   1.752   5.574  0.0810  0.2002 -0.0842
22149W        W38623  13.620  12.385  13.753 -0.3098  0.3166  0.2056
22150W        W38624   1.888  10.632  13.680  0.1639  0.0035 -0.2987
22151W        W38625  13.850   6.925  15.980 -0.0948 -0.1840  0.1149
22152W        W38626  13.559   0.856   6.244  0.1381  0.0209  0.0204
22153W        W38627  15.781  14.526  10.888  0.1632 -0.1941  0.2095
22154W        W38628  15.802   9.576  13.168  0.4495 -0.0055  0.0227
22155W        W38629   9.379   7.855   4.862  0.2391  0.0781 -0.0932
22156W        W38630   8.123  11.933  14.026 -0.1163  0.0807  0.0048
22157W        W38631   0.156  10.839  16.101 -0.1742  0.0187 -0.0314
22158W        W38632  13.909  10.372   4.592 -0.0668 -0.0201 -0.1156
22159W        W38633  14.493   5.367  15.187 -0.3395  0.0252 -0.0844
22160W        W38634   0.686  16.209  12.972 -0.2182  0.1983  0.4230
22161W        W38635  17.812   8.474  16.189 -0.0504  0.2148 -0.2095
22162W        W38636  16.518  11.168  11.415  0.2026  0.0187 -0.0343
22163W        W38637   2.425  10.467   4.387 -0.2949 -0.0302 -0.0154
22164W        W38638   0.165   7.520  15.817 -0.0551  0.3108  0.0059
22165W        W38639   9.330  11.062   1.087 -0.0936 -0.0100  0.0386
22166W        W38640  11.282  16.936   1.722  0.0899 -0.1328  0.2454
22167W        W38641   7.410  11.307   6.623  0.1177 -0.2824 -0.2292
22168W        W38642   2.610  12.627   0.465  0.1062  0.2358  0.3979
22169W        W38643   3.701   6.576  15.719  0.0282  0.2294 -0.1017
22170W        W38644  16.881  12.220  16.001 -0.1219  0.1469 -0.0587
22171W        W38645  16.675  12.967   6.006  0.1728 -0.0868  0.0393
22172W        W38646   5.680  17.564  11.422 -0.0414 -0.1776 -0.2502
22173W        W38647  14.523   3.242  15.427 -0.1042  0.0277  0.0752
22174W        W38648  18.121   2.844  13.085  0.2855 -0.1976  0.4569
22175W        W38649   5.231  11.480  14.579 -0.1243  0.0886 -0.1215
22176W        W38650  16.365  16.781   4.289 -0.5743  0.1106 -0.0165
22177W        W38651   5.969  16.510  13.807 -0.3045 -0.1296  0.1424
22178W        W38652   8.792  10.001  10.564  0.2298  0.0425 -0.0195
22179W        W38653   5.692   5.402   3.710  0.3320 -0.2011  0.1933
22180W        W38654   4.349  16.733  12.168  0.2815 -0.0734  0.1827
22181W        W38655  16.305   7.043  13.612  0.1941  0.0782 -0.0244
22182W        W38656   0.183   6.193   3.249  0.1933  0.2245 -0.1521
22183W        W38657   2.332   7.260  11.447  0.5241  0.0056 -0.1232
22184W        W38658  13.017  13.839  11.857 -0.1017  0.1666  0.0288
22185W        W38659  16.234   6.474   2.303  0.1784  0.0706 -0.1214
22186W        W38660  18.196  13.901  12.986 -0.1431  0.1373 -0.0065
22187W        W38661   4.399   1.704   3.099 -0.0105 -0.0812 -0.1134
22188W        W38662  13.977   9.065  10.363  0.3646  0.3104  0.2883
22189W        W38663   3.046  10.195   2.135  0.0689  0.0678  0.0113
22190W        W38664  17.709  12.094  12.623 -0.0389 -0.3213  0.0482
22191W        W38665   5.117  17.142  12.431  0.0525  0.0463 -0.2279
22192W        W38666   0.813  11.510   0.084  0.2642  0.2131 -0.2658
22193W        W38667   6.755   4.149   0.687  0.2109 -0.1712 -0.3592
22194W        W38668   7.644   8.357  14.294 -0.0343 -0.0060 -0.1721
22195W        W38669   9.103   1.007   0.863  0.0954  0.2809  0.2449
22196W        W38670  13.862  10.365   4.084  0.1149  0.0392  0.0615
22197W        W38671   8.134   8.719  15.967 -0.2703 -0.0548  0.0268
22198W        W38672  11.346   0.684  14.045 -0.0110  0.2845 -0.0903
22199W        W38673  16.019  13.699   2.460 -0.0799  0.2630 -0.2392
22200W        W38674  15.556   4.623  15.631  0.0021 -0.0987  0.2779
22201W        W38675  15.829  14.615   1.566  0.0792 -0.4299  0.2819
22202W        W38676  15.544  12.191  14.214 -0.2926  0.0155 -0.0142
22203W        W38677   3.424   3.269  14.336 -0.2874 -0.0416 -0.0799
22204W        W38678   0.158  13.833  14.733 -0.0212 -0.1700  0.2183
22205W        W38679  13.670   6.541  15.021 -0.4672 -0.0853 -0.2808
22206W        W38680   9.645  14.856   2.922 -0.3037  0.1929 -0.0296
22207W        W38681  12.692  10.116   1.827  0.0660 -0.0852  0.2907
22208W        W38682  16.688   1.843  15.696 -0.0334  0.1039 -0.0144
22209W        W38683  12.304   1.500   0.418  0.0834 -0.1905 -0.0403
22210W        W38684   2.738   5.172  15.307  0.0391  0.0536  0.0306
22211W        W38685   6.539  14.264  12.568 -0.1638  0.1377 -0.0617
22212W        W38686   0.972  10.934  14.732  0.1896  0.1009  0.0893
22213W        W38687   5.840   2.904   1.611  0.0725  0.0255  0.1664
22214W        W38688   2.259  17.794  13.611  0.2159  0.0283 -0.3875
22215W        W38689   7.957   2.716  10.948  0.1157 -0.0057 -0.4081
22216W        W38690   1.347  14.287  12.814  0.1638 -0.0127  0.0215
22217W        W38691   2.959   8.888   1.310 -0.2080  0.2988  0.1900
22218W        W38692  17.145  15.913  13.045  0.2988  0.1960  0.2510
22219W        W38693   7.037  12.032  10.399 -0.2203  0.3316 -0.3885
22220W        W38694   7.857   9.070   1.978  0.1244  0.1614 -0.3849
22221W        W38695  13.184  16.097   4.217 -0.1953 -0.0445 -0.2114
22222W        W38696  16.731   0.385   3.541 -0.1214  0.0441 -0.1685
22223W        W38697  10.513   5.157  15.950  0.2083 -0.1092  0.0202
22224W        W38698   7.623  15.794   0.809  0.0575 -0.0821 -0.2337
22225W        W38699   9.496   1.425  16.241 -0.1059 -0.2092  0.0574
22226W        W38700   3.389  14.948   3.065 -0.0233  0.0268  0.2805
22227W        W38701  17.711  18.020   2.153 -0.2793 -0.0073  0.0894
22228W        W38702  14.759  12.731   4.148 -0.3635  0.1485  0.0441
22229W        W38703   5.854   8.015   4.848 -0.0337 -0.1874  0.1039
22230W        W38704   8.118  15.646   6.333 -0.2190 -0.0111 -0.1235
22231W        W38705   9.716   0.642  14.742  0.1693 -0.0763 -0.0985
22232W        W38706   8.336  17.668   0.499 -0.2195 -0.1155  0.1781
22233W        W38707  10.241   2.304  11.363 -0.1673  0.0330  0.4083
22234W        W38708   8.253  16.885   4.787  0.2555  0.0592  0.0192
22235W        W38709   3.413  12.793   0.856  0.0749 -0.1065 -0.1408
22236W        W38710  16.868  13.698   2.905  0.1565 -0.0427  0.0838
22237W        W38711  13.448  11.215   3.573  0.0047  0.0901  0.1198
22238W        W38712  16.691  13.478  15.858  0.1370  0.0035  0.1119
22239W        W38713   4.738   0.519  12.828 -0.0147 -0.2405 -0.0084
22240W        W38714  14.573   2.447   0.232  0.1070  0.1609  0.1700
22241W        W38715  10.852   3.495  14.865  0.2348 -0.0159  0.1374
22242W        W38716   4.636   0.680   0.930 -0.0743  0.4075  0.1131
22243W        W38717   4.855  16.496   2.967  0.0233  0.0720  0.2238
22244W        W38718   4.119   5.436   2.454  0.1051 -0.1733 -0.0099
22245W        W38719  10.696   3.960  14.384  0.0056  0.3830 -0.0012
22246W        W38720   6.697   9.151  10.964  0.1158  0.2156 -0.2569
22247W        W38721  13.752  12.169  14.281 -0.0934  0.0308 -0.3427
22248W        W38722  13.730  11.960   1.838 -0.1822  0.1512 -0.1486
22249W        W38723   4.071  17.953  11.683  0.0202 -0.2359  0.0560
22250W        W38724  18.309   6.716  11.915 -0.1038 -0.0477 -0.0448
22251W        W38725   0.069  13.951   1.322  0.0101  0.2992 -0.1472
22252W        W38726   4.152  14.004   2.597  0.2163  0.0874  0.1472
22253W        W38727   1.311   7.291   5.527  0.0929 -0.1224 -0.2180
22254W        W38728   3.659  10.728  14.231 -0.0833  0.3283  0.0443
22255W        W38729   9.432  13.121   1.952 -0.1994 -0.0148  0.0980
22256W        W38730   8.109   7.519  13.609  0.4860  0.1172 -0.0011
22257W        W38731  16.113   7.835   4.327 -0.0525 -0.3018  0.1489
22258W        W38732   9.689   8.387   0.344  0.0605 -0.0738 -0.0652
22259W        W38733   8.002   5.315   1.523 -0.1700  0.0161 -0.0643
22260W        W38734   5.411   4.426   1.800  0.0198  0.2354 -0.0612
22261W        W38735   0.907   5.983  13.841 -0.0215 -0.1827  0.2079
22262W        W38736   1.771   8.502  15.198  0.2845  0.0853 -0.0511
22263W        W38737  13.322   0.255  13.038  0.1201  0.1656  0.0667
22264W        W38738  15.047  14.111  13.027 -0.2995 -0.0514 -0.1457
22265W        W38739  15.157   5.309  13.646  0.0423  0.1896 -0.0726
22266W        W38740  12.547  17.166   1.094 -0.0875 -0.2673  0.1281
22267W        W38741   7.574   8.667  13.926 -0.1642 -0.3336  0.2832
22268W        W38742  15.184   0.158   2.527 -0.1519  0.0374  0.2062
22269W        W38743   8.714   0.170   0.845  0.1347  0.0016 -0.0918
22270W        W38744  13.266   8.466  12.520  0.0648 -0.0550 -0.0731
22271W        W38745  14.923  11.191   2.401  0.1970  0.1341 -0.2433
22272W        W38746   1.817  11.698  13.620 -0.1167 -0.1253 -0.0545
22273W        W38747  12.199   3.138   0.273 -0.0725 -0.2834  0.0622
22274W        W38748   6.104  13.419  13.304  0.1769 -0.1904 -0.0543
22275W        W38749   5.001  13.294   4.832  0.2164 -0.0361 -0.0630
22276W        W38750  14.284   7.497   1.707 -0.1961  0.1038 -0.1957
22277W        W38751  14.466   9.991   1.123 -0.1370  0.0276  0.0647
22278W        W38752   8.980  16.301  13.512 -0.1783 -0.0072  0.2027
22279W        W38753  15.211   3.455   3.102 -0.3380  0.2052  0.1560
22280W        W38754   2.615   1.567  11.427 -0.2951  0.0406 -0.1647
22281W        W38755  12.265   4.542   2.608  0.2982 -0.0525 -0.0778
22282W        W38756   5.067   5.731   5.573  0.1150  0.0247 -0.1830
22283W        W38757   2.008  15.899   3.274 -0.0032  0.3117  0.0241
22284W        W38758  16.680  14.283  13.991  0.1028 -0.1076 -0.0854
22285W        W38759   9.050   1.209   3.829  0.0308  0.2753 -0.1817
22286W        W38760   3.057   6.755   2.750 -0.0526 -0.0491  0.0091
22287W        W38761  11.507  16.861  14.725  0.0851  0.1167  0.1233
22288W        W38762  15.378  16.221   5.019  0.1339  0.0250  0.0546
22289W        W38763   7.754  16.637  15.206 -0.0553 -0.2200  0.3838
22290W        W38764   2.248   8.117   2.215 -0.1025  0.0148  0.1254
22291W        W38765   8.899   5.323   4.718  0.0342  0.2824  0.0256
22292W        W38766  12.664  12.264   5.275  0.1874 -0.0595 -0.1315
22293W        W38767   9.888  13.442  12.716 -0.2937 -0.0628 -0.0366
22294W        W38768  14.097   4.814  11.720 -0.1780  0.0677 -0.1915
22295W        W38769   7.574  14.585   0.959 -0.0300  0.1634  0.2763
22296W        W38770   9.483  10.278  15.905  0.2348 -0.1213 -0.4301
22297W        W38771   2.397   4.543  11.630  0.0082 -0.0425  0.2484
22298W        W38772   3.555  11.359  11.074 -0.0229 -0.1851  0.1365
22299W        W38773  15.757   9.678  12.601 -0.0050 -0.0112 -0.0269
22300W        W38774  14.648  15.290   3.593  0.0780  0.2252  0.2624
22301W        W38775   4.181   3.930  14.041 -0.1802 -0.3382  0.0535
22302W        W38776  18.194  15.753   2.169  0.0909  0.0887  0.2634
22303W        W38777  12.124   0.593   3.284  0.1138 -0.3301  0.3480
22304W        W38778  12.217   9.965  15.314 -0.0727 -0.2460  0.2738
22305W        W38779   1.478  13.938   0.509  0.1206 -0.4600  0.0077
22306W        W38780  12.293   2.587  16.002 -0.1311  0.0775 -0.2011
22307W        W38781   3.046   0.914  16.195 -0.2875  0.1682  0.0234
22308W        W38782   0.696   5.318   4.648  0.1594 -0.3337  0.0226
22309W        W38783  13.877  10.563  12.944  0.0120 -0.0400 -0.0120
22310W        W38784   4.670   7.238   1.151 -0.0187 -0.0437 -0.3030
22311W        W38785   0.353   5.192  13.427 -0.1915  0.0664 -0.0489
22312W        W38786  17.554  13.208   2.626  0.0199  0.1610  0.3471
22313W        W38787   0.523  11.356  10.925  0.1887 -0.2943  0.1854
22314W        W38788  17.951  10.327   4.737 -0.3412 -0.2156  0.1728
22315W        W38789   2.490  15.394  14.805  0.0542  0.1615 -0.0295
22316W        W38790  14.870   1.641  10.187  0.0835  0.0123  0.0836
22317W        W38791   5.045   5.561   2.986 -0.2253  0.0467 -0.3486
22318W        W38792   3.102   0.595  13.424  0.3546 -0.0687 -0.2767
22319W        W38793   4.682   2.550   0.478  0.0246 -0.0599  0.0735
22320W        W38794  15.056  11.619   2.199 -0.0077  0.0203 -0.3924
22321W        W38795   6.529  16.965  14.848 -0.0049  0.2380  0.7269
22322W        W38796   2.770   6.260   3.331 -0.2181 -0.3381 -0.2920
22323W        W38797   4.493  10.668  11.878 -0.2082 -0.1531  0.1644
22324W        W38798   4.762  10.108  14.852 -0.0080 -0.0398 -0.1793
22325W        W38799   4.129   7.510  14.072 -0.1431  0.0212 -0.1386
22326W        W38800   9.211   6.924  15.743  0.1162  0.4385 -0.0701
22327W        W38801   2.323   7.180   2.492 -0.1768 -0.1291  0.1588
22328W        W38802  16.202  10.251  11.803 -0.0342  0.0406  0.1204
22329W        W38803   3.424  17.647   4.388 -0.0933 -0.3295  0.2096
22330W        W38804  16.655  12.168   3.947  0.0559  0.3913 -0.2130
22331W        W38805   1.368  12.213  12.584 -0.2191  0.2098 -0.2636
22332W        W38806   8.557   3.218  13.786 -0.3233  0.0245  0.0667
22333W        W38807   3.972   7.747   5.826  0.1735  0.1916  0.2869
22334W        W38808  17.339   6.735  13.345 -0.4741 -0.0367  0.1989
22335W        W38809   6.594  10.062   3.919  0.0730  0.4423 -0.0804
22336W        W38810   7.755  11.920   0.816 -0.1556 -0.1782 -0.1898
22337W        W38811   6.453  13.247  14.193 -0.0189  0.0085  0.2108
22338W        W38812  14.454  10.429  13.956 -0.1464  0.0764 -0.3868
22339W        W38813   6.673   0.450  12.961  0.0820  0.0178 -0.0607
22340W        W38814   8.685   3.297   3.416  0.1686 -0.0946  0.3712
22341W        W38815   7.147   2.474   4.576 -0.0505  0.0534  0.1976
22342W        W38816  13.511   3.007  12.122  0.1816 -0.1925 -0.1182
22343W        W38817  14.105  17.699   0.134  0.1892 -0.0191 -0.2265
22344W        W38818  14.693  14.147   0.695 -0.5126 -0.0542 -0.1383
22345W        W38819   9.637  15.406  12.034  0.1982 -0.0264  0.2906
22346W        W38820  11.932  13.644  13.522 -0.1524  0.1497  0.0693
22347W        W38821  18.155   7.433  14.243 -0.1378  0.0745 -0.1343
22348W        W38822   9.500  10.883  13.956  0.1412  0.2263  0.0111
22349W        W38823  13.752   1.214  12.175 -0.1568  0.0516  0.3394
22350W        W38824   5.247  11.891   2.172 -0.0277  0.1483  0.0391
22351W        W38825  11.252   8.431   1.621  0.1696 -0.1019  0.1667
22352W        W38826  18.227  11.554  15.830  0.4489  0.0520 -0.1595
22353W        W38827   5.018  13.550   0.711 -0.1095 -0.0715 -0.2132
22354W        W38828   6.220  10.818  14.742  0.3211  0.2510  0.0086
22355W        W38829  13.710   1.297   3.079  0.0631 -0.0791 -0.0557
22356W        W38830  10.471  15.792   4.346 -0.6214  0.2038  0.2024
22357W        W38831  12.746   9.154   1.070  0.0977 -0.4266 -0.2781
22358W        W38832  12.814   8.648  12.677 -0.2916 -0.0300  0.0376
22359W        W38833  12.425   5.239  11.765  0.2183 -0.0286  0.2790
22360W        W38834   6.168   6.892   0.585 -0.3749 -0.1446 -0.0232
22361W        W38835  15.863   9.268  12.354 -0.3775  0.1716 -0.0306
22362W        W38836   5.252   4.362  13.274  0.2922  0.0500  0.3508
22363W        W38837  10.358  17.915   4.352 -0.1112  0.3367 -0.1028
22364W        W38838   2.173  14.275   0.871  0.2329 -0.0226  0.1386
22365W        W38839  10.917   6.279   2.788  0.1535 -0.0726  0.0153
22366W        W38840   7.272   1.513   3.508  0.0191  0.0450  0.1878
22367W        W38841   2.049   0.415  13.553 -0.0418 -0.0027  0.0147
22368W        W38842  12.723  15.526  13.939  0.3612 -0.1644 -0.2241
22369W        W38843   6.852  17.231   4.212  0.0024  0.1956  0.4183
22370W        W38844  16.103   2.705   3.454 -0.2683 -0.1591  0.0197
22371W        W38845  16.796  14.666  14.335  0.2239  0.3860  0.2297
22372W        W38846   9.094   4.825   2.259 -0.0696 -0.2038  0.0731
22373W        W38847  10.065   9.329  14.072  0.1081  0.0772 -0.1763
22374W        W38848  18.122  17.529  11.987 -0.2023 -0.1586  0.0821
22375W        W38849   2.406  15.604   3.992  0.1480 -0.0533 -0.2166
22376W        W38850   7.897   0.300   4.812  0.0555 -0.1189 -0.1608
22377W        W38851  16.692  16.973   4.663  0.1512  0.1031 -0.0811
22378W        W38852   5.122  17.847   3.431 -0.0581  0.1171  0.0477
22379W        W38853   8.649   7.571   1.571  0.0484 -0.2165 -0.0132
22380W        W38854  10.630  13.286   0.222  0.0937  0.0828 -0.1433
22381W        W38855   5.049  13.863  15.228 -0.1136 -0.3250 -0.0502
22382W        W38856   6.205   2.343   4.638  0.4574  0.0686 -0.0070
22383W        W38857   8.783   5.059   1.127  0.0324 -0.0297 -0.0782
22384W        W38858  17.655  14.433   1.919  0.3443 -0.0089  0.2005
22385W        W38859   3.961   4.953   3.249  0.1329  0.2747  0.1364
22386W        W38860   1.586   2.111   4.008 -0.2316  0.0741 -0.2053
22387W        W38861   7.756   7.882  15.741  0.0831  0.1369  0.0152
22388W        W38862  16.855  10.538  10.776  0.2535 -0.2143 -0.0556
22389W        W38863   0.790  16.771  14.134  0.0400 -0.2569  0.0677
22390W        W38864   7.951  13.637   2.043  0.1454 -0.1735 -0.0261
22391W        W38865  17.767   5.699   2.324 -0.2247 -0.0317  0.0877
22392W        W38866   4.795   0.677   0.383  0.2503  0.2021 -0.0954
22393W        W38867   3.090   3.197   0.972 -0.2246  0.2969 -0.0234
22394W        W38868   6.877   4.953   4.062  0.1704 -0.2761 -0.0058
22395W        W38869  16.164   2.030   5.009 -0.0492 -0.0233  0.0427
22396W        W38870   0.383  10.612   3.918 -0.0789  0.1254 -0.2897
22397W        W38871   0.463   8.457   2.142  0.0441  0.2940 -0.1388
22398W        W38872   5.177  14.047   0.864  0.0137 -0.0389  0.0829
22399W        W38873  12.004  12.348   2.066  0.1043  0.2812 -0.1268
22400W        W38874  13.618   0.157   4.462 -0.1920  0.2969 -0.2305
22401W        W38875   4.916   7.700  14.291 -0.0413  0.0885 -0.1819
22402W        W38876   8.572  16.297  15.291  0.1502  0.1684 -0.0900
22403W        W38877  16.025  16.951  12.856 -0.1160  0.2613  0.0532
22404W        W38878   9.712   0.963   5.118 -0.1351 -0.1564  0.0562
22405W        W38879  16.170  18.189  14.854 -0.1007 -0.1748  0.0136
22406W        W38880  14.178   0.704  11.347 -0.1546  0.1285  0.1072
22407W        W38881  14.745   8.342   5.587  0.2815 -0.0829 -0.1591
22408W        W38882  10.456   9.501  13.639 -0.1035  0.1816  0.0047
22409W        W38883  16.132  17.022   1.604  0.2045 -0.0708 -0.0695
22410W        W38884   5.372   7.678   0.592 -0.1325  0.1491  0.2574
22411W        W38885   6.306  14.880  13.226  0.1545  0.0935  0.1542
22412W        W38886   0.454   9.601  12.114  0.1674  0.0321  0.1761
22413W        W38887   4.481   7.170  14.840 -0.0851 -0.3392  0.3102
22414W        W38888   7.084   2.259   5.044  0.1933  0.0691  0.2103
22415W        W38889   0.730   1.440   2.214  0.0120  0.0485 -0.2142
22416W        W38890   3.213   8.242  13.548  0.1497 -0.1294 -0.1750
22417W        W38891  10.998   0.306  12.953 -0.4374  0.0366  0.0710
22418W        W38892   7.895   1.108   5.688  0.1109  0.0850 -0.1761
22419W        W38893  10.325   8.204  12.098  0.0118  0.0634 -0.1278
22420W        W38894   5.763  12.995   1.013 -0.2901  0.1095  0.0922
22421W        W38895  14.934   6.915   2.887  0.1290 -0.2504 -0.0137
22422W        W38896   8.427   8.585  15.296 -0.1821  0.0029  0.2393
22423W        W38897  11.730   3.232  15.841 -0.2627  0.0725  0.1364
22424W        W38898   7.304   9.222  14.112 -0.2390 -0.1271 -0.1753
22425W        W38899  15.441   4.967   4.614 -0.3875 -0.0311 -0.0082
22426W        W38900  13.330  12.100   0.093  0.4551 -0.3816 -0.0629
22427W        W38901   7.749   9.943  13.830 -0.0918 -0.0746 -0.1091
22428W        W38902   0.930   9.990   3.309  0.0978 -0.4822  0.0296
22429W        W38903  14.932  13.800  12.153 -0.2313 -0.0025 -0.1014
22430W        W38904  10.674   1.670   5.282  0.3217 -0.1319 -0.1290
22431W        W38905   3.801  11.003   4.471  0.1638  0.0618  0.1132
22432W        W38906  18.318   7.454  11.572 -0.0210  0.1910  0.1467
22433W        W38907   6.675  15.252  13.889  0.0973 -0.2386 -0.3625
22434W        W38908   5.268  14.759  13.673  0.0720 -0.1725  0.0082
22435W        W38909   3.084  12.814   1.854  0.1792  0.1575  0.0481
22436W        W38910   9.231  12.825   6.043  0.1730  0.2012  0.0151
22437W        W38911  14.196  17.828  13.927 -0.4662  0.1870 -0.0029
22438W        W38912   0.614  16.964   0.380 -0.1149  0.0032  0.0089
22439W        W38913  15.159   1.556  13.440 -0.0700  0.1500  0.0534
22440W        W38914  13.581   2.228  15.574 -0.1884 -0.2887  0.0129
22441W        W38915  17.782   4.704   0.658 -0.0709 -0.0015 -0.0510
22442W        W38916   0.369   9.004   2.360  0.0003 -0.2168 -0.3172
22443W        W38917  14.770  17.533   2.817 -0.2433 -0.3496  0.0091
22444W        W38918   1.014   4.673   5.281 -0.0304  0.0157 -0.0540
22445W        W38919   2.810  13.925   2.753 -0.0415 -0.2138 -0.2638
22446W        W38920   9.070   5.646  12.406 -0.1758  0.1744 -0.0478
22447W        W38921   7.637  10.249  14.334  0.0081 -0.1093  0.0483
22448W        W38922   0.824  14.263  11.800 -0.3509 -0.0847  0.2804
22449W        W38923  17.710   0.874  15.007 -0.3269 -0.0806 -0.1394
22450W        W38924  15.541  10.979   1.174 -0.0447  0.0680  0.0463
22451W        W38925   8.819   2.838   0.285  0.2052  0.2787  0.1055
22452W        W38926  14.737  14.409   3.183 -0.3285 -0.0921 -0.0533
22453W        W38927  11.867  15.960   2.090  0.2301 -0.1137  0.4055
22454W        W38928   7.589  17.685  15.408 -0.3522  0.4238 -0.0644
22455W        W38929   6.438   3.746  13.867 -0.2308 -0.2405  0.2937
22456W        W38930  16.034   4.690  13.503 -0.0513  0.3240  0.0077
22457W        W38931   1.757   1.133   3.782  0.1996 -0.2823  0.2028
22458W        W38932   9.586   1.204   2.937  0.4738  0.4069  0.2063
22459W        W38933   7.657   4.770   5.057 -0.0191 -0.1422 -0.0493
22460W        W38934  14.633   6.661   1.540  0.1749  0.5056 -0.3540
22461W        W38935  15.111  17.233  15.254  0.2056  0.0662  0.2778
22462W        W38936   6.942   6.603   6.097  0.2187 -0.2819 -0.2534
22463W        W38937   9.527   8.247   4.616  0.1820  0.0497  0.0538
22464W        W38938  12.820   9.792   5.225  0.3772 -0.2716  0.0987
22465W        W38939   1.596   4.879   3.080  0.0497  0.1457 -0.0013
22466W        W38940   1.679  11.234   0.825  0.3784  0.1281  0.0637
22467W        W38941   0.695  14.592   4.963 -0.1435  0.2194 -0.1462
22468W        W38942  11.587  16.976   0.459 -0.1243 -0.1035  0.1647
22469W        W38943  13.258   0.263  14.420  0.1554  0.1912 -0.1243
22470W        W38944   3.567   1.979   4.873  0.0956 -0.1300  0.2667
22471W        W38945   9.228   1.905  12.982  0.3047 -0.3073 -0.1265
22472W        W38946   6.958  14.798  14.000 -0.3856 -0.2227 -0.1864
22473W        W38947   5.930  15.128   3.326 -0.1123 -0.0886 -0.1243
22474W        W38948   5.607  10.733   6.426  0.3789 -0.2275 -0.4142
22475W        W38949   4.569  11.580   2.008  0.0139 -0.4657  0.2936
22476W        W38950  17.674  12.876  15.166  0.2412 -0.2806  0.0601
22477W        W38951  13.065   9.184  16.017 -0.1485  0.2938  0.0607
22478W        W38952  11.925  13.408   4.942  0.1033  0.1187 -0.1118
22479W        W38953   6.076   9.870   0.659  0.0105 -0.0559  0.0880
22480W        W38954   7.667   7.313  11.704 -0.2889 -0.0985  0.1479
22481W        W38955  16.635   1.274   0.974 -0.1159 -0.1897  0.0797
22482W        W38956   6.938  14.577   1.063  0.2861  0.1218 -0.0066
22483W        W38957   8.109   5.776   1.799 -0.1355 -0.0023 -0.0226
22484W        W38958   8.683  10.177   6.242  0.2437  0.2025  0.1626
22485W        W38959   4.105   9.896  11.560  0.0995 -0.1934  0.0686
22486W        W38960  16.808  10.876  11.146  0.0849 -0.1162 -0.1365
22487W        W38961  11.348  13.746   5.722 -0.3493  0.1373 -0.2428
22488W        W38962   4.489   0.530   2.316  0.1232  0.0108 -0.0996
22489W        W38963  16.091  16.584  12.522 -0.3133  0.3021 -0.0324
22490W        W38964  11.879   7.335   5.571 -0.2895 -0.0404  0.0201
22491W        W38965  12.200  10.428   1.535 -0.1355  0.1192  0.1679
22492W        W38966   9.734  17.212   4.501 -0.2569  0.0069  0.3971
22493W        W38967   8.098   6.232  14.144  0.1828 -0.3684  0.0056
22494W        W38968  10.938   7.091  14.968  0.0311 -0.1755 -0.3018
22495W        W38969  11.610   3.949  11.939  0.2710 -0.0669 -0.0104
22496W        W38970   8.821   4.586  14.958 -0.2672  0.1676  0.0024
22497W        W38971  15.895  15.900   0.169 -0.1771 -0.2155  0.3091
22498W        W38972  17.209   2.388  15.005  0.0816 -0.0166  0.0619
22499W        W38973   1.026   4.608   4.374  0.0346  0.5336 -0.0126
22500W        W38974   5.220  17.093  13.421 -0.0416 -0.2598 -0.2535
22501W        W38975   8.460  16.621   5.850  0.0499 -0.1367  0.2672
22502W        W38976   8.448  13.934   5.855  0.0022 -0.1576  0.2037
22503W        W38977  14.782   4.384  16.291 -0.3731  0.1156  0.3119
22504W        W38978   4.918   3.802   4.973 -0.1027  0.1246 -0.1544
22505W        W38979   6.768  16.069   0.881  0.0978 -0.0421 -0.5477
22506W        W38980   4.720  17.998  15.438  0.3114 -0.0443  0.4612
22507W        W38981  10.216   8.109   4.552  0.1185  0.0695 -0.1578
22508W        W38982  16.448   0.114   0.287 -0.0330  0.1212 -0.2625
22509W        W38983   8.332   7.950  14.969 -0.2213 -0.0732 -0.1277
22510W        W38984  12.910   4.555   1.722  0.2731  0.0746  0.0638
22511W        W38985   9.039  12.934   1.721  0.0713  0.1070  0.2928
22512W        W38986   1.409   2.646  11.978  0.2422  0.2974 -0.0879
22513W        W38987   5.354  16.917   1.200 -0.2028 -0.0382  0.1584
22514W        W38988  18.163   8.973  16.166  0.0543  0.1287 -0.2196
22515W        W38989   0.039  12.174  10.400  0.0398  0.0717  0.0938
22516W        W38990  14.297   0.348   1.278 -0.0435  0.1450  0.0466
22517W        W38991   9.359   4.257  11.214  0.1271 -0.0957 -0.1589
22518W        W38992   9.368   0.380   4.180 -0.1641 -0.0744  0.0829
22519W        W38993  18.178   7.848  11.944 -0.0308 -0.2474 -0.2170
22520W        W38994   3.294   0.842  12.168  0.0747  0.0287  0.1480
22521W        W38995   5.031  12.215  13.449 -0.3791  0.0141  0.4241
22522W        W38996  15.650   6.441  14.110 -0.0782  0.0632 -0.0552
22523W        W38997   5.776   4.679   4.473  0.5657  0.3150 -0.1986
22524W        W38998  17.927  15.854   0.091 -0.1331  0.0164 -0.1121
22525W        W38999   1.527  11.569  11.509  0.2006  0.1121  0.4525
22526W        W39000   1.845  10.852   3.883 -0.2924  0.0680 -0.0445
22527W        W39001  15.614  14.723   0.022 -0.1739 -0.1639 -0.3668
22528W        W39002  14.713   6.333   6.109 -0.2511  0.1835  0.0521
22529W        W39003  17.666   1.907   3.570 -0.0394  0.0785 -0.2190
22530W        W39004   9.262  14.031   0.912  0.1083 -0.0533 -0.0675
22531W        W39005  15.670  12.328   0.798 -0.1273  0.1022  0.0889
22532W        W39006   0.975  16.090  13.355 -0.1923 -0.2615  0.1072
22533W        W39007   1.112   2.996   0.345  0.0371  0.0288 -0.2569
22534W        W39008   9.482  12.355  13.460 -0.0451 -0.0618 -0.1626
22535W        W39009  11.825   7.848  14.593 -0.3650  0.3418 -0.0761
22536W        W39010  18.105   7.190  13.795 -0.1578 -0.1918 -0.2320
22537W        W39011   7.183  13.292   3.474 -0.3017 -0.1686 -0.1032
22538W        W39012  13.263   2.956  14.379  0.1333 -0.3444  0.1191
22539W        W39013  11.671  10.394  12.334  0.1178  0.0443  0.0839
22540W        W39014   6.864   7.067   2.215  0.2628  0.0904  0.0269
22541W        W39015  11.996   6.658   2.194  0.1285  0.2400 -0.1917
22542W        W39016   0.641   9.031   1.920 -0.1214  0.2032  0.0144
22543W        W39017  15.255   5.469   2.620  0.2087  0.2405  0.0997
22544W        W39018  15.168  18.131  11.203  0.2438  0.1983 -0.3857
22545W        W39019   1.381   8.328   2.756 -0.0908 -0.2129  0.0500
22546W        W39020  18.087   4.073  14.079 -0.2581 -0.2319 -0.0183
22547W        W39021   0.506   5.178  15.030 -0.0204 -0.0492 -0.4014
22548W        W39022   6.883  12.152   1.786 -0.0838  0.2364 -0.1060
22549W        W39023   3.797   7.092   0.379  0.0140  0.0309  0.1076
22550W        W39024  16.718  17.059  13.625 -0.0882  0.0023 -0.0424
22551W        W39025   2.225  13.661   4.342  0.1598 -0.0769  0.0740
22552W        W39026  18.295  15.931  14.972 -0.2092 -0.0851 -0.0113
22553W        W39027   6.172   8.372   6.154  0.1675  0.0977 -0.1232
22554W        W39028  14.213   0.325   3.620 -0.0626  0.0695  0.0269
22555W        W39029  13.798  15.183   5.204  0.2194  0.1726  0.5080
22556W        W39030  12.221   8.512  12.941 -0.3198  0.1917 -0.0340
22557W        W39031  17.253   4.955  15.972 -0.0253 -0.3028  0.0687
22558W        W39032   5.692  13.082  15.452 -0.1703  0.3279  0.0181
22559W        W39033   1.543   1.121  12.602 -0.0328 -0.0289 -0.1644
22560W        W39034   8.403   4.218   3.075  0.1343  0.1817 -0.1909
22561W        W39035   4.078   1.292   4.087  0.0193  0.2000 -0.1389
22562W        W39036   8.664   2.378  13.384 -0.1373 -0.2263  0.1733
22563W        W39037  15.936   4.305   2.046 -0.0419  0.1260  0.2561
22564W        W39038  11.762  12.243   5.227  0.0104  0.1367  0.1063
22565W        W39039   2.141   6.455  13.747 -0.0152 -0.2246  0.2024
22566W        W39040   4.197   6.105  14.083 -0.0499  0.0228  0.0370
22567W        W39041  15.328  16.556   1.285  0.2175  0.0461  0.2845
22568W        W39042  12.971   2.913   3.374 -0.0764  0.2300 -0.1235
22569W        W39043   8.791  12.201   5.923  0.2489 -0.0526 -0.2085
22570W        W39044   3.893   0.084  11.027  0.4478  0.0064  0.1866
22571W        W39045   4.742   2.748  14.490 -0.1446  0.0273  0.3757
22572W        W39046   6.977   9.233   6.269 -0.1412  0.0397  0.1176
22573W        W39047   1.085   5.622   3.087 -0.0524  0.0022 -0.0143
22574W        W39048   6.287   4.221   3.578 -0.1054 -0.1752 -0.0920
22575W        W39049  12.681   8.441  13.098  0.0698  0.1124  0.1093
22576W        W39050   5.385  13.556  12.329 -0.2508  0.2727 -0.0377
22577W        W39051  17.474  15.554   2.881  0.1020  0.0177  0.0868
22578W        W39052  13.845   0.163   0.083  0.1353  0.0210 -0.2533
22579W        W39053  15.305   6.770   0.058  0.0893 -0.2923 -0.1257
22580W        W39054   4.379   5.642   1.989 -0.0485 -0.2586 -0.1804
22581W        W39055   4.434   0.446  16.303 -0.4259 -0.0228  0.0247
22582W        W39056   2.481   3.823   3.615  0.2531  0.0245 -0.1212
22583W        W39057  16.219   3.965  12.881  0.2270  0.3994  0.2386
22584W        W39058   4.906   6.789  14.091  0.1070 -0.1551  0.1254
22585W        W39059   0.399   9.608  14.552  0.0457 -0.0621  0.1210
22586W        W39060  17.140   3.201  14.376 -0.1565  0.1088 -0.0631
22587W        W39061   6.577  14.146   1.857  0.2033  0.2867 -0.0995
22588W        W39062  16.167  15.720   5.314  0.1592  0.0258 -0.0744
22589W        W39063   6.344   1.047  11.762  0.0070  0.0262  0.3282
22590W        W39064  12.254  12.451  13.100  0.0172  0.1502  0.3458
22591W        W39065   5.672   8.783  11.497 -0.0067  0.2320  0.1651
22592W        W39066  16.523  17.028  13.118 -0.0620  0.1014  0.0080
22593W        W39067   6.273   2.689  12.500 -0.3537  0.0853  0.0949
22594W        W39068   0.850  15.979   0.735  0.1796  0.2076 -0.0680
22595W        W39069   1.532  11.132   5.850  0.0392  0.0631 -0.0987
22596W        W39070   9.062  10.776  12.963 -0.2035  0.0873  0.0398
22597W        W39071   4.951  11.629   2.536 -0.1016 -0.2449  0.2475
22598W        W39072  12.718   1.368   4.219  0.2280  0.2576 -0.0774
22599W        W39073   7.189  16.996  16.049  0.1980  0.1378 -0.0768
22600W        W39074  13.604   5.379   2.474 -0.0780 -0.4236 -0.1590
22601W        W39075  10.359   5.720  15.947  0.1803  0.0588 -0.2497
22602W        W39076   2.156   5.921  14.596  0.0268  0.3535  0.0747
22603W        W39077  16.556   7.993   2.614 -0.4179  0.3196 -0.1874
22604W        W39078   9.598  10.866  12.291 -0.0976  0.1317  0.1666
22605W        W39079   9.547  15.723   5.156 -0.2721  0.1769 -0.1767
22606W        W39080   4.516  17.193  11.998 -0.1457  0.0481  0.0362
22607W        W39081   6.966   5.916  16.199 -0.2597  0.0725  0.3810
22608W        W39082  11.421  15.417  14.226  0.0367 -0.0421  0.1876
22609W        W39083  13.211   3.363  13.884  0.0076  0.3691  0.0694
22610W        W39084   2.126   2.283  14.008  0.2058 -0.2302 -0.0388
22611W        W39085  13.290   5.381  16.046  0.0571  0.0954  0.2214
22612W        W39086   7.603  16.658  13.024  0.1519  0.1847 -0.0295
22613W        W39087  14.701   8.232  11.149  0.3292 -0.2532  0.3877
22614W        W39088   6.126  10.227  12.696  0.4315  0.0221 -0.0752
22615W        W39089  16.682   9.956   2.953  0.2325  0.1678  0.1966
22616W        W39090  10.930   8.902   1.885  0.0748  0.0045 -0.1971
22617W        W39091   0.404   1.186   1.722  0.1285  0.0737 -0.1862
22618W        W39092  13.091  10.081   3.905 -0.2763 -0.2804  0.5091
22619W        W39093  17.648   6.970   1.896 -0.3818  0.0450  0.0524
22620W        W39094  13.908  15.466  13.409  0.2709  0.2489 -0.2880
22621W        W39095   5.579  12.666   2.748 -0.0373  0.2421 -0.2216
22622W        W39096  11.822   4.486  11.096 -0.1152  0.1920  0.2548
22623W        W39097  16.997   8.166  16.190 -0.0081 -0.1420  0.0168
22624W        W39098  10.931   5.858  16.114 -0.1924  0.0583 -0.2784
22625W        W39099   4.087   1.531   2.487  0.0312 -0.0037  0.1006
22626W        W39100   0.175   8.407   1.295  0.1249  0.0213 -0.0765
22627W        W39101  17.474  16.209  10.861  0.0613  0.2256 -0.1727
22628W        W39102   2.561   6.573   0.054 -0.1784  0.0727 -0.0980
22629W        W39103  11.949   9.391   4.820  0.0892 -0.0638 -0.1174
22630W        W39104   1.180  13.746  14.684  0.1083 -0.2411 -0.0494
22631W        W39105   0.423   5.511  13.906 -0.3094  0.0062 -0.1903
22632W        W39106  12.585   5.325  11.300  0.0355 -0.3122  0.0423
22633W        W39107   7.461   9.264   3.315 -0.0713  0.0551  0.0172
22634W        W39108  17.580  15.932  13.297 -0.0201 -0.0341  0.3130
22635W        W39109  18.201  18.176   5.389  0.2836 -0.0085  0.0156
22636W        W39110  18.276   0.950   5.248 -0.1901  0.0722  0.0905
22637W        W39111   9.974  13.722  13.800 -0.1896  0.4043  0.0034
22638W        W39112  12.541   0.789   3.016  0.0430  0.0967 -0.2481
22639W        W39113   8.308  12.632  11.750 -0.0925  0.1456  0.3308
22640W        W39114   5.058   4.799   5.921 -0.3409  0.1929 -0.0008
22641W        W39115   2.215  10.586  15.774  0.2277 -0.1298 -0.0408
22642W        W39116   3.271  16.077   0.483 -0.4449 -0.3073 -0.0019
22643W        W39117   3.717   0.474  16.199  0.0594  0.1301 -0.0886
22644W        W39118   1.197  10.729  13.690  0.3373  0.1834 -0.1993
22645W        W39119  11.268   2.073   3.433  0.6444 -0.1490  0.0062
22646W        W39120  15.622  13.110  13.996 -0.0259 -0.1408  0.1281
22647W        W39121  10.157   7.450   1.257  0.0567  0.1740  0.2239
22648W        W39122   0.973  15.683   1.107  0.0024 -0.1709  0.3969
22649W        W39123  11.940   9.817   2.363 -0.2595  0.2562  0.0639
22650W        W39124  10.331   5.508  12.115 -0.3550 -0.0010  0.0684
22651W        W39125  13.700  14.905  14.710  0.1105  0.1877  0.0918
22652W        W39126  13.450   5.324  14.294 -0.3408 -0.2269 -0.1233
22653W        W39127   7.783   7.447  14.172 -0.0650  0.0596 -0.2141
22654W        W39128   8.300  16.697   0.137  0.0773 -0.0623  0.0546
22655W        W39129  15.630  10.785  15.756 -0.0021  0.1683  0.1963
22656W        W39130   7.208  11.467  12.177 -0.1943  0.0246  0.1011
22657W        W39131   9.744   6.847  14.343 -0.2317 -0.1498  0.0996
22658W        W39132  17.431  12.403   0.799  0.0084  0.1519  0.1497
22659W        W39133  15.491   4.247   3.139  0.0489  0.2413 -0.1055
22660W        W39134   0.941  10.119   0.710 -0.0739 -0.1459  0.3553
22661W        W39135   8.438   0.973  14.237  0.0907  0.0779  0.0490
22662W        W39136  12.394   1.223   3.889 -0.0048 -0.2784  0.0791
22663W        W39137  15.880   6.019  16.189 -0.1388  0.2244 -0.0782
22664W        W39138   3.378  16.369   2.321 -0.0343  0.0761 -0.0781
22665W        W39139   5.747   1.976   0.891 -0.2011  0.0547 -0.2499
22666W        W39140   0.524   3.291   3.529  0.0033 -0.1475 -0.2299
22667W        W39141   5.569   1.816   3.273 -0.1556 -0.3198 -0.1566
22668W        W39142   4.682  13.390   6.094 -0.0352  0.1383  0.0278
22669W        W39143  13.761   6.451   1.871  0.0989  0.1726  0.2523
22670W        W39144   3.568  17.420  12.378 -0.1152 -0.0446  0.0485
22671W        W39145   0.904  18.125  12.679 -0.1641 -0.0674 -0.1653
22672W        W39146  11.702  10.651  13.516 -0.0709 -0.1444  0.0442
22673W        W39147  17.661  11.504   0.985 -0.0349 -0.1693 -0.3459
22674W        W39148   3.422  12.056   4.859  0.1329 -0.1284 -0.2355
22675W        W39149  11.842   9.855   6.001 -0.0136 -0.2626  0.0648
22676W        W39150   5.972   0.106  14.676 -0.0395  0.0351  0.1150
22677W        W39151  16.382  18.000   4.577  0.0067 -0.1674  0.1247
22678W        W39152  10.197   4.678   4.291 -0.0260  0.1082 -0.1122
22679W        W39153  15.675   7.016   0.263 -0.0938 -0.0614 -0.0386
22680W        W39154  13.331   3.255  11.165  0.2461  0.1022  0.0525
22681W        W39155   1.726  12.623   0.265 -0.2787 -0.2916 -0.3011
22682W        W39156   9.103  18.140  12.110  0.1077 -0.1251 -0.0216
22683W        W39157   5.379   6.084  13.790 -0.0021  0.1866  0.1707
22684W        W39158   2.095  10.127   4.751 -0.0226 -0.0383 -0.0158
22685W        W39159   2.435  14.391   3.879 -0.0172  0.0908 -0.0583
22686W        W39160  15.180  12.490   0.661  0.1127 -0.0808 -0.3040
22687W        W39161  13.561  10.108   2.751 -0.0176  0.1366  0.2608
22688W        W39162  17.547   9.905  12.678  0.0484  0.3309  0.2222
22689W        W39163   0.149   4.826   5.075  0.1089  0.1088  0.2620
22690W        W39164  17.916  15.062   4.329  0.0230 -0.5580  0.0713
22691W        W39165   0.567  15.860  13.843 -0.2872 -0.0873 -0.1107
22692W        W39166   6.566  11.267   3.323 -0.1217  0.0450 -0.1315
22693W        W39167   6.346  15.856  10.360 -0.0446 -0.0187 -0.0875
22694W        W39168  13.273   9.727   3.496  0.2126  0.3874 -0.3642
22695W        W39169  11.621   4.322   4.655 -0.0532 -0.2175 -0.2992
22696W        W39170   4.292  18.298   1.066  0.3828 -0.1373 -0.0304
22697W        W39171  10.072   5.920   3.629 -0.1471 -0.4349  0.0033
22698W        W39172   2.890   1.009   0.679  0.1378 -0.0537  0.2104
22699W        W39173   3.750   0.439  14.090 -0.0226 -0.1529 -0.0622
22700W        W39174  13.322  10.065  12.267  0.2326 -0.0727 -0.0427
22701W        W39175  12.213  13.134  11.918 -0.0018 -0.0159 -0.0258
22702W        W39176  15.205   6.669  14.282  0.0377 -0.0561 -0.2913
22703W        W39177  16.760  12.185  15.501 -0.0264  0.1910  0.0606
22704W        W39178  14.476   1.142   2.991  0.0830 -0.2955  0.0809
22705W        W39179   4.502   6.539  12.651  0.0934 -0.3565  0.0891
22706W        W39180  10.408  12.010   2.803  0.0565 -0.1241 -0.0815
22707W        W39181   5.395  10.372   3.102  0.0998 -0.0138 -0.3019
22708W        W39182  15.636  18.269  15.549 -0.1307  0.1308  0.0397
22709W        W39183   0.669  10.165  13.127 -0.0973  0.3574 -0.4121
22710W        W39184   8.083   4.412   0.592  0.0505  0.0286  0.0885
22711W        W39185  13.217  17.560   4.092 -0.1161  0.0332  0.1049
22712W        W39186   2.520   2.542  16.294  0.0854  0.1450  0.0761
22713W        W39187   3.143  10.782  12.350  0.1870 -0.3100 -0.2643
22714W        W39188  13.447   4.496   0.842 -0.2480 -0.1310  0.0194
22715W        W39189  14.843   6.295  16.119  0.0324 -0.2872  0.2113
22716W        W39190   6.182   3.162   0.656  0.2528 -0.2106  0.0994
22717W        W39191   7.772   4.912   4.037  0.2816  0.1254  0.1483
22718W        W39192  16.634  15.975   0.786 -0.5248  0.0095 -0.1947
22719W        W39193  13.714  12.070  13.124 -0.2299  0.0652 -0.1806
22720W        W39194  17.278  15.922  13.754  0.1067 -0.1091 -0.0452
22721W        W39195  17.298  10.260  10.878  0.1640 -0.0098  0.0244
22722W        W39196  12.365  12.816  12.298  0.0997 -0.2492 -0.1072
22723W        W39197   5.021   3.541   1.929 -0.1979 -0.0165 -0.2516
22724W        W39198   7.858   8.132   2.007 -0.0603 -0.0045 -0.0522
22725W        W39199   0.051   1.272   2.119 -0.2342  0.3609 -0.1601
22726W        W39200   7.198  16.828  12.503  0.0694  0.2291  0.1832
22727W        W39201   7.539  11.301  13.492  0.2027 -0.4813  0.1732
22728W        W39202  10.354  15.565   0.363 -0.0435 -0.1168  0.0711
22729W        W39203   4.070   9.382  11.437  0.1915  0.0765  0.0059
22730W        W39204   4.543  10.469   4.962  0.3071  0.0691 -0.0004
22731W        W39205   2.198   1.451   0.555 -0.0593  0.2701  0.0550
22732W        W39206  10.574  13.754   4.044 -0.0767  0.0566 -0.1079
22733W        W39207   8.313   5.470   2.606  0.1688  0.2603  0.0785
22734W        W39208   5.104   7.014  16.228  0.1591  0.0460 -0.0455
22735W        W39209   9.484   5.554   5.359 -0.1475 -0.3248  0.2244
22736W        W39210   3.095  18.224  12.199 -0.0386 -0.1273  0.0267
22737W        W39211   3.484  11.166   1.162 -0.1165 -0.1933 -0.0931
22738W        W39212  17.494  12.022   0.262  0.0838 -0.0581  0.1214
22739W        W39213  10.003   5.795  15.150 -0.0798  0.2092 -0.2035
22740W        W39214  10.303  14.585   3.608 -0.1880  0.0614  0.0833
22741W        W39215   3.106   4.065  14.956  0.0308 -0.2983 -0.3093
22742W        W39216   7.619   6.176   3.078  0.2781  0.0272  0.1452
22743W        W39217  12.831  11.751  16.270 -0.0234  0.0783 -0.0452
22744W        W39218   4.111   4.121   1.209  0.2565  0.0198 -0.0053
22745W        W39219   1.536   2.361  16.290 -0.0179  0.0943  0.1635
22746W        W39220  11.046   0.010  13.352  0.0998  0.0209 -0.2839
22747W        W39221   0.046   2.294   4.705  0.2952  0.0768 -0.1215
22748W        W39222   8.844   0.077  13.762  0.0995  0.0212  0.1527
22749W        W39223  14.862   0.973   0.447  0.1143 -0.2651 -0.0158
22750W        W39224  12.922  14.138   4.091 -0.1157  0.0021 -0.6185
22751W        W39225   8.419  15.229   2.578 -0.0456  0.2357  0.0681
22752W        W39226  14.099   4.082   0.612  0.1571 -0.2840  0.1866
22753W        W39227   5.084  10.963   1.649  0.5617 -0.0331 -0.1875
22754W        W39228   9.012   6.272   3.733 -0.0787  0.1166  0.0717
22755W        W39229   2.217  15.914  12.007 -0.0874 -0.4066 -0.0807
22756W        W39230   5.170   9.788  15.514  0.2662 -0.0892 -0.3149
22757W        W39231  11.906   5.921   5.799 -0.0302 -0.0446  0.2297
22758W        W39232  10.886  11.169   3.472 -0.1712 -0.1126 -0.3192
22759W        W39233   6.114  17.117  12.534  0.1115 -0.1051  0.0838
22760W        W39234  10.986  16.821  14.541 -0.0657 -0.1901 -0.0910
22761W        W39235  17.489   5.424   4.290  0.2075 -0.1596 -0.0675
22762W        W39236   4.563   7.934   4.114  0.0832 -0.0848  0.0291
22763W        W39237  13.496   7.064  11.978 -0.0498 -0.1646 -0.1662
22764W        W39238   0.715  16.188   1.181 -0.0677  0.2107 -0.0969
22765W        W39239  15.276   5.329   1.816 -0.0846  0.0138 -0.0887
22766W        W39240   5.905   1.512   1.282  0.0467  0.1990  0.0157
22767W        W39241   8.607   6.924  12.225  0.1458  0.0968  0.1515
22768W        W39242   4.962  11.855   0.137 -0.0862 -0.1967  0.0264
22769W        W39243  11.893  12.238   1.517  0.1727 -0.0736  0.3594
22770W        W39244  14.568  16.687   4.519 -0.2052  0.1685  0.5505
22771W        W39245  14.043   0.278  14.833 -0.1136  0.0847 -0.0467
22772W        W39246  11.089   5.794  13.788 -0.0001  0.2881 -0.0458
22773W        W39247   8.997  14.222  14.232  0.1034  0.0963  0.1837
22774W        W39248  16.310  16.912  13.927 -0.1073  0.0042  0.0227
22775W        W39249  15.169   8.312  12.180 -0.1398 -0.0509  0.0224
22776W        W39250   8.077  14.861  13.742  0.1011 -0.1699 -0.1562
22777W        W39251   8.328   1.533  13.197 -0.2053  0.4010 -0.1359
22778W        W39252  15.682  13.666   1.314 -0.3617  0.4793 -0.1487
22779W        W39253  17.222   4.632   2.533 -0.1239 -0.0657 -0.1252
22780W        W39254  14.717  10.212  15.565  0.1466  0.2284  0.0641
22781W        W39255  16.023  12.446  14.131 -0.0753  0.2904 -0.2724
22782W        W39256   7.754  18.010  14.949  0.2774 -0.2735  0.1342
22783W        W39257   5.290  12.116   3.552  0.0015  0.0394 -0.0552
22784W        W39258   3.627   4.243  12.633  0.2057  0.2679 -0.0938
22785W        W39259   2.135  17.051   1.286 -0.0794 -0.0636  0.3289
22786W        W39260   5.790   0.547  10.960  0.1802  0.1655 -0.2053
22787W        W39261  14.571  14.117  12.940 -0.1355  0.1731 -0.2378
22788W        W39262  14.978   4.017  14.091 -0.3396 -0.2660 -0.0622
22789W        W39263  12.785  17.416   0.258  0.0313 -0.1565  0.0433
22790W        W39264  17.775   8.130  13.978 -0.0647 -0.0034 -0.0066
22791W        W39265  11.089   5.581   5.272 -0.0238 -0.2995  0.0262
22792W        W39266  11.805   9.354   2.443  0.1062  0.1908  0.2649
22793W        W39267  11.251  12.291   0.134 -0.0102  0.1624 -0.4031
22794W        W39268   2.690  13.497  11.388 -0.1980  0.1251 -0.0491
22795W        W39269   7.662  17.409   1.007 -0.2154 -0.1008 -0.0234
22796W        W39270   0.807  18.201   4.730 -0.1292  0.1751  0.2802
22797W        W39271  16.371   8.071  11.447 -0.0227  0.2732  0.2250
22798W        W39272  17.650  10.946   2.480 -0.1778  0.0304 -0.2941
22799W        W39273  14.194  16.409  13.019  0.0053 -0.0715 -0.0209
22800W        W39274  11.427   5.402   1.734  0.2273  0.3332  0.1765
22801W        W39275   3.192  11.240  14.978 -0.0122  0.1542  0.0837
22802W        W39276  15.896  17.883   2.291  0.0262 -0.0176 -0.2439
22803W        W39277   7.387   0.618  13.984  0.0279  0.1221  0.1407
22804W        W39278  10.492   1.747  13.977  0.3211  0.0527  0.1383
22805W        W39279   7.624   8.983  16.283  0.1016  0.0388 -0.0310
22806W        W39280  13.086   2.428   3.481 -0.0155  0.2825 -0.0511
22807W        W39281   8.593   6.598  14.766 -0.1928  0.0955 -0.0468
22808W        W39282   9.364  15.264   3.454 -0.1438  0.0501 -0.1685
22809W        W39283   2.777  11.354   0.404 -0.1155 -0.0031  0.2453
22810W        W39284   2.033   8.762   4.771  0.1500 -0.2712  0.2528
22811W        W39285   5.271  11.231   4.746  0.3863  0.2800 -0.2062
22812W        W39286   8.435   1.395   5.048 -0.1113  0.0191 -0.1692
22813W        W39287   2.144   0.848   4.145 -0.0520  0.1987  0.0517
22814W        W39288   2.713   1.610   4.516 -0.1358 -0.2440 -0.0696
22815W        W39289  15.149   6.760  15.319 -0.0333 -0.0356  0.1030
22816W        W39290  13.581   5.601   0.847 -0.0901  0.0619  0.2363
22817W        W39291   1.160   8.226   3.252  0.0271 -0.1723  0.0540
22818W        W39292   2.919   3.873   3.257  0.2175  0.2051 -0.0152
22819W        W39293   5.619  13.256   2.727  0.1513 -0.1692  0.3406
22820W        W39294   3.803  13.351   5.316 -0.1123 -0.1777 -0.0140
22821W        W39295  14.887   1.020   2.662 -0.0867  0.0311  0.0910
22822W        W39296  17.025  14.923   0.584 -0.0412  0.2387  0.1033
22823W        W39297   5.141   3.788  14.164  0.0634 -0.2820  0.0314
22824W        W39298  10.637  11.191  12.997 -0.1269  0.2846 -0.1002
22825W        W39299   8.468   8.719   4.168  0.1839 -0.2885  0.2488
22826W        W39300   4.905  17.917  15.982  0.1073 -0.1617  0.0880
22827W        W39301   1.528  15.225   0.101  0.0843 -0.0253 -0.0820
22828W        W39302   5.257   0.997   3.996 -0.0885 -0.0983 -0.0027
22829W        W39303  16.865  14.725  15.483 -0.0464  0.0367 -0.3777
22830W        W39304   5.444  13.285  14.433  0.1198 -0.1197  0.0339
22831W        W39305  11.686   7.243   5.037  0.2015 -0.1773  0.1580
22832W        W39306  14.141   9.735  12.293  0.0375 -0.1682 -0.0832
22833W        W39307  16.922  11.482   2.234  0.0660  0.1682 -0.1755
22834W        W39308   8.896   2.632   0.746  0.3815 -0.1147  0.0707
22835W        W39309  17.146  13.340   4.555  0.0482  0.0462 -0.0582
22836W        W39310   5.846  10.671  11.987  0.0655 -0.3273 -0.3945
22837W        W39311  10.178  14.471  16.007  0.1547  0.3254  0.5245
22838W        W39312   8.881  13.502   4.922 -0.1326  0.0326  0.3243
22839W        W39313   8.720   1.113  13.845 -0.4442  0.1587 -0.2432
22840W        W39314   0.710   2.972   2.324  0.3054 -0.2311 -0.1367
22841W        W39315   9.947   3.811   1.560 -0.0250 -0.1487  0.0141
22842W        W39316   0.684  11.097  11.749  0.0737 -0.0034  0.0945
22843W        W39317  18.324   3.665  12.566 -0.3089  0.2182 -0.3711
22844W        W39318  12.443  15.379  15.291 -0.4249  0.0718  0.3868
22845W        W39319   7.609   9.498  13.467  0.2608  0.0619 -0.1736
22846W        W39320  16.281   5.265   3.497 -0.0428  0.0962  0.1660
22847W        W39321  18.251  11.939   1.192 -0.1439 -0.0166 -0.1770
22848W        W39322  16.750   3.371   0.602 -0.0850  0.1797  0.1119
22849W        W39323   1.521   0.641  13.354 -0.0602 -0.3434 -0.2384
22850W        W39324   0.048   8.222  14.651 -0.3514  0.0331  0.0397
22851W        W39325   7.801   2.683  15.520 -0.1703  0.0508 -0.3144
22852W        W39326  10.773   0.955   0.308 -0.2703  0.2133 -0.1652
22853W        W39327   2.620  12.123   1.103  0.0985 -0.3177 -0.0926
22854W        W39328  15.715   3.976  11.117  0.0390  0.4270  0.2127
22855W        W39329   4.459   6.439  16.235  0.0991 -0.2790 -0.0379
22856W        W39330   4.780  12.450   4.397  0.0236  0.2068 -0.2201
22857W        W39331   9.741  12.114   3.908  0.1010  0.1403 -0.0693
22858W        W39332   1.098  15.323   1.507  0.0502  0.2083 -0.0846
22859W        W39333  16.907   9.274  10.746 -0.1568  0.1064  0.0446
22860W        W39334   2.907   1.556  13.960 -0.2421 -0.1039 -0.0169
22861W        W39335   2.377   6.663   0.861 -0.0262 -0.0871 -0.1786
22862W        W39336  15.727   5.636  14.671 -0.3099  0.0662  0.1997
22863W        W39337   9.329  11.688   3.904 -0.0648 -0.0497 -0.0349
22864W        W39338  10.018  15.664   1.770 -0.1033 -0.1195 -0.0615
22865W        W39339  15.393   7.098   5.164  0.1605 -0.0702 -0.0295
22866W        W39340  12.605   7.980   0.192 -0.0931  0.2993  0.3171
22867W        W39341   7.519   3.834   1.684 -0.1091  0.0358 -0.2463
22868W        W39342   5.020  11.335  11.590  0.0105  0.1281 -0.0240
22869W        W39343  10.107   3.735  11.530  0.0116  0.0030  0.3017
22870W        W39344   4.187   1.733  11.228 -0.3652 -0.3096 -0.0162
22871W        W39345  16.971  10.849  12.777 -0.0132  0.0363 -0.1086
22872W        W39346   5.187   8.751   3.909 -0.1690 -0.2314 -0.0108
22873W        W39347   0.981  13.081   2.713 -0.0498  0.2980  0.0661
22874W        W39348   0.703   1.480   0.782 -0.2605  0.0198  0.2345
22875W        W39349  17.560  18.133   0.368 -0.2997 -0.0214 -0.2634
22876W        W39350   7.205   5.959   1.102 -0.0035  0.0005 -0.4106
22877W        W39351   9.852   4.816   3.268  0.1783  0.1425  0.0225
22878W        W39352  10.308  10.604   4.806  0.1601 -0.0363  0.0676
22879W        W39353  10.873   2.186  14.883 -0.1071 -0.1251  0.4107
22880W        W39354   9.660   7.275   4.121 -0.2507  0.0566 -0.1299
22881W        W39355  18.305   3.192   4.619 -0.0869  0.1816  0.3186
22882W        W39356  15.984  14.303   1.250 -0.1094  0.1991  0.4032
22883W        W39357   0.451   4.859   4.692  0.1745  0.0961 -0.0063
22884W        W39358  13.891  12.646  11.412 -0.1829 -0.1764  0.2591
22885W        W39359  16.776  15.611  14.918  0.0923 -0.0109  0.2586
22886W        W39360  10.433   1.250  11.148  0.2288 -0.0967  0.0225
22887W        W39361  11.613  11.354  12.484 -0.1533 -0.2397  0.0759
22888W        W39362  15.045   8.289   4.894  0.1053 -0.1393  0.2046
22889W        W39363  16.050   8.815  11.808  0.0649 -0.0814 -0.1380
22890W        W39364   4.190   9.362  14.842  0.0911 -0.1375  0.1404
22891W        W39365   1.080   7.300  14.846 -0.0394  0.1077  0.3194
22892W        W39366  14.401   1.029   2.033  0.1199  0.0052 -0.1369
22893W        W39367  14.853   7.337  11.332  0.1442 -0.0526  0.1765
22894W        W39368  10.346   1.462  12.382 -0.0073 -0.1440  0.0414
22895W        W39369  17.553   3.905   0.272  0.1999  0.0243 -0.0406
22896W        W39370   9.593  12.406  14.087 -0.2312  0.0293  0.3655
22897W        W39371   0.325   2.923  15.515  0.1326  0.1040 -0.0845
22898W        W39372   7.287   9.423   2.082  0.1459  0.0121  0.1177
22899W        W39373   5.996  14.207  11.696  0.0206  0.0643 -0.0310
22900W        W39374   3.809   0.614  15.183  0.0433 -0.1639  0.1978
22901W        W39375  13.108  12.691   0.984  0.0224 -0.0777 -0.0186
22902W        W39376  10.024   7.309  13.644 -0.1569  0.0749  0.2032
22903W        W39377  18.301   2.617   0.336  0.2475  0.0611 -0.4685
22904W        W39378   9.777  14.398  12.194 -0.1880  0.2023  0.1923
22905W        W39379   1.162  15.757  15.135 -0.1216  0.0692  0.1416
22906W        W39380   2.428  15.330   1.229  0.0327  0.2722  0.3215
22907W        W39381  16.338   1.825   0.905  0.1842 -0.1336 -0.0771
22908W        W39382   7.029  16.612   2.982  0.0586 -0.1036  0.1626
22909W        W39383  16.517   1.056   2.941  0.3075 -0.1677  0.0143
22910W        W39384   2.223  18.248   4.497  0.1380  0.2334 -0.0027
22911W        W39385  13.717  15.750   0.758 -0.0021  0.0838 -0.1217
22912W        W39386  13.891   7.203   4.527 -0.0159 -0.0619  0.0085
22913W        W39387   4.676   2.087  13.909 -0.1040  0.0962  0.1058
22914W        W39388  16.116  16.299  15.217  0.1947  0.0016  0.1335
22915W        W39389  12.355  17.223  13.322  0.0212 -0.3445  0.3478
22916W        W39390  16.657   0.926   4.730 -0.0820  0.1860  0.2246
22917W        W39391   7.337   2.030  15.286 -0.1613 -0.3478  0.0308
22918W        W39392  11.479   1.004   2.322  0.0368  0.2331  0.2304
22919W        W39393  12.318   1.916  15.859 -0.0105 -0.0009 -0.0497
22920W        W39394   3.096  13.198  14.707 -0.3917  0.2377 -0.0844
22921W        W39395  13.194  11.635  14.736 -0.1547  0.2562  0.0427
22922W        W39396  15.924   1.330   2.796 -0.1880 -0.2395 -0.0362
22923W        W39397  16.706  14.218  14.601 -0.2676 -0.0006  0.0661
22924W        W39398   8.439   0.922  14.836  0.0991  0.0504 -0.2505
22925W        W39399   9.277   4.120   2.951 -0.1014  0.0218  0.1895
22926W        W39400  15.628  17.395   4.548  0.0753  0.1230  0.1620
22927W        W39401   1.892  15.740  16.320  0.1372 -0.1697  0.2538
22928W        W39402   4.636   5.183  11.846 -0.0363 -0.1908 -0.0865
22929W        W39403   2.905  12.039   2.033  0.2067  0.2566  0.0352
22930W        W39404   1.416   9.149  11.629 -0.2317  0.2114 -0.0787
22931W        W39405   4.905  13.653   3.206 -0.0652 -0.1659 -0.2046
22932W        W39406   8.775   2.996  12.276  0.2834 -0.2964 -0.0970
22933W        W39407   0.515   8.218  15.003 -0.1241 -0.0066  0.0534
22934W        W39408   3.943   9.367  15.588 -0.0147 -0.0208  0.0721
22935W        W39409   4.188   8.508  11.627 -0.2631 -0.0592 -0.0702
22936W        W39410   0.154   0.419  16.314 -0.2757 -0.0565  0.1211
22937W        W39411   0.590   5.899  13.439 -0.2776  0.3028  0.2732
22938W        W39412  17.828   7.227   2.745  0.3347  0.2281  0.0698
22939W        W39413  13.432   3.050   3.224  0.0640  0.0483 -0.5363
22940W        W39414  15.009   8.734  14.972 -0.1380 -0.5096  0.0510
22941W        W39415   4.996   6.138   0.836 -0.0900  0.0597 -0.0578
22942W        W39416  15.913   3.648   4.672  0.2622  0.3135 -0.0473
22943W        W39417  14.014   4.124  10.535  0.2581  0.1309  0.1130
22944W        W39418   8.356   0.350   3.419 -0.1826 -0.0043 -0.0076
22945W        W39419  17.133  15.471   0.810  0.0806 -0.1121 -0.1151
22946W        W39420   2.245  12.629  15.737 -0.0643  0.1461  0.0996
22947W        W39421   5.638   5.359  14.317  0.2151 -0.0506  0.0722
22948W        W39422   3.527  11.124   3.989  0.3643  0.2710  0.0148
22949W        W39423   9.748   5.854  11.440  0.1913 -0.3217 -0.1340
22950W        W39424  14.167  16.055  11.764 -0.4955 -0.0926 -0.1321
22951W        W39425   2.912   5.658  13.909  0.0255 -0.0160 -0.0346
22952W        W39426   1.727   1.384  11.815 -0.1471  0.0750 -0.1529
22953W        W39427   6.372   8.186  15.955 -0.1646  0.1395 -0.1029
22954W        W39428  15.870   2.392  14.588  0.2204 -0.0279 -0.2456
22955W        W39429   4.327   3.872  12.994 -0.1513 -0.0581  0.1590
22956W        W39430  15.441   6.582   1.971 -0.0671  0.2340  0.3116
22957W        W39431   9.481   2.545   0.285  0.0703  0.1520  0.4420
22958W        W39432   1.230  12.183   0.958  0.0393  0.0129  0.2287
22959W        W39433   4.162  11.217   4.771  0.0320  0.1174  0.0162
22960W        W39434   5.359   7.993   4.993  0.1797 -0.0319 -0.1141
22961W        W39435  12.996   2.881  12.286  0.1135  0.1875 -0.0277
22962W        W39436  13.791   7.157  15.052 -0.1212  0.0442 -0.2109
22963W        W39437   2.835   2.449   4.615  0.4704 -0.0967  0.3429
22964W        W39438  10.106  10.020   3.354 -0.3585 -0.3752 -0.3190
22965W        W39439  13.586   8.855   2.083  0.0768  0.4034  0.0058
22966W        W39440  10.094   9.561   3.619  0.0368 -0.0446  0.0024
22967W        W39441   5.732  10.118   2.010  0.0229 -0.2381 -0.0471
22968W        W39442  13.870   8.581   3.526 -0.2363 -0.0986 -0.0287
22969W        W39443  14.174  15.274   2.071 -0.0584  0.0130 -0.3173
22970W        W39444  13.497  11.926  15.104  0.0792 -0.4558  0.3275
22971W        W39445   6.498  10.198  13.506  0.1194  0.0151 -0.2573
22972W        W39446   7.630  17.850   1.867  0.4072  0.3129  0.3153
22973W        W39447  16.207  13.892   2.901 -0.2049  0.0004  0.0749
22974W        W39448   7.855  11.895  11.631 -0.1260 -0.1422  0.2955
22975W        W39449  16.935  10.774  11.685 -0.1644  0.0992  0.2147
22976W        W39450  17.463  14.272   4.498  0.1557  0.2965 -0.1575
22977W        W39451   9.311   5.176   1.925  0.0169  0.0325 -0.3865
22978W        W39452  17.418  15.044   2.825 -0.0327  0.4207  0.0808
22979W        W39453  17.271   6.488   4.068  0.2849  0.0377  0.0098
22980W        W39454   3.705   0.129  12.357 -0.0146 -0.1337  0.1752
22981W        W39455  17.090  16.579  14.793  0.2535 -0.1624  0.3804
22982W        W39456   6.327  11.561   4.434 -0.1743  0.0584  0.0872
22983W        W39457   1.355  11.066  14.420 -0.4493 -0.0368 -0.0681
22984W        W39458  17.274  12.410  14.409 -0.0611 -0.1168 -0.1539
22985W        W39459   5.886   5.809   2.760 -0.0090 -0.0576  0.2907
22986W        W39460  15.288  12.675   3.838 -0.2625 -0.1867  0.3011
22987W        W39461   5.822  14.906  14.834  0.3863 -0.0662 -0.1816
22988W        W39462  13.949   7.288   2.692  0.1346  0.0449 -0.1243
22989W        W39463  13.622   8.213   1.781 -0.1424 -0.4535  0.1351
22990W        W39464  18.177  16.658   0.916  0.2525 -0.1184  0.3290
22991W        W39465  15.844   6.651  16.252 -0.0651  0.0579 -0.0795
22992W        W39466   6.826  11.451   2.486  0.1676  0.1682  0.0651
22993W        W39467   9.755   0.204  11.994  0.0308  0.0744 -0.0873
22994W        W39468   9.288  11.757  13.404 -0.5043  0.2008  0.0371
22995W        W39469  14.911  17.303   0.539  0.1498  0.0506  0.2587
22996W        W39470  13.080  13.146   1.491  0.2509  0.2599 -0.1215
22997W        W39471  12.385   5.153  15.987  0.0296  0.0386  0.1697
22998W        W39472  12.891  16.789   4.747 -0.0996  0.1117  0.0424
22999W        W39473  11.904   6.173   3.330 -0.2276 -0.3275  0.0074
23000W        W39474  14.880  17.390  11.648  0.1710  0.1668  0.3317
23001W        W39475   6.081   0.687  11.552 -0.1153  0.3290  0.0321
23002W        W39476  14.654   8.772  11.371 -0.2226  0.0848  0.1254
23003W        W39477  16.504  15.463   5.821 -0.0655  0.0174  0.2656
23004W        W39478  17.676  10.510   3.910 -0.0775 -0.0953 -0.0985
23005W        W39479  16.546  13.640  11.526  0.1028 -0.2016 -0.1175
23006W        W39480  17.147   9.456   2.308 -0.0184 -0.3054  0.2427
23007W        W39481  11.296   4.623  11.688 -0.1092  0.0593  0.1243
23008W        W39482  15.880  14.524  11.456  0.0323  0.5158  0.0878
23009W        W39483  10.202  14.310   2.039 -0.1929  0.0808 -0.0373
23010W        W39484   1.616   9.369   0.679  0.0960 -0.2168 -0.1549
23011W        W39485   9.970  17.700  14.088  0.1237  0.5138 -0.3225
23012W        W39486   1.882  11.258  11.336  0.2212  0.1333 -0.1640
23013W        W39487  17.300  12.814   4.908 -0.2812 -0.0837 -0.1151
23014W        W39488  18.234  11.568   2.870 -0.0430 -0.2345  0.4851
23015W        W39489   3.551   7.615   5.377  0.0089  0.0124 -0.1589
23016W        W39490  15.791  13.357  14.484  0.1688 -0.0808  0.1363
23017W        W39491   6.101   7.958  15.564 -0.2429  0.0497  0.0811
23018W        W39492   7.467   9.331   4.600 -0.3442  0.0477  0.4172
23019W        W39493   4.014  10.945   0.411 -0.1754 -0.0521 -0.0281
23020W        W39494  14.549  12.913  13.434 -0.1003 -0.1222  0.4507
23021W        W39495   7.397   0.587   3.068  0.0067  0.1125 -0.1180
23022W        W39496  11.433   6.021  14.021  0.0410 -0.2675  0.0829
23023W        W39497   2.383  15.561  16.179 -0.1780 -0.2573  0.1034
23024W        W39498   9.845  13.021   0.868 -0.0307  0.1868  0.0264
23025W        W39499  17.648   6.925  13.739 -0.0434 -0.1219 -0.1449
23026W        W39500  11.022  14.565   5.187 -0.0047  0.0101  0.3687
23027W        W39501  16.628   7.907   1.178  0.0578  0.0255  0.2619
23028W        W39502   1.844  15.930   0.846 -0.2084  0.2577  0.3113
23029W        W39503   0.568   4.546   3.484  0.2824 -0.3629 -0.0633
23030W        W39504  11.135   7.523  13.045  0.1523 -0.0240 -0.3584
23031W        W39505   2.249   9.485   1.233  0.2085 -0.2515  0.0341
23032W        W39506   1.771   4.730   1.595 -0.4036  0.1489  0.0063
23033W        W39507   6.890   0.140   4.724  0.0908  0.1521 -0.0265
23034W        W39508   5.335   0.734   0.263  0.1763  0.0000  0.0739
23035W        W39509  15.929   7.319  15.178 -0.0330  0.1378 -0.0004
23036W        W39510  15.538  14.288   3.853 -0.0559 -0.0096  0.1748
23037W        W39511  15.223   5.998   4.918 -0.2590  0.1094 -0.3657
23038W        W39512   8.528   0.047   3.711 -0.0154 -0.2191  0.2647
23039W        W39513  14.124  16.029   0.449 -0.0146  0.1546  0.2545
23040W        W39514   0.984   7.432  13.995 -0.0103  0.0556 -0.1631
23041W        W39515   8.185  16.050   0.979 -0.1742  0.0365 -0.2309
23042W        W39516   7.307  17.224  11.148  0.2056 -0.1908  0.0555
23043W        W39517  13.133   3.133   6.028  0.2671  0.0335  0.2810
23044W        W39518  18.106   9.196  15.600  0.1574  0.4890 -0.0600
23045W        W39519  15.696   8.989   4.477 -0.3041 -0.2770  0.2517
23046W        W39520   5.730   4.011  11.362 -0.2058 -0.0572 -0.0974
23047W        W39521   2.399   5.971   2.986  0.2736 -0.2019  0.0776
23048W        W39522   6.410  12.851  12.386 -0.2197  0.2393  0.3048
23049W        W39523   9.242  13.382  13.595  0.0635  0.1577  0.2729
23050W        W39524   8.460  15.464   0.117  0.1364  0.0685  0.1364
23051W        W39525  10.911  14.271   4.128 -0.0444 -0.4610 -0.0948
23052W        W39526   1.509   5.247  10.547  0.0957 -0.0680 -0.0447
23053W        W39527  17.976  13.980   4.878  0.2939  0.1024  0.4486
23054W        W39528   3.968  13.516  11.588 -0.0295 -0.0243 -0.0229
23055W        W39529   2.656   4.641   1.587 -0.2844  0.1452  0.0696
23056W        W39530  12.071   5.981   4.176 -0.1802  0.1811  0.0174
23057W        W39531   8.232   5.273  10.179 -0.1455  0.1141 -0.0841
23058W        W39532   3.709   6.046   2.972 -0.1557 -0.2963  0.1012
23059W        W39533   7.347   8.826   5.023 -0.0770 -0.2685 -0.0416
23060W        W39534   5.211   3.428   0.442  0.1333  0.2772 -0.0776
23061W        W39535   4.053   3.038   0.730  0.3835  0.0732  0.0643
23062W        W39536   9.998  12.274  15.252  0.1104  0.4841 -0.0283
23063W        W39537   7.922  13.311   4.926  0.1137 -0.0042  0.0397
23064W        W39538   5.437  10.911   1.093 -0.1450 -0.2541 -0.1411
23065W        W39539  11.832   1.424   2.761 -0.0190 -0.0101 -0.1565
23066W        W39540   7.647  12.734   0.077 -0.0397  0.1203  0.2403
23067W        W39541   2.636  17.221   2.916  0.1025 -0.1678  0.0561
23068W        W39542   3.223   6.784   3.262 -0.1733  0.1689 -0.3667
23069W        W39543   8.441  12.294   3.293 -0.1239  0.2219 -0.1286
23070W        W39544   5.610   0.390  13.903  0.1842 -0.2150  0.1714
23071W        W39545   8.505   9.671   4.396 -0.0457 -0.1922 -0.1364
23072W        W39546  17.346  15.806   1.950 -0.1491 -0.1642  0.0492
23073W        W39547   6.940   8.163  15.975 -0.1301 -0.8968 -0.0344
23074W        W39548   6.657  15.735  11.263  0.1620  0.0243 -0.1211
23075W        W39549   2.824   8.128   5.117 -0.1484  0.5550  0.3162
23076W        W39550  10.077  14.526  12.564 -0.0219  0.2675  0.0163
23077W        W39551   7.364   5.513   5.295 -0.0732  0.2544  0.1723
23078W        W39552   2.506   5.938  15.715 -0.0408  0.2899  0.0760
23079W        W39553  12.235   2.656  14.300  0.1143 -0.1522  0.1458
23080W        W39554   0.251  15.652  10.686  0.0670  0.1506  0.0107
23081W        W39555   3.031  10.626  10.992 -0.0375 -0.0030 -0.0715
23082W        W39556   7.679  16.415   3.465  0.1690  0.1054 -0.1273
23083W        W39557  14.464   9.015   2.160 -0.3151 -0.3122  0.0951
23084W        W39558   8.743  11.878  16.039 -0.3554  0.0747  0.0967
23085W        W39559  14.009   9.101   0.780 -0.0396  0.0643  0.1282
23086W        W39560   7.928   2.782   2.591  0.0614 -0.2972 -0.1944
23087W        W39561   2.062   3.947   3.009 -0.0524  0.1880 -0.3039
23088W        W39562   2.427   3.999  14.108  0.0807  0.0673 -0.2341
23089W        W39563  13.489  14.002  14.289 -0.1718  0.0343 -0.0616
23090W        W39564   9.979  10.894   0.930 -0.1685  0.0232  0.0821
23091W        W39565   3.393   2.522   3.558 -0.0535  0.1219 -0.0742
23092W        W39566  17.546  10.569  15.106  0.0100 -0.0170  0.0724
23093W        W39567  13.657   3.436  11.947 -0.1739 -0.1709  0.2276
23094W        W39568  10.879  16.012   4.701 -0.0770  0.0487  0.1137
23095W        W39569   8.276   6.887  13.044  0.0072  0.3004  0.3009
23096W        W39570  11.354  15.769  15.297 -0.1532 -0.1761 -0.2878
23097W        W39571  13.851  10.420   2.091 -0.1538  0.1865 -0.0918
23098W        W39572   6.301  15.998   0.624  0.1594  0.1507  0.0424
23099W        W39573  16.064  14.066  15.193 -0.1724  0.1862  0.3631
23100W        W39574  11.165   4.032   4.312  0.0292  0.0713  0.0566
23101W        W39575  10.594   7.922   5.496  0.0044  0.0790 -0.1968
23102W        W39576   7.897  17.572  12.429  0.0141 -0.0942  0.3117
23103W        W39577   1.904  13.081   2.388 -0.1329  0.1132  0.0723
23104W        W39578   9.062   4.195   3.866  0.0411  0.0753 -0.3503
23105W        W39579   1.630   1.847  11.577 -0.0035 -0.1029  0.1809
23106W        W39580   0.755  11.864   0.606 -0.3563  0.3603  0.1287
23107W        W39581  14.916   2.472   3.980 -0.3151  0.0898 -0.0136
23108W        W39582   4.982  10.484  13.310  0.0340  0.0423 -0.0064
23109W        W39583  14.427   5.971  13.664  0.1624  0.1863 -0.1611
23110W        W39584  16.212   1.175   5.586 -0.1078 -0.0041  0.1939
23111W        W39585  16.441  12.632   2.505 -0.0305 -0.0908 -0.0804
23112W        W39586   4.081   4.417   0.390  0.2402  0.2021  0.3596
23113W        W39587  15.577   3.387  15.276  0.1774 -0.5264  0.1064
23114W        W39588   9.534  17.502   2.507 -0.0103  0.3006  0.0828
23115W        W39589   9.529   0.065   0.101  0.1829 -0.0515  0.1563
23116W        W39590   2.738  13.430   5.282 -0.1101 -0.0933  0.0661
23117W        W39591  11.012  13.417  16.044  0.1080 -0.0311 -0.2221
23118W        W39592   4.754  11.015   2.055 -0.1971  0.2872 -0.2293
23119W        W39593   6.686   0.671  11.975 -0.1219  0.3393 -0.2356
23120W        W39594  13.945   9.098  13.477  0.2275  0.0467  0.1363
23121W        W39595  14.703  11.927  13.671  0.0490 -0.1248  0.0920
23122W        W39596   2.387  10.039  11.489 -0.1256 -0.4730 -0.1543
23123W        W39597   2.582   4.951  13.495 -0.1343 -0.0217  0.2483
23124W        W39598  15.420   4.588  14.240 -0.2988 -0.1307 -0.1746
23125W        W39599  12.436  15.467  16.280  0.0183 -0.0992 -0.0355
23126W        W39600   9.002  17.780  14.647  0.0038  0.1455  0.0693
23127W        W39601  16.054   1.867   4.132  0.1761  0.4017  0.1606
23128W        W39602  15.462   5.779  16.053  0.1649 -0.2987 -0.2608
23129W        W39603  12.034   9.596  16.214 -0.0754  0.1735 -0.2306
23130W        W39604  18.301   9.649  11.591 -0.3343  0.1700  0.0256
23131W        W39605  10.477  12.325   4.173  0.0432  0.2405  0.1919
23132W        W39606   9.872  13.131  14.968  0.0198  0.0456 -0.0108
23133W        W39607  10.746  12.618   3.219 -0.0608 -0.0206  0.0655
23134W        W39608   2.848   8.015  12.054 -0.0562 -0.2101  0.0857
23135W        W39609  13.942   9.621  13.574  0.1371  0.0607  0.0506
23136W        W39610   9.655   7.751   5.960  0.0526 -0.0477  0.0192
23137W        W39611   3.148   3.301  16.021  0.0973  0.1862 -0.3761
23138W        W39612  17.628   9.601  15.202  0.2759  0.4103  0.1239
23139W        W39613  15.667   0.708  11.859  0.0530 -0.0262  0.1807
23140W        W39614  10.733   1.351  13.745  0.1301  0.1127  0.1431
23141W        W39615  10.150  11.537  12.271 -0.0404 -0.2255 -0.0574
23142W        W39616  10.498  11.590   5.263  0.0091  0.0475 -0.0408
23143W        W39617  10.054   3.675   9.943 -0.0637  0.0404 -0.1492
23144W        W39618  11.602   2.384  11.079 -0.0236 -0.0525 -0.0400
23145W        W39619  17.998   0.555   4.296  0.0049 -0.2557 -0.0255
23146W        W39620  14.607  17.439  14.611 -0.0683  0.1195 -0.1909
23147W        W39621  14.515   8.949   4.691  0.0137  0.0744  0.2377
23148W        W39622  14.906  16.721  12.588 -0.0381 -0.2649  0.3262
23149W        W39623   9.199  17.024  11.881  0.1366 -0.2603 -0.4769
23150W        W39624  10.987  13.579   4.169 -0.3332 -0.0415  0.0850
23151W        W39625   2.331  13.658   0.981 -0.3694 -0.1294  0.1037
23152W        W39626  10.908   4.329   2.492  0.0718  0.1200  0.2427
23153W        W39627   7.590   2.015   4.209  0.1606  0.1485 -0.1353
23154W        W39628  12.007  17.141   2.018  0.1713 -0.1426  0.2267
23155W        W39629   7.848   0.499   2.844 -0.3152  0.1928 -0.0083
23156W        W39630   1.769  10.721  11.422  0.2788  0.2247  0.2776
23157W        W39631   4.262  13.614  13.061  0.0824 -0.0030 -0.0032
23158W        W39632   0.463  16.701  11.610  0.1034 -0.0208 -0.2011
23159W        W39633   4.800  18.110   4.968  0.0513 -0.2833  0.1368
23160W        W39634   0.943  15.903  12.145 -0.1583 -0.0985  0.0410
23161W        W39635  14.996  14.874   4.368  0.1568  0.1359  0.3644
23162W        W39636   9.295   0.865  13.189 -0.1721 -0.1312  0.1676
23163W        W39637   1.459   5.664   3.413  0.3038 -0.4040 -0.1052
23164W        W39638  11.438  17.714  15.609  0.2190 -0.2369 -0.0958
23165W        W39639   5.357   3.595   4.225  0.0769 -0.0074 -0.2887
23166W        W39640   4.491  17.514  12.757  0.0019  0.0624  0.1333
23167W        W39641  10.651   3.560  12.217  0.0299 -0.0318  0.0210
23168W        W39642  17.840  14.884   2.515 -0.0805 -0.0276  0.2075
23169W        W39643  16.882   7.598   2.590 -0.0475  0.0519 -0.0127
23170W        W39644  10.874  10.809  11.477  0.3900  0.2853 -0.0996
23171W        W39645  17.893  15.545   4.346 -0.2590  0.1214 -0.0004
23172W        W39646   2.802   6.512   5.392 -0.2739  0.2338 -0.0087
23173W        W39647  15.276   6.271   2.913 -0.1582  0.2438  0.2595
23174W        W39648  18.073  11.611  12.819  0.0797  0.2291  0.0010
23175W        W39649   7.365  10.659  12.798 -0.2470  0.1916  0.1717
23176W        W39650  10.969   1.224  11.870  0.4148  0.2056 -0.0566
23177W        W39651   8.034   9.226   6.105 -0.1350  0.1032 -0.3887
23178W        W39652   3.747   4.813   2.837  0.0148  0.1347 -0.0031
23179W        W39653   1.632   5.944   0.932  0.4389  0.1841 -0.0570
23180W        W39654   2.235  17.679  12.716 -0.0074  0.0003 -0.1581
23181W        W39655  17.478  15.915   4.341  0.1581  0.2689 -0.2319
23182W        W39656  17.425  13.351  15.212  0.1924  0.1494  0.0296
23183W        W39657   8.074   1.601  14.199 -0.2408 -0.0090 -0.0726
23184W        W39658   3.677   6.459   1.013  0.0548 -0.1969  0.1785
23185W        W39659  14.071  10.569  16.303 -0.0719  0.0661 -0.0142
23186W        W39660  16.517   4.890  12.576  0.0041  0.2283  0.1091
23187W        W39661   6.669   7.162  16.112 -0.0776 -0.1088  0.0834
23188W        W39662   8.056   2.152  16.303 -0.2272 -0.2704 -0.1465
23189W        W39663   6.587  18.308   2.801  0.3807  0.1089  0.2673
23190W        W39664   5.685   4.916   6.016 -0.4277  0.0653  0.2032
23191W        W39665  15.405  10.468  14.354  0.0680 -0.0320  0.0591
23192W        W39666   1.530  15.235   4.365 -0.0740  0.1709 -0.2662
23193W        W39667  13.402   3.823  15.711 -0.3072 -0.0518 -0.1100
23194W        W39668  15.725   9.729   3.144  0.0039 -0.2051 -0.1379
23195W        W39669  11.851   6.223  11.267 -0.2243 -0.4221  0.0097
23196W        W39670  12.567   5.736  12.551 -0.2456 -0.1578  0.0744
23197W        W39671  14.875   6.075  12.391 -0.3240  0.1021 -0.1407
23198W        W39672   1.272  13.250  12.368 -0.0135 -0.3401  0.2277
23199W        W39673  18.156   0.864  16.181 -0.2488  0.0320 -0.0737
23200W        W39674  10.481  15.969  13.921 -0.1663 -0.2436 -0.1387
23201W        W39675   4.310  10.129   0.301  0.0184  0.1930  0.0488
23202W        W39676  15.400   1.471   4.630 -0.1229  0.4950 -0.3065
23203W        W39677  14.213   0.789   0.868  0.1228  0.1148 -0.0785
23204W        W39678   0.682   1.627   1.736  0.0534 -0.0348 -0.0026
23205W        W39679  13.965  12.907   2.149 -0.0619 -0.0687 -0.0651
23206W        W39680   2.267   3.551  12.316  0.0124  0.0519  0.2951
23207W        W39681   7.291   0.453  12.669 -0.2035  0.2421 -0.0728
23208W        W39682  15.358   5.779  13.848  0.2013 -0.2639 -0.1003
23209W        W39683   0.535   6.421  16.306 -0.3448 -0.2157  0.0793
23210W        W39684  15.368   3.487  14.760 -0.3131 -0.1728 -0.0884
23211W        W39685  10.018   8.986  12.608 -0.1292 -0.4412  0.2105
23212W        W39686   5.438   1.730   2.656 -0.1432 -0.0815 -0.1890
23213W        W39687  12.941   9.946  14.085 -0.1353 -0.1539  0.0451
23214W        W39688   5.278   1.184  11.390  0.2177  0.2345  0.1536
23215W        W39689   9.243   5.862   3.865 -0.0691 -0.1097  0.0402
23216W        W39690   3.246   9.088   2.143 -0.0372 -0.1465  0.0928
23217W        W39691  15.419   6.167  15.659  0.0648  0.0975  0.0930
23218W        W39692   2.704   9.452   2.436 -0.2559 -0.0491 -0.0540
23219W        W39693   2.029  12.357   5.089  0.0682 -0.0237 -0.1535
23220W        W39694   8.641  10.490   2.133  0.4996  0.2806  0.0052
23221W        W39695  13.467   0.637   5.754 -0.1176 -0.0572 -0.4106
23222W        W39696   6.594   8.696   1.757 -0.0303  0.0334  0.2170
23223W        W39697  17.425   2.916   4.382  0.2554  0.0349  0.4830
23224W        W39698  17.299  17.489  15.717  0.0462 -0.0845  0.3516
23225W        W39699  14.989  10.893   3.794 -0.1431  0.0073 -0.3428
23226W        W39700   1.656   5.961  14.455 -0.0399 -0.1879  0.0118
23227W        W39701   6.248   0.400  11.160  0.0441  0.0487 -0.2213
23228W        W39702  15.385  17.576   2.082 -0.0759  0.1469 -0.1330
23229W        W39703   4.894   0.044  12.244  0.1155 -0.1594 -0.2972
23230W        W39704   9.840   6.430   1.538  0.0268 -0.0898 -0.4103
23231W        W39705  10.575  12.441   5.965  0.1040  0.1378 -0.0219
23232W        W39706  12.154  14.020   6.055 -0.0046 -0.0162  0.1429
23233W        W39707  12.175   5.781  12.073 -0.0268  0.1707 -0.0793
23234W        W39708   3.635  16.448  13.210 -0.2195  0.0496  0.3942
23235W        W39709  11.240  17.664   5.111 -0.0324  0.2252 -0.2006
23236W        W39710  16.274   1.230   4.490 -0.1456 -0.0789 -0.1149
23237W        W39711   3.179  10.746  13.897 -0.1961  0.0992  0.2047
23238W        W39712   5.278   8.395   3.540 -0.1778  0.1973  0.4154
23239W        W39713  11.398  14.412   3.828 -0.0570  0.1851  0.2663
23240W        W39714   0.084  16.709   2.534  0.0697  0.1755  0.1221
23241W        W39715  17.929   6.979  14.450 -0.0698 -0.2632  0.0398
23242W        W39716  16.552  16.125   1.777 -0.1418 -0.0792 -0.0981
23243W        W39717   7.586   0.792   1.062  0.1220 -0.4412 -0.4163
23244W        W39718   5.407  15.588  14.538  0.0084 -0.4101 -0.0767
23245W        W39719   4.113   5.203  11.728  0.0336 -0.0453  0.0013
23246W        W39720  10.907   7.946  13.706 -0.1322 -0.1891  0.1875
23247W        W39721   1.274  17.817   3.024 -0.0451  0.0537  0.4021
23248W        W39722  17.159   6.121   6.266  0.0106  0.3538  0.0338
23249W        W39723  16.713   2.176  13.071  0.1743 -0.4089  0.0116
23250W        W39724   9.154  13.384  16.046  0.2068  0.0338 -0.0323
23251W        W39725  16.384   5.275  15.593 -0.2217 -0.0938  0.2234
23252W        W39726   0.159  16.479   0.161 -0.1556 -0.3690 -0.0638
23253W        W39727  13.387   8.627   4.200 -0.0544 -0.1478  0.0900
23254W        W39728  11.266  18.051   5.875 -0.2737  0.4847  0.2298
23255W        W39729   7.264   7.949   1.994 -0.3011  0.0524 -0.1020
23256W        W39730   5.596  10.319  12.541  0.0513  0.0409  0.5156
23257W        W39731  12.509   3.560   3.218 -0.0544  0.3482  0.0482
23258W        W39732   0.394   9.663   0.001 -0.1871 -0.0597 -0.0067
23259W        W39733   5.557   2.965  13.198 -0.0968 -0.0879 -0.1074
23260W        W39734   4.648  12.266  15.242  0.0258 -0.1841  0.2183
23261W        W39735  15.640   7.470  14.200  0.1282 -0.0817  0.5296
23262W        W39736  12.306   7.327   4.261 -0.0275  0.0184 -0.0364
23263W        W39737   1.295   3.910  12.564 -0.2449 -0.1015  0.0948
23264W        W39738  15.221  11.103  13.302  0.4139 -0.3597  0.0847
23265W        W39739  12.365  13.975   4.425 -0.0314 -0.2553  0.1423
23266W        W39740  12.883   3.372  16.302  0.0704  0.0846 -0.2614
23267W        W39741   9.777   6.204   4.684 -0.0316 -0.0289 -0.2761
23268W        W39742   3.463   8.467   3.714 -0.0300  0.3142 -0.3381
23269W        W39743  10.700   6.354  16.082 -0.3808 -0.2653 -0.1971
23270W        W39744  14.031   7.031  13.496 -0.0130  0.3863 -0.0593
23271W        W39745  14.354   0.349   2.193  0.3061  0.1296 -0.1351
23272W        W39746   7.014   1.983  14.858 -0.0548 -0.0111  0.1287
23273W        W39747   7.631   3.543  15.120 -0.2363  0.0456 -0.0757
23274W        W39748  13.695  14.797   1.813 -0.0433  0.0439  0.0125
23275W        W39749   8.427   8.753  10.998  0.0968  0.0596 -0.1221
23276W        W39750  10.968  17.954  12.442  0.4576 -0.2457  0.0456
23277W        W39751   2.788  17.565  13.466  0.3990 -0.0864 -0.0111
23278W        W39752   3.257  18.035   0.074  0.0415  0.1796  0.1284
23279W        W39753   0.163   8.554   2.579 -0.2309  0.0057 -0.0142
23280W        W39754  17.589  16.537  16.025 -0.1486 -0.0412 -0.1487
23281W        W39755  10.329  10.663  12.177 -0.0360 -0.0486 -0.0746
23282W        W39756  14.951  18.029   2.665  0.2816  0.0985  0.1472
23283W        W39757  11.211   3.072  13.851  0.0020  0.0562 -0.2155
23284W        W39758   4.330  14.676  14.633 -0.0492 -0.2034  0.3220
23285W        W39759   7.794  12.998   5.268  0.0518 -0.3225  0.2114
23286W        W39760  15.867   0.283   2.931 -0.0752  0.0655  0.0420
23287W        W39761  14.497   6.024   5.718  0.0039  0.2436  0.1143
23288W        W39762   2.504  14.959  11.910  0.0512 -0.2954 -0.0954
23289W        W39763   9.390  14.743   5.089 -0.1178  0.1608 -0.2139
23290W        W39764   3.484  10.179   4.344  0.1800 -0.1132 -0.1749
23291W        W39765  13.436   8.455  15.589  0.0024 -0.0349  0.2331
23292W        W39766  15.057   4.937   5.611  0.2219  0.2072 -0.0233
23293W        W39767  15.073   4.102  15.020  0.1625  0.0674 -0.1254
23294W        W39768   7.132   1.188  16.080 -0.1740  0.0318  0.2290
23295W        W39769   8.599   2.219  16.258  0.2015  0.0258  0.1666
23296W        W39770   0.805   0.345   1.176 -0.2673  0.0395  0.4335
23297W        W39771  12.490  17.495   5.554 -0.1605  0.1138 -0.1135
23298W        W39772   4.343   3.617  16.076  0.0021 -0.0127  0.1374
23299W        W39773   2.420  16.543   0.787  0.0517 -0.1624 -0.2226
23300W        W39774  12.942  16.769   1.080 -0.1103  0.1211  0.0095
23301W        W39775  16.400  12.216  13.230 -0.0125  0.1545 -0.0795
23302W        W39776  12.583   5.006   1.462  0.1591  0.1409 -0.1958
23303W        W39777  12.847  10.538   3.642 -0.0726  0.0917  0.1378
23304W        W39778   9.681  12.978  13.892  0.0545  0.1426 -0.1703
23305W        W39779   1.781   8.818  11.456  0.0492 -0.0981  0.1407
23306W        W39780  13.208  14.825   6.385  0.2590 -0.0521  0.0014
23307W        W39781  10.946   4.482  13.764 -0.1558 -0.1357  0.0437
23308W        W39782  12.989  12.488   2.400  0.0311  0.3160  0.3215
23309W        W39783   0.849   6.926  13.724  0.0859  0.4285 -0.2620
23310W        W39784  13.132  13.395  12.175 -0.1452 -0.3922  0.2335
23311W        W39785  12.759  10.325   3.157 -0.0533 -0.4894 -0.0593
23312W        W39786  17.702   3.626  11.519 -0.0573  0.2398  0.0301
23313W        W39787  11.307  15.947  12.414 -0.2490  0.0959  0.2689
23314W        W39788   5.509   9.226  11.977  0.0994 -0.1163 -0.1072
23315W        W39789   2.083  17.114   4.040  0.2333  0.1198  0.0663
23316W        W39790  14.353  11.977  15.629  0.1364  0.0393 -0.2004
23317W        W39791   7.428  11.140   0.206  0.0299 -0.0902  0.0289
23318W        W39792   7.128  12.529  12.720  0.1498  0.2301  0.0246
23319W        W39793  16.981   6.625   0.098 -0.0733 -0.2075 -0.1249
23320W        W39794   6.538   3.618  11.464 -0.2130  0.1412 -0.1056
23321W        W39795   4.026  11.105  15.945 -0.2714 -0.2047 -0.2101
23322W        W39796   0.233   2.203  15.008 -0.0276  0.0837  0.0570
23323W        W39797   8.130  15.662   2.246 -0.0308 -0.3073 -0.2653
23324W        W39798  16.028   8.408   3.301 -0.1556 -0.1215  0.1168
23325W        W39799  17.621   5.372  15.233 -0.0271 -0.0842  0.0835
23326W        W39800  11.973  17.955  13.603  0.6716  0.2650 -0.1068
23327W        W39801  15.910  10.207  14.297 -0.2404  0.1110  0.1000
23328W        W39802  11.469  11.822   0.066  0.1467 -0.1589 -0.0910
23329W        W39803  10.546   6.828  15.121 -0.0740  0.0555 -0.1281
23330W        W39804   3.474   7.289  11.620  0.0301  0.0089 -0.0268
23331W        W39805  14.658   6.107   0.284 -0.0639  0.1372  0.1683
23332W        W39806   3.755   5.614  11.719 -0.1287 -0.0872  0.2395
23333W        W39807  14.866   1.119   5.174  0.2591  0.0829 -0.1018
23334W        W39808   9.488   9.371   2.165  0.1731  0.2277  0.0143
23335W        W39809  17.679   3.279  15.325 -0.2386 -0.1214 -0.1142
23336W        W39810   8.382   2.076   2.789 -0.1325  0.0176  0.0732
23337W        W39811  15.779   8.449   2.831  0.0404 -0.0536  0.0640
23338W        W39812  15.222   4.493   0.528 -0.0712 -0.3263  0.0039
23339W        W39813  17.410   0.141  13.690  0.1281  0.0060  0.1878
23340W        W39814  12.963  16.884  11.690 -0.3040  0.3482 -0.1619
23341W        W39815   7.279  15.767   2.243  0.0419  0.0400  0.1393
23342W        W39816  17.517   6.902  14.766 -0.2258  0.0003  0.1559
23343W        W39817  11.516  13.514  12.393  0.2126 -0.1283 -0.0017
23344W        W39818  11.036  18.042  15.504  0.2829 -0.1010 -0.1917
23345W        W39819  12.388   0.553   0.696  0.0102  0.2003  0.1353
23346W        W39820  18.155   1.208  12.962 -0.1973  0.2416 -0.2782
23347W        W39821   4.875   2.892   4.417 -0.1115  0.2587  0.1215
23348W        W39822   5.326  14.310  12.490  0.0449 -0.0993 -0.0685
23349W        W39823   4.500   5.618  13.927  0.0770  0.1061  0.1229
23350W        W39824   3.305  11.144   5.210  0.1738 -0.1990 -0.0932
23351W        W39825   2.459   7.821  12.376 -0.0306  0.0981 -0.1313
23352W        W39826  17.069   1.028   3.449 -0.2077  0.3603  0.0198
23353W        W39827  11.400  12.845  12.533  0.2057  0.1942  0.2566
23354W        W39828  13.480  13.743  15.639  0.0358 -0.1274  0.3465
23355W        W39829   3.269   6.724  13.212 -0.0551 -0.2182 -0.1562
23356W        W39830   6.501   9.551  12.143  0.1130  0.0142 -0.1608
23357W        W39831  14.476   4.318   2.387 -0.3249 -0.2433 -0.1679
23358W        W39832   2.177   1.770   3.161 -0.0952 -0.0967  0.0998
23359W        W39833   3.669   2.819   3.279  0.2129 -0.0000 -0.0374
23360W        W39834  11.320   4.982  16.191  0.0909 -0.1085  0.2521
23361W        W39835  11.530   2.896  13.466 -0.2218  0.3061  0.0029
23362W        W39836  12.929  12.031   2.270 -0.1159 -0.1836 -0.3119
23363W        W39837   3.214   4.118  11.120  0.1919 -0.0513  0.2919
23364W        W39838   3.253   4.362  15.946  0.3350 -0.1175  0.0524
23365W        W39839   4.301   2.586   4.527 -0.2297  0.2095  0.1161
23366W        W39840   7.845   6.377   5.694  0.1652 -0.0292 -0.0368
23367W        W39841   5.296   8.956   0.891  0.0244  0.0395 -0.3080
23368W        W39842   3.985  10.652   3.628 -0.1836 -0.1450  0.0541
23369W        W39843  14.348   4.316  11.447 -0.0725 -0.1587 -0.1531
23370W        W39844   4.915  15.495  13.653 -0.1838 -0.1466 -0.0473
23371W        W39845  17.082   7.443   4.121  0.0954 -0.1077 -0.1491
23372W        W39846  13.512  10.843   6.166  0.1937  0.0483  0.2890
23373W        W39847  13.990   2.558   2.947 -0.1328  0.1022  0.0453
23374W        W39848   8.571   1.135   2.988  0.0795 -0.1702 -0.2556
23375W        W39849  12.006   3.872   3.375 -0.0768 -0.0920 -0.1708
23376W        W39850  16.455   7.610  12.760 -0.0154  0.0363 -0.0831
23377W        W39851   6.403   7.506   0.034 -0.0274  0.1415  0.1416
23378W        W39852   0.619   9.851   2.608  0.3225 -0.1276 -0.2574
23379W        W39853  17.229   2.011   3.802  0.1667 -0.1797 -0.0769
23380W        W39854   3.938  10.432   0.478  0.1297  0.1213  0.1629
23381W        W39855   5.813  17.140   0.733  0.3323 -0.2185  0.1355
23382W        W39856  17.354   9.133   1.160  0.1098  0.0014 -0.3134
23383W        W39857  15.045   7.211  16.184  0.2611  0.2165  0.0815
23384W        W39858   0.453   3.994   4.329 -0.1181 -0.1848  0.1740
23385W        W39859  13.333  12.013  13.548 -0.0266 -0.0643 -0.0796
23386W        W39860  12.945   0.906  11.861  0.1456  0.3859  0.1789
23387W        W39861  15.430   2.269  12.804  0.1835  0.0278 -0.1359
23388W        W39862  10.954   1.465   2.395  0.1482  0.3173 -0.2872
23389W        W39863  15.367   3.915  14.535  0.0939 -0.0205  0.0380
23390W        W39864   1.804  15.475  13.530  0.0333 -0.1192  0.0380
23391W        W39865   3.577  16.817   0.177  0.2388 -0.0251  0.1667
23392W        W39866  16.779  15.886   2.596  0.0556 -0.4369  0.2026
23393W        W39867  11.998   3.755   2.333 -0.0742 -0.1766 -0.0314
23394W        W39868  11.601   6.357   2.362  0.2168 -0.0648 -0.2142
23395W        W39869   5.674  16.830  13.527 -0.0752  0.0161 -0.4003
23396W        W39870   1.735  15.672   4.334  0.1871  0.3530  0.2291
23397W        W39871   7.158  14.765   5.254  0.0092  0.0803  0.2388
23398W        W39872   9.662   7.434   0.976 -0.1669  0.1834  0.0203
23399W        W39873  10.954   4.913   4.775 -0.1943  0.1084  0.0140
23400W        W39874   7.661  11.374  14.537  0.0098 -0.1205  0.0805
23401W        W39875   8.745  15.417  13.535 -0.1598 -0.0004 -0.3734
23402W        W39876  14.932   4.417   4.764  0.0037 -0.1816 -0.2617
23403W        W39877   5.663   5.753  15.106 -0.2448 -0.1643  0.0093
23404W        W39878   1.164  13.795   0.146 -0.0270  0.2248  0.0082
23405W        W39879  11.954   9.982   1.887  0.2219  0.0358 -0.2206
23406W        W39880   9.482   0.623  11.886 -0.0171 -0.0154  0.1652
23407W        W39881   8.561   5.975   2.367 -0.1069 -0.0989  0.1307
23408W        W39882   0.142   3.014   5.275 -0.0945 -0.1131 -0.2445
23409W        W39883  12.553   0.189  11.389  0.4445  0.0563 -0.1999
23410W        W39884   3.027  16.991   5.179 -0.1363 -0.1469 -0.1593
23411W        W39885   8.724   2.360   3.125  0.0802 -0.1979  0.0822
23412W        W39886  18.310  16.522   4.489 -0.2841 -0.0569 -0.0519
23413W        W39887  17.777  17.759  15.831 -0.1633 -0.0940  0.2123
23414W        W39888  10.902  17.007  15.051 -0.3398 -0.1702 -0.2436
23415W        W39889  18.196  16.772   3.465  0.0790  0.0150  0.2747
23416W        W39890  12.013  14.050  15.892  0.3525 -0.0564  0.0639
23417W        W39891   6.061   2.342   0.866 -0.1911 -0.0988 -0.1357
23418W        W39892  18.294   4.331  14.464  0.1133  0.1059  0.1648
23419W        W39893   3.677   2.454   4.060  0.0885 -0.3107 -0.2927
23420W        W39894   5.507   7.905  13.761  0.1326 -0.0611  0.1591
23421W        W39895   7.970  11.345   1.764  0.2094  0.1448 -0.0243
23422W        W39896  17.169  11.899   4.973  0.0026 -0.3064 -0.2957
23423W        W39897  14.157   6.104   0.494 -0.1023 -0.2316  0.2402
23424W        W39898  17.480   7.418  14.626 -0.0464 -0.1988  0.0171
23425W        W39899   8.538   8.760  16.257  0.1904 -0.0572 -0.1004
23426W        W39900  17.850  12.205  15.849  0.0473 -0.3145  0.1679
23427W        W39901  16.553   2.032  13.472  0.0268  0.1273 -0.0194
23428W        W39902   1.744  11.160  16.270 -0.2272  0.1477  0.2000
23429W        W39903  17.589   9.800   3.144 -0.3195 -0.0370 -0.0535
23430W        W39904   1.191   3.575   1.609 -0.0273 -0.1500 -0.0476
23431W        W39905  11.077  13.270   5.786 -0.1853 -0.2430  0.1200
23432W        W39906   2.736   4.351  13.245 -0.1831 -0.0041  0.2770
23433W        W39907  11.032  15.272   3.845  0.1601 -0.1212 -0.1423
23434W        W39908   6.329  17.309   2.103  0.2036  0.1726 -0.0522
23435W        W39909  14.819  14.474   4.612  0.2428 -0.0434 -0.3298
23436W        W39910   9.851   8.253   4.211  0.1411  0.2997 -0.1656
23437W        W39911   5.691   9.301   4.405  0.1219  0.1571 -0.1752
23438W        W39912   8.633  14.605   4.420  0.1093 -0.2419 -0.2413
23439W        W39913   5.953   0.002  10.956  0.2724 -0.0356  0.1922
23440W        W39914   0.784   4.025  13.309  0.2248 -0.2238  0.1784
23441W        W39915  11.331   4.217  15.557  0.2001 -0.3935  0.0772
23442W        W39916   1.657   9.520   1.517 -0.1429  0.1907  0.0591
23443W        W39917  14.668   7.604   4.117  0.1785 -0.1913 -0.0091
23444W        W39918   9.369   6.106   0.300 -0.1757 -0.0054  0.2031
23445W        W39919  13.217  13.786  11.405  0.0828  0.4577 -0.0834
23446W        W39920  11.102   9.731  15.220 -0.0472 -0.0077 -0.0123
23447W        W39921  16.598  13.225   3.153 -0.0157 -0.1128  0.2161
23448W        W39922   7.817   2.882   4.211 -0.0057  0.0829  0.1876
23449W        W39923  13.002  11.080   0.472 -0.2940 -0.0071  0.0822
23450W        W39924   5.350  11.452  15.558 -0.3804 -0.1699  0.1379
23451W        W39925  13.467   1.753  15.337  0.0047 -0.1619  0.1430
23452W        W39926   2.906   1.880   3.687 -0.0285 -0.2964 -0.1675
23453W        W39927  16.258   2.039   2.820  0.4446 -0.1252  0.3607
23454W        W39928  13.614   7.379   1.139  0.0151  0.0584  0.1444
23455W        W39929   4.037   2.912  15.932  0.0082  0.2036 -0.0044
23456W        W39930  18.167  11.330   5.217  0.0332 -0.0209 -0.1489
23457W        W39931   5.959   2.609   2.891 -0.0797  0.0394  0.0541
23458W        W39932  10.639   5.551   2.946  0.1330 -0.1891  0.0948
23459W        W39933   6.796   9.404  14.417  0.0748  0.1089  0.1116
23460W        W39934  15.489  10.619   4.682 -0.2168  0.0445  0.0334
23461W        W39935   0.977  13.516   3.688  0.0210 -0.0828  0.2495
23462W        W39936  13.594  16.591  15.084 -0.0245 -0.3180  0.1939
23463W        W39937   4.009   5.703   0.682 -0.0104 -0.3959 -0.1223
23464W        W39938   8.670   4.426   4.823 -0.2977 -0.3327  0.1324
23465W        W39939  14.663   2.562   1.184 -0.3549  0.1611 -0.1176
23466W        W39940   8.779   1.429  16.225 -0.1157 -0.1257  0.1448
23467W        W39941   5.804  13.717   4.489  0.1059  0.0437 -0.3729
23468W        W39942  17.901  13.796   0.448  0.3079  0.1531 -0.2721
23469W        W39943  17.473  12.086  12.082  0.2308  0.1483 -0.0074
23470W        W39944   1.426  12.005  14.136  0.1619  0.1724  0.0002
23471W        W39945   1.120   7.360  13.465  0.0187  0.0425  0.0743
23472W        W39946   4.763   7.512   4.198 -0.1371  0.0790 -0.3136
23473W        W39947   0.943  15.149   0.146  0.3846 -0.0026 -0.0492
23474W        W39948  16.356  12.209   0.162  0.3295 -0.2556  0.1751
23475W        W39949  15.936   5.659   3.333  0.1945  0.0641 -0.2154
23476W        W39950  15.639  12.417  15.120 -0.0958 -0.1512 -0.4766
23477W        W39951  11.492   6.694   0.745  0.0243  0.1870  0.0219
23478W        W39952   3.388   5.612  14.172  0.3419 -0.0297 -0.1606
23479W        W39953   5.285  14.842  10.854  0.1026  0.1554 -0.1720
23480W        W39954  15.313   0.881   1.201 -0.1327  0.2321 -0.1847
23481W        W39955  16.297   5.653  16.024 -0.0550  0.2620 -0.3606
23482W        W39956  11.742  15.753  13.191  0.1685  0.0942 -0.0304
23483W        W39957   0.794  12.900   0.591 -0.1947  0.0022  0.0494
23484W        W39958  12.827   7.429  10.698 -0.0419  0.0546  0.1612
23485W        W39959   1.737  13.030   0.728  0.1245 -0.1648  0.0670
23486W        W39960  10.465   7.073   3.139  0.1304  0.1312 -0.2013
23487W        W39961  17.296  13.898   1.242 -0.1567 -0.0671  0.1617
23488W        W39962   7.683  15.151   1.150  0.0341  0.1044  0.1895
23489W        W39963  11.906   5.646   2.935  0.1467 -0.0886 -0.1309
23490W        W39964   9.744   4.193  13.082 -0.1322  0.3622  0.1757
23491W        W39965  18.106  16.992  11.836  0.1507 -0.0802  0.0075
23492W        W39966   5.806   0.979   4.755  0.1866  0.0181 -0.0861
23493W        W39967  16.422   9.970  11.329  0.0328 -0.1539 -0.1116
23494W        W39968  12.932   6.005   5.910  0.2563  0.2468  0.2157
23495W        W39969  13.231  14.083  12.987  0.0753 -0.1518 -0.1138
23496W        W39970   7.561   0.519  10.772  0.2284 -0.0743  0.3433
23497W        W39971   9.398   8.878   1.968 -0.0936  0.1525  0.0055
23498W        W39972   4.977   5.744  13.668 -0.0123 -0.2793  0.0354
23499W        W39973  16.227   2.151  13.042  0.0354 -0.0411 -0.1141
23500W        W39974   4.749  15.907  12.618  0.1706  0.0360 -0.1479
23501W        W39975   7.028  10.251   0.453  0.0890  0.2265  0.0700
23502W        W39976   3.587   8.386   0.415 -0.0233  0.1326 -0.2060
23503W        W39977   5.220  12.390  14.764  0.7544 -0.0889 -0.1011
23504W        W39978   1.022  16.391   4.103  0.0494 -0.0812 -0.0953
23505W        W39979   9.460   8.570  15.702 -0.1093 -0.3677  0.0139
23506W        W39980   7.331  13.006  12.769  0.0443 -0.0635 -0.2731
23507W        W39981   7.971   2.106   4.651 -0.2476 -0.1092 -0.0175
23508W        W39982  15.892  10.497  15.224 -0.1765  0.1228  0.1714
23509W        W39983   2.372  13.187   4.350 -0.3294  0.3915 -0.0032
23510W        W39984   0.704   7.995   4.192 -0.0664 -0.0521 -0.0265
23511W        W39985  13.937   8.012   0.961  0.1303 -0.1121  0.0921
23512W        W39986  15.987   5.693  13.156 -0.0160  0.3912 -0.2944
23513W        W39987   7.600  12.615  13.532  0.0580 -0.0295  0.1014
23514W        W39988  11.788   9.334  14.143  0.1053  0.1343 -0.1293
23515W        W39989   3.276   8.085   2.348  0.1289 -0.1858 -0.0062
23516W        W39990   9.077   3.023   5.300 -0.0189  0.1443  0.3675
23517W        W39991  11.077  17.301   2.045  0.1086 -0.1239 -0.0590
23518W        W39992   3.249   6.472  12.440 -0.1565 -0.0623  0.2246
23519W        W39993   6.309  13.663  14.596  0.0001  0.1184 -0.0396
23520W        W39994   3.962   6.809   1.224 -0.0631 -0.4121 -0.0336
23521W        W39995   3.344   9.941  13.389 -0.4082 -0.2054 -0.1998
23522W        W39996   1.088   2.057  11.607 -0.1244  0.0740  0.2482
23523W        W39997   1.543   6.949  14.711 -0.1871  0.0284  0.1185
23524W        W39998   2.591  15.716   0.419 -0.2071 -0.0584  0.2707
23525W        W39999  15.953  15.651   2.209 -0.0961 -0.0731 -0.4864
23526W        W40000  15.541   8.021  12.943  0.2111 -0.1298 -0.0748
23527W        W40001  13.739  15.659  15.424  0.3069  0.0831  0.1537
23528W        W40002  10.890   5.523   3.913 -0.0887  0.2973 -0.0229
23529W        W40003   3.339  14.932   0.145  0.2264  0.2090  0.2367
23530W        W40004   8.579  12.897   2.718 -0.0111 -0.1246 -0.0229
23531W        W40005   2.688   3.599   5.932 -0.2237 -0.0182  0.2288
23532W        W40006  15.758   5.110  11.629 -0.0431  0.1781  0.0217
23533W        W40007  15.915  13.367  13.615 -0.3819  0.1305 -0.0034
23534W        W40008  11.103  17.596   0.988 -0.0330 -0.0042  0.0208
23535W        W40009   7.574   0.250  14.312 -0.0416  0.3201  0.1984
23536W        W40010   7.879   9.808  12.672  0.0228  0.0371  0.0946
23537W        W40011   3.968  13.437  12.110 -0.2133 -0.1216 -0.2341
23538W        W40012   0.134   6.972   0.956  0.4356 -0.1413 -0.1344
23539W        W40013   4.619  10.563  14.155 -0.1508  0.1888 -0.3030
23540W        W40014  15.777   5.413  15.921 -0.0081 -0.2923  0.0492
23541W        W40015  16.108   1.616   1.810  0.1180 -0.0503  0.2163
23542W        W40016   7.863   4.529   1.134 -0.0144 -0.0361 -0.2024
23543W        W40017   5.867   9.342   5.846  0.0526 -0.0103  0.1437
23544W        W40018   9.962  17.895  14.596 -0.0028 -0.1824 -0.1153
23545W        W40019   6.934   8.771  13.308 -0.1354 -0.2597 -0.0040
23546W        W40020  10.628  16.350   5.629  0.1149  0.0048  0.0626
23547W        W40021   7.182   3.030   1.873 -0.0797 -0.3121 -0.0143
23548W        W40022   3.809   1.222   5.694  0.0138  0.0991 -0.1071
23549W        W40023   6.583  16.524   0.702  0.1088 -0.3458 -0.1350
23550W        W40024  11.722   4.283   3.544 -0.1452 -0.1470 -0.0893
23551W        W40025   1.999  13.112  12.504 -0.0179  0.3113 -0.0535
23552W        W40026   0.082  14.106  16.121  0.2022 -0.1177 -0.1276
23553W        W40027  17.129   0.230   5.813 -0.1369  0.3248  0.0351
23554W        W40028   6.387  16.310   2.417  0.2001  0.0861 -0.3598
23555W        W40029   0.684   6.108  14.308 -0.0581  0.0784 -0.2028
23556W        W40030   4.538   3.948   5.297 -0.0821 -0.2019 -0.0489
23557W        W40031  10.442  12.740   1.767 -0.2499  0.0494 -0.1180
23558W        W40032  15.381  12.985  15.946  0.0580  0.0564 -0.1942
23559W        W40033  11.377  13.247   2.286  0.3136 -0.2414  0.1629
23560W        W40034  16.449   4.977  12.058  0.4302 -0.0062  0.0886
23561W        W40035   4.525   0.694   3.016 -0.0730 -0.0900 -0.0743
23562W        W40036  10.777   9.894   5.178  0.2036  0.3869 -0.1673
23563W        W40037   2.783  13.546  12.618  0.2710 -0.2493 -0.2989
23564W        W40038  14.133   5.871  14.902 -0.1388  0.2797  0.0262
23565W        W40039   1.091  13.885  11.561 -0.3290  0.0574  0.3178
23566W        W40040   5.935  14.575  12.478 -0.1409 -0.1242  0.2623
23567W        W40041   1.018   0.556  13.989 -0.0396  0.2775 -0.1342
23568W        W40042  17.311   9.432   4.733  0.2029  0.0080  0.0688
23569W        W40043   4.530   7.649  16.233 -0.0215  0.1698 -0.0838
23570W        W40044  10.954   5.887   4.917 -0.0294 -0.2296  0.3237
23571W        W40045  11.557  17.937   0.142  0.1430 -0.2243  0.0816
23572W        W40046   6.186   0.596   5.055  0.0533  0.1509  0.1818
23573W        W40047   6.128   3.888  14.286  0.2409 -0.0147 -0.0708
23574W        W40048   2.418   0.420   4.493  0.1517  0.0372 -0.0233
23575W        W40049  15.482  13.937  13.164 -0.0078 -0.0586 -0.1466
23576W        W40050   8.150   7.016   4.444 -0.1220  0.1328 -0.0156
23577W        W40051  10.306   5.383   3.657 -0.1139 -0.0183 -0.0347
23578W        W40052   5.239  12.321  12.153 -0.2281 -0.1101 -0.1619
23579W        W40053  12.891  14.912  15.177  0.1893 -0.0823  0.2055
23580W        W40054   3.034   5.777   4.755 -0.0862 -0.2231 -0.1673
23581W        W40055   9.470  17.380  13.327  0.0873  0.0895  0.2405
23582W        W40056   0.556  15.324  13.965 -0.0725  0.2174 -0.1500
23583W        W40057  16.566  15.065   1.291 -0.1821 -0.1209  0.0234
23584W        W40058  15.049   4.865   3.199  0.3294  0.1204 -0.3504
23585W        W40059   9.386  15.328   5.648 -0.2127 -0.0393  0.1789
23586W        W40060  17.630   7.909   4.433 -0.3397 -0.1004  0.1184
23587W        W40061   0.796   2.594   9.847 -0.1202  0.0140  0.0229
23588W        W40062   0.553   6.167  14.768 -0.0044 -0.0655 -0.1360
23589W        W40063  14.109  18.065   4.131 -0.2154 -0.3874 -0.1109
23590W        W40064   0.431   6.266   3.896  0.1759 -0.1374  0.1475
23591W        W40065   1.719  11.115   3.406  0.1284 -0.0466  0.0174
23592W        W40066  16.392   8.608  14.321  0.4420  0.2639 -0.0499
23593W        W40067   0.018  17.238  12.394 -0.2633  0.0597 -0.0695
23594W        W40068   8.364   0.482   0.647 -0.1150 -0.2760  0.2158
23595W        W40069   5.543   9.234   2.404 -0.2318 -0.6520  0.3111
23596W        W40070   7.737  16.739   4.326  0.3948 -0.1826 -0.1199
23597W        W40071  15.126   5.820  11.405 -0.0602  0.0657  0.2980
23598W        W40072   3.352  15.187   3.689  0.2373 -0.4358 -0.0952
23599W        W40073  12.077   4.489   4.745  0.0443 -0.2201 -0.3075
23600W        W40074   6.795   4.730   3.177  0.0699  0.0952  0.0725
23601W        W40075  12.056  18.175  14.108  0.1751  0.0763 -0.1027
23602W        W40076  10.265  17.215  11.553 -0.1285 -0.0789  0.1190
23603W        W40077  12.310  17.233  14.574 -0.1584 -0.2833 -0.2063
23604W        W40078  11.311   1.855  16.270 -0.0225 -0.0022 -0.0625
23605W        W40079  11.724  16.211  12.375 -0.0741  0.2770  0.0459
23606W        W40080  16.750   7.111   0.846  0.3628  0.1599 -0.0629
23607W        W40081  18.129   4.736  15.131  0.0384  0.0674  0.2498
23608W        W40082   9.445   3.245   3.049  0.2066 -0.1866 -0.0715
23609W        W40083   8.759  15.863  14.308  0.3416  0.1611  0.0649
23610W        W40084  16.948   1.021  15.944 -0.0156 -0.2364 -0.2967
23611W        W40085   5.873   2.875  15.971  0.1759 -0.1237  0.2885
23612W        W40086  12.723  11.010   1.634 -0.1173 -0.0180 -0.1836
23613W        W40087   3.197   4.546  11.828 -0.0622  0.0664  0.1815
23614W        W40088  12.980  12.909   0.518  0.0434  0.3527  0.0145
23615W        W40089   2.464  12.092   1.767 -0.0814  0.0253  0.0884
23616W        W40090   6.840  17.851   2.746  0.0293 -0.3924  0.0052
23617W        W40091  11.503   1.743   3.109 -0.2416 -0.0264  0.0014
23618W        W40092   7.570   8.665   1.437  0.1277  0.0038 -0.0956
23619W        W40093   7.381   8.095  16.168 -0.0754  0.2159  0.0254
23620W        W40094   2.874   8.765  11.565 -0.2081 -0.1188  0.0600
23621W        W40095  14.386   5.636  12.874  0.0240 -0.3425 -0.0630
23622W        W40096  15.973   8.782   3.579  0.2718  0.1672 -0.0722
23623W        W40097  11.294   5.487  16.052 -0.3626 -0.3338  0.3773
23624W        W40098  10.075   9.306   5.607  0.0510 -0.2993  0.1090
23625W        W40099   3.913  15.350  12.789 -0.3108 -0.2257 -0.1863
23626W        W40100   9.927   6.813  15.240 -0.1711 -0.0595 -0.0656
23627W        W40101  17.849  13.212   1.051  0.0304  0.2449 -0.3171
23628W        W40102   9.823  14.686   3.801 -0.2748  0.3398  0.1078
23629W        W40103   1.094   4.958   2.914 -0.0648  0.0369 -0.1588
23630W        W40104  14.000  13.128  15.055 -0.0631 -0.3203 -0.0546
23631W        W40105   5.815   9.881   4.419 -0.0539 -0.2711 -0.0907
23632W        W40106  14.794   4.917  15.977 -0.1938  0.0722  0.1286
23633W        W40107   6.098   2.439   2.407  0.3078 -0.3365 -0.1141
23634W        W40108   6.209   0.395   3.470  0.2211 -0.1908 -0.0373
23635W        W40109   9.519   1.052   4.230  0.2278  0.0334  0.1725
23636W        W40110  17.712   9.905   0.742  0.0517  0.0562 -0.1658
23637W        W40111   0.086   9.200  14.666  0.0452  0.1037  0.1402
23638W        W40112  11.817  13.227   1.889  0.3588 -0.2847  0.0515
23639W        W40113   4.677   9.984   5.185 -0.2326 -0.0054  0.3147
23640W        W40114  12.296   4.192  15.481 -0.2766 -0.1148 -0.2350
23641W        W40115  11.405   4.281  14.654  0.1649  0.2505 -0.0733
23642W        W40116  17.967  10.819  12.643 -0.1303  0.1716  0.0433
23643W        W40117   5.445   2.575  12.904 -0.0171 -0.0488 -0.0064
23644W        W40118   4.108  16.033   0.045  0.1506  0.1541 -0.1279
23645W        W40119   6.101  11.906  16.136 -0.1048  0.1740 -0.0931
23646W        W40120  17.804   2.257   2.643 -0.0849  0.2822 -0.1132
23647W        W40121  10.415   2.988   2.140  0.1010 -0.2145 -0.0825
23648W        W40122  16.190   0.569   2.454 -0.0641  0.3879  0.1185
23649W        W40123   0.852   2.073  14.125 -0.0556  0.0450 -0.0499
23650W        W40124   9.150  12.298   1.577  0.0396  0.2772  0.0173
23651W        W40125   3.799   0.475   0.414  0.3108  0.2114  0.1382
23652W        W40126   8.167  17.663  13.721  0.0651 -0.0467 -0.0587
23653W        W40127  17.188  15.559   4.137 -0.1347 -0.0167  0.0127
23654W        W40128   6.285  12.942  11.847 -0.2714 -0.1437 -0.0061
23655W        W40129  15.160   2.374  15.156  0.1965 -0.1167 -0.0327
23656W        W40130  12.475  10.690  13.370 -0.0434  0.4067 -0.2553
23657W        W40131   1.818  16.059  11.665  0.1817 -0.3174  0.0516
23658W        W40132   7.739   9.995   4.099 -0.2452 -0.0884  0.2631
23659W        W40133  15.361  11.352  12.932  0.0658 -0.0736  0.4042
23660W        W40134   5.547  11.951   0.734  0.1040 -0.4783  0.1464
23661W        W40135   2.972  17.575   3.115 -0.1532  0.3536 -0.0512
23662W        W40136   7.716  11.805   1.893  0.1621 -0.2029 -0.0588
23663W        W40137  17.929   0.966  12.550 -0.3573 -0.0740  0.2064
23664W        W40138  14.236   1.205   3.461 -0.1284 -0.0901  0.1197
23665W        W40139   4.782   9.666  13.188 -0.1038  0.0935  0.0385
23666W        W40140  14.570   8.364   0.373 -0.0077 -0.3244  0.3750
23667W        W40141  13.707  16.646  12.241 -0.3322 -0.0055  0.1692
23668W        W40142   4.125   9.872  15.644  0.1683  0.3212  0.0260
23669W        W40143   1.210   5.641   0.744 -0.0173  0.0771 -0.0690
23670W        W40144   8.312   8.255  11.702 -0.0604 -0.0797 -0.0507
23671W        W40145   1.990  10.049  13.752 -0.1524  0.0086  0.2891
23672W        W40146   2.429  16.620  13.293 -0.0139  0.1777  0.2423
23673W        W40147   8.280   0.296  13.861 -0.3865 -0.1089 -0.1442
23674W        W40148  11.158   3.490  13.108  0.0624 -0.1822  0.3516
23675W        W40149   5.563  17.806   0.052  0.1906  0.0443  0.0872
23676W        W40150   9.925   3.148   2.076 -0.4135 -0.0114 -0.0122
23677W        W40151  11.857   0.119   1.141 -0.0529 -0.4202 -0.4650
23678W        W40152   5.299  15.987   4.153 -0.0322 -0.2591  0.4182
23679W        W40153  15.875   2.986   2.300  0.1604 -0.0742  0.3190
23680W        W40154  12.037  12.792   5.874  0.0019 -0.2448 -0.1712
23681W        W40155   4.484   7.007   5.051  0.0404 -0.0009  0.0997
23682W        W40156   0.130  15.440   0.484  0.0921  0.0936 -0.2493
23683W        W40157  17.594  14.166  15.851  0.0213  0.3677  0.0515
23684W        W40158   4.540   0.571   4.532 -0.2318  0.0693  0.0896
23685W        W40159   4.955  15.034  13.306 -0.0372 -0.0561  0.2542
23686W        W40160  11.897  14.512   4.987  0.1690 -0.1214 -0.2567
23687W        W40161   5.630  12.247   3.990 -0.0099 -0.0368  0.1637
23688W        W40162   6.638  10.516   0.650  0.0126 -0.2044  0.0049
23689W        W40163  14.131   7.336   5.690 -0.0641 -0.0242 -0.1365
23690W        W40164  12.875   2.520   4.420 -0.0159 -0.0047  0.0091
23691W        W40165   7.794   2.438  15.018  0.1402 -0.1261  0.0205
23692W        W40166   5.534   3.255   5.342  0.0497  0.1209  0.0637
23693W        W40167   0.637   7.076   1.989  0.3180 -0.0208  0.0860
23694W        W40168  17.490   6.883   0.955 -0.0792 -0.1706  0.0440
23695W        W40169   6.519  17.147  11.118  0.1608 -0.1512 -0.2432
23696W        W40170   4.802  16.609   4.788 -0.0711 -0.1073 -0.1608
23697W        W40171  15.525   6.367  12.750 -0.0333  0.0725  0.0484
23698W        W40172   1.878   8.164  12.092 -0.2215  0.2727  0.3028
23699W        W40173   1.993  14.336   3.078 -0.0827  0.2355 -0.2730
23700W        W40174  16.959   4.354  11.965  0.0720  0.1426 -0.0416
23701W        W40175  18.175  16.037   4.673 -0.0908  0.2376  0.1409
23702W        W40176  17.860   4.006   3.687  0.2685  0.1324  0.1977
23703W        W40177   2.968   3.527  13.460  0.1090  0.2375  0.1326
23704W        W40178   7.461   7.686   1.606 -0.1523  0.0490 -0.0622
23705W        W40179  10.253   3.664  12.563  0.4077 -0.0990  0.2190
23706W        W40180   3.422   4.156   2.311 -0.1204 -0.1219  0.0496
23707W        W40181   8.093   4.160  12.318 -0.0205  0.0084  0.2902
23708W        W40182   0.012  13.580   5.265  0.2031  0.2432 -0.0247
23709W        W40183   9.578   7.370   4.626 -0.1454  0.1553 -0.3188
23710W        W40184   9.741  17.200   2.012  0.0896  0.0497  0.0874
23711W        W40185   0.924   9.721   3.994  0.1846 -0.1457 -0.0384
23712W        W40186  10.382   5.029   5.032 -0.3677 -0.2226 -0.2487
23713W        W40187   4.707   3.507  14.044  0.2853 -0.0597  0.1405
23714W        W40188  11.820  16.320   3.271  0.5066  0.3389 -0.0093
23715W        W40189  18.306   4.288   2.708  0.0755 -0.2251 -0.0154
23716W        W40190   1.386  13.256  15.341  0.0804 -0.0770  0.0031
23717W        W40191  13.506  10.364  11.363  0.1024 -0.4108 -0.1970
23718W        W40192   8.467   7.539  10.930  0.0548 -0.0433 -0.3214
23719W        W40193  18.323   4.610   1.744 -0.0160 -0.1649  0.1722
23720W        W40194   1.598  18.146  16.246  0.0773  0.1121  0.4655
23721W        W40195   1.992   0.905  11.448  0.2373 -0.1026  0.0388
23722W        W40196   1.043  13.789   0.670  0.0841  0.2873 -0.1739
23723W        W40197   5.536   5.451  12.480  0.0626 -0.1803 -0.1122
23724W        W40198   4.094  16.505  13.908 -0.1508  0.0351 -0.5306
23725W        W40199   9.749  11.343  13.125  0.2892  0.0086  0.0105
23726W        W40200  18.276   5.127  15.804  0.0463  0.1058 -0.0460
23727W        W40201  13.807  11.515  14.841  0.0493  0.2670  0.1030
23728W        W40202   4.492  16.513  11.739 -0.0464  0.2086 -0.1067
23729W        W40203  11.425  18.205  15.203 -0.1548  0.2475  0.2041
23730W        W40204   0.586   8.975   0.687  0.0227  0.0631 -0.1138
23731W        W40205   7.864   8.126   4.170 -0.0171  0.3171  0.0561
23732W        W40206  16.589  12.452  11.797  0.0278 -0.4012 -0.2320
23733W        W40207  17.393   3.661   4.394  0.0826  0.0497  0.1101
23734W        W40208  10.644  13.328   5.487 -0.0949 -0.2015  0.2714
23735W        W40209  17.222   2.868  12.165 -0.3874 -0.0121  0.1058
23736W        W40210  11.168   9.653   1.795 -0.0833  0.1909 -0.0616
23737W        W40211   5.555   0.308  11.342 -0.1712  0.0338 -0.1893
23738W        W40212   9.040   2.713  13.274 -0.0857 -0.0259 -0.1627
23739W        W40213  14.942  17.310   2.165 -0.3149 -0.2396 -0.2807
23740W        W40214  16.915   4.041  14.250 -0.2585  0.3084  0.1615
23741W        W40215  14.725  10.387   6.104 -0.5156  0.0037  0.1046
23742W        W40216   0.551  12.185   0.927 -0.0273 -0.3246 -0.1698
23743W        W40217  14.357   6.153   4.444 -0.0100  0.2433  0.3357
23744W        W40218   1.672  11.591   0.448  0.1924  0.1879  0.2085
23745W        W40219   8.309   7.612  14.133  0.0380 -0.3466 -0.0391
23746W        W40220  10.982   3.217  15.603  0.0388  0.0890  0.1391
23747W        W40221  12.616   8.054   2.649 -0.0650 -0.0020  0.2098
23748W        W40222   9.304   9.729  13.296  0.0011  0.1327 -0.0276
23749W        W40223  17.395   7.908  11.581  0.0019 -0.0330 -0.3806
23750W        W40224   3.613   7.364   2.120  0.0117  0.3272 -0.0529
23751W        W40225  16.693   1.050   0.524  0.1561 -0.0980 -0.0539
23752W        W40226   9.149   7.323  11.985 -0.1191  0.0720  0.0055
23753W        W40227  17.810  10.560   0.056  0.0553  0.1141 -0.0096
23754W        W40228  13.882  17.206   4.779 -0.0980 -0.1554  0.0664
23755W        W40229   8.142  17.284   1.441  0.0031  0.0323  0.0288
23756W        W40230   8.272   9.222  12.918 -0.2096 -0.1908 -0.0528
23757W        W40231  15.665   4.493   2.662  0.1419 -0.0906 -0.1179
23758W        W40232  11.836   2.033  13.606 -0.1120  0.1164  0.1974
23759W        W40233   3.786  18.220   1.165  0.0611  0.0629 -0.0692
23760W        W40234   7.569  11.333   5.468  0.0561 -0.1203 -0.3393
23761W        W40235   1.982  16.574   2.587 -0.0386  0.0412  0.4009
23762W        W40236  13.929   8.530  11.687  0.1622  0.0861  0.2344
23763W        W40237   3.052  15.019   2.735 -0.0691  0.2288 -0.1007
23764W        W40238  16.092  13.676   3.382  0.1312  0.2855  0.1946
23765W        W40239   9.652   5.023  12.506 -0.0123 -0.2527 -0.1318
23766W        W40240   1.353   5.737  14.005 -0.3211  0.4171  0.0350
23767W        W40241   6.809   4.587   1.520  0.0643  0.0378 -0.3365
23768W        W40242  17.073  12.337  10.159  0.1221  0.1613  0.4762
23769W        W40243   4.795   4.801  13.846  0.3313  0.0069  0.2974
23770W        W40244   0.565  17.426  13.436  0.0237  0.1077 -0.0966
23771W        W40245   1.953   8.270  16.167  0.1494 -0.0327  0.0048
23772W        W40246  12.595  17.606  15.227 -0.3893  0.1398 -0.0618
23773W        W40247   7.088  17.881   1.578  0.1590  0.0653  0.3065
23774W        W40248   7.764   3.420   5.676 -0.0326 -0.0061  0.1676
23775W        W40249  17.090  11.707  12.218  0.0527 -0.0515 -0.1107
23776W        W40250   6.990  11.078  16.239 -0.1620  0.0287 -0.1858
23777W        W40251   0.581  14.079  12.343  0.0579  0.2660 -0.0522
23778W        W40252  13.414  17.295   5.297 -0.0839  0.0554  0.1855
23779W        W40253  11.822  14.904  15.461 -0.0124  0.0309 -0.3866
23780W        W40254   8.903  15.707  11.699  0.2774  0.4382 -0.0457
23781W        W40255  10.105   7.044   5.443  0.2957 -0.1785 -0.1134
23782W        W40256  16.060   3.935   4.013  0.0113  0.0063  0.0851
23783W        W40257  16.871   2.317   0.461  0.2006  0.1668 -0.0961
23784W        W40258   4.595   1.857   3.561  0.0481  0.3648  0.0123
23785W        W40259  16.446   8.173   1.600 -0.1257  0.0641  0.2402
23786W        W40260   4.122   4.327  11.875 -0.1365 -0.2154  0.2415
23787W        W40261   5.425   7.984   1.362  0.0857  0.1589 -0.1887
23788W        W40262  10.432  16.783  15.196  0.1305  0.0646 -0.0644
23789W        W40263  14.226  10.302   1.708  0.0999  0.1703  0.1648
23790W        W40264   0.524   3.718  13.054 -0.0369 -0.0137  0.1660
23791W        W40265  18.127   1.873   3.275 -0.0421 -0.0354  0.1115
23792W        W40266  16.691   4.419  16.100  0.1297  0.0884 -0.2217
23793W        W40267   1.171   1.926   3.606  0.0182  0.3066  0.1175
23794W        W40268  14.886   0.494   4.396 -0.2000  0.3058  0.0124
23795W        W40269   9.933   8.288   3.013 -0.1073 -0.2145 -0.0000
23796W        W40270  10.924   2.995  11.051 -0.2045  0.1279  0.0788
23797W        W40271  14.833  17.786   1.317  0.1957  0.0213 -0.1381
23798W        W40272   9.440  10.654   2.293  0.2374  0.1393  0.2093
23799W        W40273  12.975   3.970   5.292  0.1451 -0.0757  0.0207
23800W        W40274  11.516  17.580  13.560  0.0266 -0.1901  0.1444
23801W        W40275  14.998  18.107  12.800 -0.2287  0.0775  0.0469
23802W        W40276  10.447   4.027  11.231 -0.0359  0.0669  0.3192
23803W        W40277   8.963   8.305  13.857  0.1191  0.1013  0.1410
23804W        W40278   2.789   9.719  15.958  0.0757  0.2307 -0.0316
23805W        W40279   7.884   9.728   0.756 -0.3421  0.1743 -0.1352
23806W        W40280  13.027  14.985   1.564  0.2230 -0.0047  0.1313
23807W        W40281   6.893   2.283  15.267  0.4189 -0.3396 -0.1783
23808W        W40282  10.248   4.225   4.566  0.3763 -0.0069 -0.1502
23809W        W40283  12.383  18.149  14.977 -0.1237 -0.0367 -0.0249
23810W        W40284  11.344  16.663  14.128  0.0926  0.5569 -0.0614
23811W        W40285  13.782  10.505  14.586  0.1989  0.2834  0.1962
23812W        W40286   9.625   1.983  11.963 -0.0482 -0.1988 -0.2342
23813W        W40287   1.547  12.523   3.190  0.0098 -0.0306 -0.1673
23814W        W40288   0.860  16.856   4.391  0.1983  0.0243  0.0462
23815W        W40289  16.749   1.349   3.666  0.0057  0.0580 -0.0373
23816W        W40290   1.744  17.181  12.271 -0.2845 -0.1858 -0.2849
23817W        W40291   3.164  16.690  14.320 -0.4524 -0.3448  0.6246
23818W        W40292  10.996   4.603  15.886 -0.1893 -0.0575  0.0892
23819W        W40293   7.922   6.480  13.326  0.0194  0.0914 -0.0089
23820W        W40294   8.527   8.412  15.960 -0.2955  0.0072  0.0460
23821W        W40295  12.747   4.910  15.684  0.0331 -0.2242  0.3436
23822W        W40296   7.103  11.077  12.618 -0.2834 -0.1942 -0.2543
23823W        W40297   5.305   5.005   4.595 -0.1771 -0.1031  0.2617
23824W        W40298   3.705   0.815   1.205  0.0170 -0.1107 -0.3006
23825W        W40299  13.384  11.804   5.667  0.1988  0.0369 -0.5578
23826W        W40300  11.839   1.394  12.659  0.1366 -0.1408 -0.1706
23827W        W40301  16.135   9.463  16.055  0.2432 -0.2629  0.0322
23828W        W40302   5.999  11.012   5.172  0.2262 -0.2263 -0.2130
23829W        W40303   0.635  13.424   2.782 -0.0690 -0.0691 -0.1420
23830W        W40304  17.480   1.582   3.976  0.1203 -0.0972 -0.2138
23831W        W40305   1.414   8.906   1.018  0.1036  0.1946  0.3414
23832W        W40306   9.973   6.442  11.414 -0.0045  0.4091 -0.2279
23833W        W40307   1.425   7.927   0.052  0.0738 -0.0206 -0.0120
23834W        W40308  12.667  15.273   4.212  0.3147 -0.2579 -0.1750
23835W        W40309   1.833  13.496   1.149 -0.0213  0.2050 -0.3582
23836W        W40310   7.002  14.155  11.858  0.2325 -0.2438  0.0309
23837W        W40311   0.538   2.717   3.383 -0.3130 -0.4402  0.2371
23838W        W40312  14.288   2.615  12.171 -0.0153 -0.3082  0.3161
23839W        W40313   8.868  12.305   3.638 -0.0681  0.2414 -0.1219
23840W        W40314  17.843   7.114   3.701  0.0005 -0.2508 -0.1721
23841W        W40315   8.211  12.191   0.688 -0.0122 -0.4143  0.4130
23842W        W40316   9.578   8.964  15.328  0.0766 -0.0747  0.1505
23843W        W40317   5.000   3.268   5.153 -0.1402  0.0437 -0.1839
23844W        W40318  13.303   1.857   1.855  0.1474  0.0327 -0.1142
23845W        W40319   6.635  12.056   4.314 -0.0853 -0.0063 -0.0586
23846W        W40320  15.017   6.692  13.298  0.2035 -0.0498 -0.2757
23847W        W40321   1.188   3.934   0.897 -0.0963  0.1960  0.0349
23848W        W40322  12.396  18.093  14.505  0.0636 -0.1066 -0.1442
23849W        W40323   4.234  14.370   3.007  0.2267 -0.1918 -0.2249
23850W        W40324  15.204   8.754  13.410 -0.0329 -0.1162  0.0121
23851W        W40325   6.825   5.955   4.178  0.1094  0.2003  0.2991
23852W        W40326  12.237  15.729  13.895 -0.0388 -0.2022 -0.1333
23853W        W40327   8.145  16.820  11.709  0.1109 -0.0220 -0.2470
23854W        W40328   1.393   1.488   0.544  0.1268  0.3188 -0.2088
23855W        W40329  11.453  14.221   3.149 -0.1213  0.0531 -0.1668
23856W        W40330  13.235   7.574  13.188 -0.1154  0.2425 -0.0310
23857W        W40331   9.525   9.514   1.674  0.1108  0.1970 -0.1599
23858W        W40332   1.414  17.545  12.077  0.0726  0.1407 -0.2683
23859W        W40333  18.098   5.717   0.648  0.0575 -0.1662  0.0725
23860W        W40334  13.861   1.313  15.334 -0.0472 -0.1598  0.2136
23861W        W40335   8.827   3.836   0.774 -0.0942  0.0916  0.0200
23862W        W40336  15.738  12.878  15.254  0.0374 -0.1212 -0.1424
23863W        W40337  12.658   5.990  10.256 -0.0111  0.0245 -0.0166
23864W        W40338   0.790  12.815  12.215  0.1023  0.2828 -0.0701
23865W        W40339   4.996   9.568   3.485 -0.1725  0.2407  0.2696
23866W        W40340  16.521   2.186   4.740 -0.1146  0.0215 -0.1058
23867W        W40341   9.737  11.205   4.743 -0.2087  0.4133  0.1981
23868W        W40342   8.564  12.004   2.091  0.1398 -0.0682 -0.1957
23869W        W40343  11.610  17.974   2.443  0.0383 -0.1725  0.0321
23870W        W40344  10.534  12.119  11.018  0.0579 -0.1124 -0.0786
23871W        W40345  11.344  14.802   2.276  0.1653 -0.1746 -0.0586
23872W        W40346   1.246   2.842  15.145  0.1018  0.0962 -0.4247
23873W        W40347   4.265  16.814   5.245 -0.2205  0.1140  0.1429
23874W        W40348   2.395  16.051   0.723 -0.3543 -0.2064  0.0676
23875W        W40349   6.552   5.145  10.989  0.1643 -0.1982 -0.0681
23876W        W40350   1.083  10.193  12.767  0.1747 -0.1324  0.0017
23877W        W40351   9.698   2.913  15.849  0.1429  0.2033 -0.2064
23878W        W40352  12.743  14.934  15.740  0.0089 -0.1022  0.2908
23879W        W40353  15.301  10.746  11.903 -0.0777 -0.2607  0.0521
23880W        W40354  15.105  16.173   3.183  0.1686 -0.4488  0.4755
23881W        W40355   1.476   5.438   4.232 -0.0316 -0.1641 -0.0771
23882W        W40356   7.452   8.571  11.376  0.1103  0.2138 -0.2420
23883W        W40357  11.225  11.798   2.187  0.1255 -0.2068 -0.1361
23884W        W40358  13.767   1.133   0.085  0.5272 -0.2241 -0.1149
23885W        W40359   7.649   3.099  10.957 -0.0037  0.1508 -0.1714
23886W        W40360  16.091   8.533  15.670 -0.0383 -0.0779  0.1541
23887W        W40361   4.107   6.139  12.679  0.3046 -0.1535  0.0613
23888W        W40362  18.110   3.777   2.680  0.1111 -0.0047 -0.0658
23889W        W40363  17.904   7.697   5.652  0.1719 -0.1158  0.2208
23890W        W40364   4.453   0.411   4.079  0.2189 -0.1095  0.3572
23891W        W40365  15.352  17.932   3.478 -0.0577 -0.0043 -0.0093
23892W        W40366   2.811   1.938   1.421 -0.1117 -0.0566 -0.1496
23893W        W40367  16.224  17.182  11.395 -0.1242 -0.1488  0.0533
23894W        W40368   0.232  12.195  15.021  0.2179  0.2462 -0.1000
23895W        W40369   5.658  14.028   3.793 -0.3289  0.2032  0.1696
23896W        W40370  15.870   9.458   0.398 -0.3283 -0.2040 -0.0408
23897W        W40371  13.011  12.932   3.318 -0.0668  0.0623  0.2409
23898W        W40372   4.554  13.962  15.120 -0.0463 -0.1841 -0.0482
23899W        W40373  14.606  15.971   0.674  0.0298  0.0819  0.0821
23900W        W40374  15.522  11.354   5.022 -0.0520  0.0470  0.1327
23901W        W40375  16.600   0.497   4.997 -0.1537 -0.0616 -0.1269
23902W        W40376   7.605  16.849   3.832 -0.1554  0.2304  0.2017
23903W        W40377  11.127   7.904  12.202 -0.0800  0.0366  0.0960
23904W        W40378  10.466  10.407   2.578  0.0145  0.1003 -0.0319
23905W        W40379   0.641   6.137  15.829  0.1153  0.0106  0.0522
23906W        W40380   6.780   1.331  11.276  0.1993 -0.1577  0.0116
23907W        W40381  18.235  12.649  11.886 -0.1795  0.4612 -0.0486
23908W        W40382   5.338  18.299  16.174 -0.0223 -0.1305  0.3346
23909W        W40383  17.479   4.159   4.575 -0.3162  0.0127 -0.1161
23910W        W40384   5.910  11.833   4.866 -0.0234  0.1591  0.0096
23911W        W40385  17.012  13.998  12.260  0.2374  0.0362  0.0875
23912W        W40386  17.490   1.188   3.102  0.0186 -0.1689  0.3857
23913W        W40387   5.036  10.575   5.304  0.0089  0.0388 -0.1503
23914W        W40388   4.371  14.453   4.965  0.0546 -0.1009  0.1852
23915W        W40389   9.351   4.944   3.788  0.2704  0.1056 -0.1228
23916W        W40390  16.175  10.400   2.200  0.1489 -0.1406 -0.3268
23917W        W40391   0.922  16.785   3.735  0.0653 -0.5550 -0.0727
23918W        W40392  17.608   3.271  14.405 -0.0590 -0.2450  0.1090
23919W        W40393  17.033   4.755   3.023 -0.4372 -0.3518 -0.1575
23920W        W40394   5.368  11.199  15.119  0.0860  0.0885 -0.0921
23921W        W40395  14.188   6.531  11.468 -0.1615 -0.2678 -0.2072
23922W        W40396   9.979  10.536  11.793 -0.0300  0.3555 -0.5164
23923W        W40397   1.519   0.761  12.265 -0.0264  0.3611  0.0547
23924W        W40398  13.832  17.933   0.759 -0.0571 -0.3209  0.3404
23925W        W40399   1.469  16.669   2.363  0.1257 -0.1016 -0.1757
23926W        W40400   4.078  14.927   5.047  0.0580  0.4043  0.5807
23927W        W40401  15.000   0.395   0.311  0.0650  0.0912 -0.1234
23928W        W40402   1.534   6.614  16.149 -0.0866  0.0073 -0.0346
23929W        W40403   1.016  11.765  12.577 -0.0602 -0.2495 -0.1792
23930W        W40404   6.501   9.695  16.235  0.0432  0.0188 -0.0852
23931W        W40405  18.155   4.870   2.596 -0.3758  0.2307  0.1487
23932W        W40406   8.680   5.799   4.450  0.1529  0.0870 -0.0426
23933W        W40407  16.819   9.566   5.084  0.0244 -0.0742  0.1366
23934W        W40408  11.176   9.089   0.039 -0.2285  0.1259 -0.2756
23935W        W40409   5.812   6.126  13.912 -0.1532  0.0749  0.1622
23936W        W40410   5.933   9.553  12.837 -0.0765  0.0978 -0.0908
23937W        W40411  17.793  10.924   5.474 -0.2927  0.0460  0.1697
23938W        W40412   5.211  14.216   3.859 -0.0152  0.1080 -0.3374
23939W        W40413   5.462   3.171  11.846 -0.3347  0.3246  0.0673
23940W        W40414   5.366   5.509   1.627  0.0373 -0.0333 -0.2995
23941W        W40415   9.339  16.935  14.358 -0.0403 -0.2320  0.0534
23942W        W40416   8.017   4.274  11.723 -0.1180  0.0344  0.1627
23943W        W40417   9.154   1.642   0.442  0.2274 -0.4961 -0.0391
23944W        W40418   3.031  17.601   0.308 -0.2141 -0.0866 -0.0696
23945W        W40419  14.377  13.884  11.343 -0.1601 -0.0959 -0.1759
23946W        W40420  13.686  11.380   2.524  0.2747  0.0896  0.0534
23947W        W40421  11.490   3.041   4.327 -0.2077 -0.4224 -0.0399
23948W        W40422   1.319  14.040  10.796  0.1178 -0.2327  0.0757
23949W        W40423  11.947  16.529  12.693 -0.0023  0.1930  0.2033
23950W        W40424   6.447  14.862  14.766  0.0729 -0.0394 -0.0932
23951W        W40425  11.216   1.340   1.732 -0.3392 -0.0028 -0.0089
23952W        W40426  16.432  17.752  11.537 -0.0992 -0.1095  0.3953
23953W        W40427   4.162  15.432  10.436 -0.1531  0.1097  0.1163
23954W        W40428  18.047   4.548   4.991 -0.0569 -0.1836 -0.2357
23955W        W40429   1.410   4.586  14.160  0.3376 -0.1604 -0.2446
23956W        W40430   5.452  15.932   0.493 -0.2124 -0.0994  0.2814
23957W        W40431   4.266   2.172  16.177  0.1819  0.0798  0.0013
23958W        W40432   8.919   7.230   3.437 -0.0963 -0.0919 -0.1447
23959W        W40433   8.972  11.513   2.867 -0.0775  0.1007  0.0776
23960W        W40434  14.798   4.203   2.762 -0.2281 -0.1581  0.0147
23961W        W40435   2.185  18.012   1.059  0.0191  0.1776 -0.2771
23962W        W40436   2.522   8.524   2.726  0.1724  0.1583  0.0172
23963W        W40437   9.527  12.157   0.337 -0.0279  0.2637  0.1432
23964W        W40438   9.773  17.935   3.670  0.3124 -0.2412  0.2647
23965W        W40439   9.632   2.546   2.706 -0.1468 -0.0692  0.2670
23966W        W40440  16.383  12.565   5.261  0.1249 -0.0886  0.2555
23967W        W40441  17.911   8.202  14.484  0.0947  0.1873  0.1721
23968W        W40442  15.776   2.631  12.214  0.2533 -0.1010 -0.0104
23969W        W40443   3.300  14.744   5.108 -0.1450  0.0057  0.1610
23970W        W40444   6.631   2.159   4.404  0.1513 -0.0166  0.0178
23971W        W40445  15.228   1.592   1.826  0.1846  0.1246  0.1483
23972W        W40446  16.960  17.062  16.065 -0.0442 -0.2823 -0.2090
23973W        W40447   9.992   8.553  15.764 -0.2551  0.0795  0.0197
23974W        W40448   8.917   1.708  14.398 -0.0931  0.0029  0.2350
23975W        W40449   4.548   9.654   1.657  0.3358  0.2064 -0.4330
23976W        W40450   0.339   7.076  15.536  0.1230 -0.0779 -0.5627
23977W        W40451   8.946   6.710   6.492 -0.2143 -0.1433  0.0850
23978W        W40452   0.656   2.794   0.566 -0.2276 -0.1012 -0.2161
23979W        W40453   2.077  12.966   5.200 -0.3113  0.0446  0.1881
23980W        W40454  16.790   4.434   4.624 -0.1585  0.1533 -0.0715
23981W        W40455   0.078  17.805  14.276 -0.0036  0.0620  0.2657
23982W        W40456  12.688   4.615   3.987 -0.0014 -0.0037 -0.2761
23983W        W40457  12.126  10.061   3.691 -0.1642 -0.0347 -0.0550
23984W        W40458  16.376  17.281   4.389  0.1913  0.0241 -0.0963
23985W        W40459   7.233  13.198   5.372  0.1050 -0.0374  0.1184
23986W        W40460  15.151   4.528  11.627  0.0070 -0.2034  0.1051
23987W        W40461  18.167   7.683   1.884  0.1908 -0.1392  0.1226
23988W        W40462  11.125  12.659   3.573 -0.1094 -0.0510  0.0196
23989W        W40463  10.987   2.905  13.432  0.2601  0.3848 -0.4944
23990W        W40464   2.019   7.750  12.563 -0.0092 -0.1081  0.0795
23991W        W40465   9.728  12.757   3.125 -0.0488 -0.2734  0.2971
23992W        W40466   7.107  11.161  11.710  0.0383 -0.0658 -0.1229
23993W        W40467  14.653  17.108   1.272  0.1150  0.1752 -0.0133
23994W        W40468  15.910   0.155  15.178  0.1123  0.0346 -0.1881
23995W        W40469   7.983  10.278   6.209  0.2837 -0.2394 -0.1760
23996W        W40470   9.063  15.796  13.297 -0.0266 -0.0770 -0.1445
23997W        W40471  16.547  13.067   0.444  0.2295  0.0593  0.2127
23998W        W40472  14.890   8.979  14.472 -0.3764  0.2164 -0.3469
23999W        W40473  11.790   2.620   5.835  0.0104  0.1517 -0.0018
24000W        W40474  16.703  13.759  12.721  0.0355 -0.0245 -0.4545
24001W        W40475  14.161  17.907  15.436  0.2660  0.0755  0.1745
24002W        W40476  11.267  15.035   2.979 -0.0691 -0.1599 -0.1496
24003W        W40477  14.730  15.300   5.158  0.3490  0.2925 -0.0791
24004W        W40478  17.117   0.409   4.868 -0.1739 -0.0163 -0.1205
24005W        W40479   3.071   8.365  11.779  0.1962  0.1331  0.0144
24006W        W40480   2.947   0.360  16.225  0.2846  0.2528 -0.3162
24007W        W40481   7.716   7.139   1.688 -0.0837  0.0792  0.0516
24008W        W40482   6.565   2.329  12.152  0.0122  0.0138 -0.0103
24009W        W40483   9.991  15.749   3.391 -0.1071 -0.1227  0.1721
24010W        W40484  12.172   2.990  15.675  0.1138 -0.1207 -0.2243
24011W        W40485  10.964   0.567  11.320 -0.1440  0.1990 -0.0784
24012W        W40486   4.247  12.400  15.497  0.0271 -0.1187  0.0862
24013W        W40487   7.571   6.743   4.543  0.1302  0.1149 -0.1387
24014W        W40488   0.508   2.174  13.591 -0.1886  0.1064  0.0004
24015W        W40489  14.643   1.519   5.050 -0.1205  0.1286 -0.1861
24016W        W40490  12.999   3.571  15.396 -0.0400 -0.1698  0.3808
24017W        W40491   9.390  14.672  14.011  0.0263  0.1032  0.1305
24018W        W40492  10.351  17.618   6.035  0.0628 -0.0264  0.0918
24019W        W40493  11.992  10.750  15.440  0.0107  0.1965 -0.0621
24020W        W40494   8.660  10.553  14.628  0.2456  0.2245 -0.0029
24021W        W40495   9.190   7.903  13.697  0.1335 -0.0458 -0.0325
24022W        W40496   5.963   7.102   3.845  0.2261 -0.1213  0.1972
24023W        W40497   2.048   5.589   3.587  0.1310 -0.0165  0.1639
24024W        W40498   8.657   6.869   0.365 -0.0349  0.0669 -0.1797
24025W        W40499   0.630   5.575  11.281  0.1529 -0.1038  0.2277
24026W        W40500  15.039  14.377  14.846  0.1202 -0.2013 -0.2432
24027W        W40501  13.674   2.856  15.931  0.2105  0.1171  0.1199
24028W        W40502  18.087   7.169   1.782  0.1519 -0.0612 -0.1888
24029W        W40503   7.588   7.468   2.534 -0.0525 -0.1048  0.2059
24030W        W40504  14.769   6.819   0.048  0.0311  0.1609 -0.0695
24031W        W40505  14.119  12.748   2.652  0.2682  0.1105 -0.0436
24032W        W40506   2.255   9.820  16.070  0.0320 -0.2538  0.0013
24033W        W40507   1.972   3.949  15.716  0.0394  0.3414 -0.3033
24034W        W40508   3.708   6.866   4.064 -0.0275  0.0263  0.0603
24035W        W40509  18.310  10.075   1.869 -0.0581  0.2057 -0.3369
24036W        W40510   5.651   1.818  10.140 -0.1174 -0.2604  0.1422
24037W        W40511   8.384   8.593   2.596 -0.0646  0.1700  0.1803
24038W        W40512   0.191   7.962  11.552  0.0820  0.1757 -0.0011
24039W        W40513   8.012  10.354   0.775 -0.2303 -0.0192  0.2684
24040W        W40514   3.630   9.626  11.522  0.0853  0.1240 -0.2002
24041W        W40515   6.602  15.830   5.405 -0.2189 -0.0833  0.0944
24042W        W40516  15.103  12.497   1.736  0.0244 -0.1894  0.0176
24043W        W40517  17.899  18.132   1.675  0.1801  0.0532 -0.0106
24044W        W40518  13.627   4.524   3.645  0.0174 -0.0820  0.2358
24045W        W40519  18.144  15.177   1.812  0.0816  0.0798  0.1899
24046W        W40520   1.075  16.415  15.134  0.3353  0.1177  0.0769
24047W        W40521  11.110   4.850  13.388 -0.0432 -0.1238  0.2590
24048W        W40522  17.207   7.303   1.890  0.1053  0.2266  0.1100
24049W        W40523  11.651  13.845  11.492 -0.1168  0.1941 -0.0042
24050W        W40524  13.761  11.995   3.291  0.1006  0.1656 -0.2636
24051W        W40525   0.950  14.138  11.118  0.0096 -0.0132  0.2635
24052W        W40526   7.047   4.464  14.627  0.0142 -0.0555  0.2177
24053W        W40527  15.415  12.449  13.344 -0.2934 -0.2162 -0.1716
24054W        W40528   7.829  12.594   6.607 -0.1518 -0.2034  0.1852
24055W        W40529  16.541   3.611  15.707 -0.0711  0.3205  0.2422
24056W        W40530   0.550   4.986  12.524  0.0459 -0.4429  0.3715
24057W        W40531   5.729  14.074  13.768 -0.3083  0.0809  0.0172
24058W        W40532   8.421   4.905   5.693 -0.1374  0.0662  0.1289
24059W        W40533  15.538  16.173   1.583 -0.1363  0.0627 -0.2313
24060W        W40534   4.842   9.275  14.230  0.0337 -0.0128  0.3914
24061W        W40535   7.382   4.893  12.822  0.0701  0.0872  0.0255
24062W        W40536   7.890  16.394  13.336 -0.0322  0.1002 -0.1670
24063W        W40537   5.911   0.421   4.371  0.5028 -0.0080  0.2679
24064W        W40538   4.315  14.875  16.090  0.0774  0.2435  0.1412
24065W        W40539   3.019   0.602   5.130  0.0057  0.0268  0.4491
24066W        W40540   5.785  12.200  12.108  0.1093 -0.0814  0.0425
24067W        W40541   9.385  17.734   4.063  0.0446 -0.0184  0.0899
24068W        W40542  16.816  10.383   4.670  0.2815 -0.1357 -0.2105
24069W        W40543  14.969  18.292   0.088 -0.0824 -0.4793 -0.0802
24070W        W40544   3.365  12.660  11.662  0.2332 -0.1848 -0.1433
24071W        W40545  16.055  14.562   0.599 -0.0612 -0.0461  0.0704
24072W        W40546  15.904   4.712   4.730  0.2015  0.1141  0.0568
24073W        W40547   0.333  11.543   2.567  0.0632 -0.0292 -0.1208
24074W        W40548  15.969  13.822  13.427  0.2153  0.0815 -0.0283
24075W        W40549  16.104   8.318   4.112 -0.2755  0.1051  0.0905
24076W        W40550   1.682  11.402  14.857 -0.1020 -0.1821 -0.0862
24077W        W40551  12.088   3.374   3.741  0.0354 -0.0120  0.1445
24078W        W40552   2.697  10.629   1.491 -0.0738 -0.2250  0.1623
24079W        W40553  10.969   3.274  11.419  0.0644  0.1390 -0.0826
24080W        W40554  16.983  18.267   4.912  0.0838 -0.2980 -0.2964
24081W        W40555   8.957   0.057   4.019 -0.2918  0.3414  0.0876
24082W        W40556   9.356  13.069  12.603 -0.0520  0.0041 -0.0645
24083W        W40557   3.908  11.191  14.288  0.2899  0.1865 -0.2261
24084W        W40558  10.865   2.683   5.597 -0.2072 -0.1546  0.0851
24085W        W40559   5.393   0.607   2.570  0.0965 -0.1245 -0.1284
24086W        W40560   7.421   3.941   0.286 -0.0636 -0.1007  0.0721
24087W        W40561   6.130   3.117  12.668 -0.3076 -0.3453 -0.0547
24088W        W40562   6.133   1.532   0.803  0.0110  0.0129  0.1063
24089W        W40563   6.034   8.224   0.662  0.2516  0.0203  0.3075
24090W        W40564   1.824  10.632   4.738  0.3247  0.0888 -0.1317
24091W        W40565   6.881  14.602  12.486  0.0432  0.0138 -0.1776
24092W        W40566   4.219  15.245  12.357 -0.0791  0.2869 -0.2485
24093W        W40567   0.788   8.632  14.799  0.1993  0.0952 -0.1617
24094W        W40568  12.569   5.998   4.979 -0.2361 -0.2962  0.0731
24095W        W40569  15.222   9.402   1.147  0.0012 -0.0475  0.2021
24096W        W40570   1.879   0.101   2.605 -0.1406  0.4004 -0.1331
24097W        W40571   1.056  12.095   4.204 -0.0185  0.1095  0.1698
24098W        W40572   2.175   8.361   0.835 -0.1257  0.1130  0.2992
24099W        W40573  13.659   4.704   5.798  0.0136 -0.0723 -0.1220
24100W        W40574   6.303   1.535  16.206  0.0505  0.0677 -0.0344
24101W        W40575  17.886  13.235  12.551  0.1011  0.0332 -0.3150
24102W        W40576   4.429  11.255   5.221 -0.0374  0.0824 -0.0268
24103W        W40577   6.514   4.950  13.630  0.0822  0.0163 -0.1657
24104W        W40578   7.374   8.749   0.330 -0.0231  0.0364 -0.3901
24105W        W40579   1.347  16.223   2.015  0.0354  0.1358 -0.1757
24106W        W40580  10.491   6.409  14.781  0.5261 -0.3123 -0.0161
24107W        W40581  15.371   2.943   3.136  0.0038 -0.0184 -0.0989
24108W        W40582  10.153  16.345  13.990  0.0509  0.7033  0.1452
24109W        W40583  14.103  16.015   4.949 -0.0959  0.0047 -0.0990
24110W        W40584   1.160   3.698  13.384  0.1459  0.4114  0.1101
24111W        W40585   9.278   1.069   1.418  0.3233  0.2784 -0.1586
24112W        W40586   1.910  16.843  12.861 -0.0745  0.3062 -0.1560
24113W        W40587   9.951   5.368  11.559 -0.1143 -0.0304 -0.2283
24114W        W40588   6.155  14.734  15.227  0.0831  0.2860  0.0131
24115W        W40589  16.777   8.948   3.820 -0.2414 -0.2213  0.0802
24116W        W40590   8.911  17.896   5.247  0.0240  0.3823  0.0449
24117W        W40591   7.512  17.097   3.138  0.0501  0.0683 -0.0194
24118W        W40592   6.533  10.237   5.129 -0.1427 -0.1803 -0.1944
24119W        W40593  14.848   5.181   2.838 -0.4105  0.0800 -0.0557
24120W        W40594  10.709   9.297   2.810 -0.0188 -0.3445  0.1189
24121W        W40595   2.415   2.278  12.980  0.3292 -0.2019 -0.1169
24122W        W40596  13.806  13.944  13.256 -0.4048  0.0355  0.3215
24123W        W40597   4.358   2.198   5.971 -0.0652 -0.1205  0.0077
24124W        W40598   8.419  13.399   2.006  0.0501  0.0025  0.2662
24125W        W40599   8.244   3.567   4.924 -0.2344  0.3058 -0.2820
24126W        W40600   5.221   4.641   2.886  0.1560 -0.0210 -0.0139
24127W        W40601   7.574  14.333   4.971 -0.2950  0.4049  0.0127
24128W        W40602  13.084   4.225  14.354  0.2461 -0.3260 -0.0679
24129W        W40603   0.434   1.900   4.566 -0.4340  0.0358  0.0692
24130W        W40604  16.052   9.573  15.407  0.1098 -0.0188 -0.2313
24131W        W40605  15.232   5.119   1.261 -0.0299 -0.0531  0.3155
24132W        W40606  12.594  16.186  10.290  0.1007 -0.1302  0.0037
24133W        W40607   1.474  11.800  12.365 -0.1195  0.3791  0.3961
24134W        W40608  16.903  10.182  12.173  0.1786 -0.0132 -0.1900
24135W        W40609   1.196   6.978   1.825 -0.2058 -0.0766 -0.3511
24136W        W40610   0.933   6.319  12.302 -0.1609  0.0374  0.2071
24137W        W40611   0.421  14.005   5.001  0.0605  0.4938 -0.3648
24138W        W40612   9.983  13.310   2.361  0.0893 -0.0753 -0.0388
24139W        W40613  17.024   8.979  15.937  0.1457  0.2540  0.0267
24140W        W40614  14.094   7.363  16.071 -0.0207 -0.2523  0.2633
24141W        W40615   5.598   8.573  15.225  0.0268  0.1224 -0.2879
24142W        W40616  10.621   1.935  13.469 -0.1375 -0.1998  0.4781
24143W        W40617  14.716   9.577  11.519  0.1288  0.2447 -0.1222
24144W        W40618   6.519   1.790  11.381 -0.0417  0.3472  0.3260
24145W        W40619   5.797   3.534  13.093 -0.4158  0.2658 -0.0288
24146W        W40620   4.885  17.988   4.446  0.0862 -0.2298 -0.0232
24147W        W40621  10.835  16.608  12.811  0.0162  0.1606  0.0183
24148W        W40622  11.410  16.037  13.462 -0.2501 -0.0104 -0.1027
24149W        W40623   1.920   4.135  15.069  0.0950 -0.2662  0.2921
24150W        W40624  15.302   0.628   4.619 -0.0302  0.1104  0.2214
24151W        W40625  11.959  10.482   1.977 -0.2794 -0.1710  0.0770
24152W        W40626   7.075   0.562  12.233  0.0274 -0.4398 -0.0382
24153W        W40627   8.822   0.496   5.910 -0.1771  0.0108 -0.1368
24154W        W40628  10.364   1.866   1.794 -0.1208  0.1522 -0.0055
24155W        W40629  16.250   0.452  14.861  0.3872  0.0230 -0.0014
24156W        W40630   3.745   2.247   0.729  0.1927 -0.0059 -0.1278
24157W        W40631   5.965   4.698  12.575 -0.0013  0.0795  0.2564
24158W        W40632  16.821   8.354  14.254  0.3374 -0.0937 -0.2181
24159W        W40633   1.343   7.156   4.007  0.0321 -0.0270 -0.1750
24160W        W40634   3.622  14.224  14.041 -0.0153  0.2445  0.1509
24161W        W40635  14.532  16.591   5.327 -0.0930 -0.2929 -0.1934
24162W        W40636   9.164   9.828   3.541  0.1759  0.0327  0.0205
24163W        W40637  16.460   4.968  13.491 -0.2319 -0.0405  0.2035
24164W        W40638  16.766   3.941  16.024 -0.0984 -0.0205  0.1618
24165W        W40639   4.685  15.247  14.010  0.2657  0.1473 -0.1951
24166W        W40640   3.869   1.654  14.031 -0.1598  0.2647 -0.0626
24167W        W40641   6.624   2.204  14.470  0.2739 -0.0994 -0.3707
24168W        W40642  11.559   9.461   2.940  0.0045  0.0332  0.1171
24169W        W40643  12.728   7.626  13.110  0.1482 -0.0993 -0.0726
24170W        W40644  13.502   2.712   0.904  0.1655 -0.3696  0.0340
24171W        W40645  14.462   8.455   4.966  0.1430  0.1589  0.0832
24172W        W40646  15.846   0.812  13.206 -0.1516 -0.2709 -0.0639
24173W        W40647  13.064   2.431  14.656  0.0073  0.0178 -0.0668
24174W        W40648   4.536  17.992   0.338 -0.0380 -0.2820 -0.2426
24175W        W40649  14.311  13.627   2.515  0.0780  0.1184 -0.0988
24176W        W40650  10.960  13.440   2.033  0.2392 -0.0973 -0.1459
24177W        W40651  15.394   5.522   4.820 -0.1152 -0.4388 -0.2046
24178W        W40652   0.747   7.095  11.662  0.1981 -0.0327 -0.0950
24179W        W40653  15.786   6.080   4.979  0.1391 -0.0744 -0.1567
24180W        W40654   3.156   6.925  11.779 -0.0946  0.2109  0.2178
24181W        W40655  16.243   5.912   4.853 -0.1575  0.4565  0.1290
24182W        W40656   3.065   1.376   2.831 -0.0436  0.1088 -0.2291
24183W        W40657   5.603   5.140   1.445  0.1497 -0.0743  0.0388
24184W        W40658  13.449  12.968  11.497 -0.3139 -0.0904  0.0758
24185W        W40659  14.395   1.251  15.532 -0.0360  0.1525 -0.0750
24186W        W40660  10.090   5.326  16.078 -0.1019 -0.0030  0.0346
24187W        W40661  16.694  14.101   3.099 -0.1053  0.0891 -0.0220
24188W        W40662  10.349  16.542   6.059  0.1231  0.2989  0.1209
24189W        W40663  16.565   3.157   0.036 -0.0305 -0.0048  0.1261
24190W        W40664  12.509   4.402  11.544 -0.0614 -0.0582 -0.2363
24191W        W40665   4.818   3.579  14.695  0.1142  0.0078 -0.0081
24192W        W40666  14.533   3.221  12.213 -0.4045  0.1439 -0.0636
24193W        W40667   1.459  15.082   1.168  0.1163  0.3840 -0.0569
24194W        W40668   6.476  17.244  13.028 -0.3218 -0.3597  0.3542
24195W        W40669   1.294   9.462  13.296 -0.1380 -0.0761  0.0884
24196W        W40670   8.006  14.874   3.933  0.0178 -0.1625 -0.0768
24197W        W40671  11.811  11.279   3.106 -0.0051 -0.2264  0.2426
24198W        W40672   6.918  16.072   2.823 -0.1029 -0.0788 -0.0255
24199W        W40673   8.344  12.700   0.796 -0.0288 -0.2721  0.2809
24200W        W40674   5.800   2.587   3.408 -0.1769 -0.2500  0.1338
24201W        W40675  12.566   6.270  13.310  0.1741 -0.0819  0.2213
24202W        W40676  13.996  13.169   4.758 -0.1097 -0.0664  0.1719
24203W        W40677   6.506   2.353  10.649  0.1470  0.1550  0.0543
24204W        W40678   0.592   9.984   3.716 -0.1434 -0.2522  0.0157
24205W        W40679   8.988   3.012   5.773 -0.1763  0.3398  0.1664
24206W        W40680  13.491  10.919   5.510  0.1082 -0.2146 -0.2892
24207W        W40681  12.760   6.456   4.810 -0.2724  0.1162 -0.1355
24208W        W40682  13.652  15.456   1.199  0.1766 -0.0393  0.2143
24209W        W40683  14.033   3.243   4.590 -0.1657 -0.1718 -0.1987
24210W        W40684  10.912   8.457  12.524  0.1851  0.4565 -0.0991
24211W        W40685   5.475  17.135   4.791  0.0665 -0.0432 -0.0008
24212W        W40686   2.364   8.942   3.442 -0.1753  0.2225 -0.0102
24213W        W40687   3.630   2.528  13.007 -0.1163 -0.1186  0.0040
24214W        W40688   8.839   1.458  12.346 -0.1016 -0.2940  0.1542
24215W        W40689   1.033   8.152   1.007 -0.3741 -0.3093  0.3199
24216W        W40690  10.249   6.984   2.129 -0.0904  0.0079 -0.1486
24217W        W40691   1.158   6.016   1.658  0.0039  0.2047  0.4112
24218W        W40692   8.556   8.319   4.414  0.1134  0.1944 -0.2689
24219W        W40693  17.427   6.150   3.516  0.1019  0.1090 -0.0231
24220W        W40694  14.819   5.402  11.632  0.1190  0.1621  0.0167
24221W        W40695  10.600   0.203  15.111  0.1781  0.0899 -0.0738
24222W        W40696   2.832  18.018   5.221 -0.2650  0.2062 -0.0568
24223W        W40697   8.138  17.495   0.941  0.1500  0.0099 -0.1406
24224W        W40698  14.439   7.015  13.810 -0.2329 -0.0209 -0.0227
24225W        W40699   7.225   4.487  14.031 -0.0086  0.1062  0.2475
24226W        W40700  11.384   8.786  13.447  0.0304  0.0525  0.0273
24227W        W40701  18.320  13.262   0.231  0.0386 -0.0873 -0.3104
24228W        W40702   8.089  16.836   1.638  0.1143  0.0746 -0.0728
24229W        W40703   6.627  13.263   0.176 -0.1022 -0.1657  0.2306
24230W        W40704  18.080   0.063   0.123  0.0565  0.1634 -0.1754
24231W        W40705  13.553   9.011   1.209 -0.0344  0.1636  0.0262
24232W        W40706  13.865  14.379  14.523 -0.0912  0.0757 -0.1400
24233W        W40707  10.467   5.038  14.628  0.1941 -0.0090 -0.0002
24234W        W40708  16.164   6.609   1.552  0.1253  0.1902  0.2865
24235W        W40709   8.852  15.480   2.767 -0.1111 -0.0054 -0.1790
24236W        W40710  17.954   4.069   5.473  0.0927 -0.0097  0.1404
24237W        W40711  11.888   6.666  11.761  0.0627  0.5003 -0.2525
24238W        W40712   4.798   0.747  10.673  0.0589  0.1229 -0.1440
24239W        W40713   8.085  11.037  14.570 -0.2684 -0.0396 -0.1998
24240W        W40714   9.414  11.297  12.164 -0.3344 -0.1551  0.2618
24241W        W40715   2.689   5.071   1.713  0.0777 -0.1253 -0.0505
24242W        W40716   1.705  10.322  14.718  0.0373  0.1050  0.2424
24243W        W40717   1.910  11.635   0.938  0.1546  0.0657 -0.0577
24244W        W40718   3.580  10.796  15.010 -0.4443  0.0458  0.0544
24245W        W40719  11.130  17.927   2.842  0.1616 -0.1211  0.0635
24246W        W40720  11.039   1.074   3.790 -0.0174  0.0932 -0.1246
24247W        W40721   1.372   1.783   1.597  0.0015  0.1816 -0.1782
24248W        W40722   7.758  11.193   1.354 -0.0595  0.1812 -0.2121
24249W        W40723  17.637  16.652   0.199  0.0330  0.2489 -0.3623
24250W        W40724  15.172   2.707  11.643 -0.0023 -0.1131 -0.1740
24251W        W40725   6.025  14.526   6.004  0.4147 -0.1903  0.0212
24252W        W40726   4.977   1.147  14.992 -0.1887 -0.3339  0.2136
24253W        W40727   8.690   7.152  13.059 -0.0534  0.3658 -0.1435
24254W        W40728   8.052   7.528   5.148 -0.0316 -0.0073 -0.2041
24255W        W40729  10.576   4.668   2.699 -0.3665 -0.0231 -0.0579
24256W        W40730   1.236   1.452  13.889  0.1658  0.2183 -0.1489
24257W        W40731   2.103   4.665  12.668  0.1709  0.1385  0.3934
24258W        W40732  15.589   6.746  13.683  0.1554 -0.0568 -0.0650
24259W        W40733  17.306   8.723  13.927 -0.0077  0.0119  0.1223
24260W        W40734  11.927   4.397  16.306 -0.0031 -0.0169 -0.0045
24261W        W40735   1.561  14.886   2.519  0.0198 -0.1319 -0.1159
24262W        W40736  14.490   6.980  12.407  0.1148  0.0240 -0.1845
24263W        W40737   9.245   8.508   3.214  0.3755 -0.2034  0.0847
24264W        W40738   1.424   3.952  14.805 -0.2789  0.2972  0.0317
24265W        W40739  11.703   0.476   3.664  0.4191 -0.1347  0.0047
24266W        W40740  17.425  13.353  11.093  0.0903 -0.1329 -0.2388
24267W        W40741   3.628   5.482  11.210  0.0832 -0.0864  0.3447
24268W        W40742  11.837   8.018   2.852 -0.1291  0.2086  0.0622
24269W        W40743   5.724  11.490  14.373  0.2285 -0.1212  0.1557
24270W        W40744  13.564  16.178   5.064  0.0885  0.1597 -0.0595
24271W        W40745  12.759   2.464  14.035  0.1078 -0.1708  0.2603
24272W        W40746   6.596   9.652  15.732 -0.3714 -0.1868 -0.0208
24273W        W40747  17.442   1.336   1.497  0.4095 -0.0214  0.3265
24274W        W40748   6.195   0.500  13.178 -0.0862  0.0376 -0.0046
24275W        W40749  12.615  16.910  15.347  0.0151 -0.1278 -0.0108
24276W        W40750  17.766  16.376  12.967 -0.0940  0.2376  0.2314
24277W        W40751   7.651  15.453   2.376 -0.0138  0.0108  0.2527
24278W        W40752   1.391   5.180  16.209  0.1517 -0.0183 -0.0897
24279W        W40753  17.085   7.219  13.172  0.1643  0.2276  0.2015
24280W        W40754  10.569   5.931   1.263 -0.0622  0.0647  0.2643
24281W        W40755   7.871   5.914   4.114 -0.1000 -0.0614 -0.3198
24282W        W40756  10.329  14.097   1.600  0.0560 -0.1934  0.0052
24283W        W40757   7.031   8.047   0.914 -0.0217  0.1525 -0.2814
24284W        W40758   7.323   7.094  10.676 -0.0712  0.3173  0.0787
24285W        W40759   5.345  15.824   3.238  0.0230 -0.0873  0.1001
24286W        W40760  17.734  13.285   0.561 -0.6092  0.0560  0.1948
24287W        W40761  17.285   1.502   4.431  0.0639  0.0070  0.0530
24288W        W40762   1.176  12.685  12.931 -0.1147 -0.1953 -0.2419
24289W        W40763   8.224   2.443  15.397  0.0437 -0.1241  0.0825
24290W        W40764   9.290  17.092   3.481 -0.0996  0.0965 -0.0441
24291W        W40765  11.964   0.851  14.366  0.2208 -0.2356  0.0839
24292W        W40766  14.855   3.411  13.268 -0.1115  0.1275  0.0160
24293W        W40767   6.011  12.388   2.644 -0.2259  0.0090 -0.0515
24294W        W40768  16.178  11.958   0.662 -0.0666 -0.1172  0.2041
24295W        W40769   6.643   9.676  13.226  0.2046 -0.1571  0.1639
24296W        W40770   6.093   1.940  15.723  0.0420 -0.0053 -0.3024
24297W        W40771  15.353   9.441   2.844  0.0317  0.0938  0.2823
24298W        W40772  15.262   1.245   0.278  0.1234  0.0171 -0.1023
24299W        W40773   1.145   9.968  13.833  0.1913  0.1386  0.1592
24300W        W40774  10.143   6.408   2.833 -0.2031  0.1761 -0.1796
24301W        W40775  16.909  11.108   4.693 -0.1104  0.0399 -0.2132
24302W        W40776  14.786  16.458   0.803  0.1588 -0.2619 -0.2365
24303W        W40777  11.649   9.510  12.781 -0.0784  0.0327 -0.1292
24304W        W40778   2.721   6.986   0.568 -0.2217 -0.1843 -0.2366
24305W        W40779  17.660  14.264   0.390 -0.1589  0.1261  0.3701
24306W        W40780   4.182   4.401   5.142 -0.1025  0.0340 -0.1971
24307W        W40781  14.497  14.098   4.956  0.1773  0.0117  0.0228
24308W        W40782   9.005  15.555   4.614  0.0505 -0.4108  0.0166
24309W        W40783  13.660  18.047  15.591 -0.0639 -0.3947 -0.1095
24310W        W40784   1.953   2.120  14.974  0.0347 -0.2912 -0.0250
24311W        W40785   3.091   9.223   3.300  0.1062 -0.3242 -0.0959
24312W        W40786  17.894   2.171  13.912 -0.0101 -0.2961 -0.1180
24313W        W40787   4.375  11.220   0.185  0.2362  0.0077 -0.1762
24314W        W40788  11.034   1.047  14.008  0.1918 -0.1469  0.0464
24315W        W40789   5.789  11.524   0.013  0.1072 -0.2604  0.5080
24316W        W40790  15.807  12.209  13.082 -0.0777 -0.0868 -0.2407
24317W        W40791   4.305   9.074   1.878  0.0237 -0.2410  0.0813
24318W        W40792   9.991   5.336   0.641  0.0504  0.0843 -0.0962
24319W        W40793   4.220   3.527  11.154 -0.0379  0.0446 -0.2270
24320W        W40794  11.574  16.350   5.405  0.2327 -0.1561 -0.1713
24321W        W40795  13.336   1.873   5.357 -0.0199 -0.1304 -0.0796
24322W        W40796   3.216   4.132   4.704  0.1701 -0.0800 -0.1421
24323W        W40797   2.808  11.998  14.345 -0.1586  0.1559  0.1372
24324W        W40798   7.387  12.332   4.937 -0.0658 -0.1683  0.1276
24325W        W40799  12.557  17.006   0.078 -0.2746 -0.1941  0.1491
24326W        W40800   5.398   4.808   0.902  0.2234  0.0765  0.4595
24327W        W40801   7.876   2.887   1.493  0.0082  0.2367 -0.2263
24328W        W40802  13.247   2.984   2.726  0.0240  0.1524 -0.0773
24329W        W40803   2.381   2.488   0.466  0.0371  0.1967  0.1835
24330W        W40804  17.820   9.374   3.345 -0.3148  0.1022 -0.0557
24331W        W40805   1.325  11.695  13.792  0.0485 -0.0680  0.2451
24332W        W40806   4.728  15.766  13.093  0.1327 -0.1381  0.1294
24333W        W40807   4.943   8.911  10.664  0.0346 -0.1382  0.1590
24334W        W40808  17.651  13.662   1.449 -0.0286 -0.0612  0.0723
24335W        W40809   8.432  14.073   1.249  0.1921 -0.2231 -0.0709
24336W        W40810   3.177   7.495   5.734  0.0174 -0.0237  0.0933
24337W        W40811   1.512   4.329  12.124 -0.0912 -0.4052 -0.0917
24338W        W40812   1.169   3.032   2.041  0.1688  0.0808  0.0933
24339W        W40813   2.890  10.748  12.783 -0.3231  0.0588  0.1236
24340W        W40814   1.601   7.528  13.214 -0.0037  0.0502  0.1006
24341W        W40815  10.135   7.261   4.092  0.2285 -0.1843 -0.2771
24342W        W40816   7.606   3.291  12.749 -0.2952  0.0091  0.3392
24343W        W40817   8.371  17.164  12.129 -0.0753 -0.1143  0.2655
24344W        W40818  10.582   9.862   3.522 -0.1379  0.0264  0.0780
24345W        W40819   0.320   7.534   4.939 -0.1021  0.0030  0.0177
24346W        W40820  14.102   0.808  14.996 -0.0309  0.1564  0.1500
24347W        W40821   8.940   5.986   1.510  0.2015  0.1055  0.1026
24348W        W40822   2.949   7.038  15.575  0.1574  0.2015 -0.1612
24349W        W40823  17.462   8.320   0.789 -0.1469  0.2300  0.1584
24350W        W40824  10.917   9.557   4.374  0.2465 -0.3672  0.1965
24351W        W40825   0.781   6.273   1.393  0.0133 -0.0820  0.1358
24352W        W40826  10.587  18.126  16.009  0.0879 -0.0586  0.0686
24353W        W40827   5.342   9.245  14.193 -0.1318  0.1987  0.0753
24354W        W40828  13.338  11.030   4.300 -0.1524  0.0057 -0.0692
24355W        W40829   4.264  14.987  13.689  0.0111  0.0464 -0.0698
24356W        W40830   4.188   2.616   1.807  0.0726  0.2380  0.2178
24357W        W40831   8.079   6.332   3.836 -0.1830 -0.1976 -0.1053
24358W        W40832   0.392  15.037  13.435 -0.2366  0.2907  0.1397
24359W        W40833  16.512  12.098  11.066  0.3567  0.1750  0.0350
24360W        W40834   3.598   3.229   0.838 -0.4272 -0.0201  0.0790
24361W        W40835   1.563   3.241   1.106 -0.0600 -0.1061 -0.2464
24362W        W40836   9.419  11.938  13.900 -0.1051  0.2802  0.0581
24363W        W40837  12.660  17.467  10.588  0.0211 -0.4454 -0.1670
24364W        W40838   6.885  12.392   2.200 -0.0257 -0.0863  0.1473
24365W        W40839   6.186   6.524   5.401  0.0683  0.0675  0.0597
24366W        W40840  15.508  14.512  15.024 -0.0719 -0.1039 -0.0605
24367W        W40841   8.880   6.372   3.253 -0.1362 -0.2294 -0.0491
24368W        W40842   7.306  18.135  12.711 -0.0226  0.0785 -0.1690
24369W        W40843  11.971  14.938   1.036  0.3277 -0.2932  0.2161
24370W        W40844  17.002  11.979  14.613  0.2112 -0.3202  0.0488
24371W        W40845   9.677   7.203   0.400  0.0009  0.0110  0.3540
24372W        W40846  14.370   5.623   5.976 -0.0143 -0.1902  0.1049
24373W        W40847  17.439  10.171   0.367  0.0348 -0.0083  0.0654
24374W        W40848  11.897   6.426  14.546  0.2279  0.0551  0.0337
24375W        W40849  14.758  11.572   2.674 -0.2391  0.1844  0.2867
24376W        W40850   2.745   6.920  12.138 -0.3715  0.2016  0.4593
24377W        W40851  13.416  14.308   5.677 -0.0383  0.6121  0.0775
24378W        W40852  14.614   1.358   3.895 -0.4210  0.0507  0.1284
24379W        W40853   9.777  14.091  11.741 -0.2002 -0.1071 -0.2373
24380W        W40854  14.374   0.238   0.192 -0.4060 -0.4062  0.1354
24381W        W40855   3.894   8.086   5.368 -0.1668 -0.0347 -0.1676
24382W        W40856  18.011   7.001   2.332 -0.0889  0.3051 -0.1285
24383W        W40857   9.060   9.408  13.535 -0.2267 -0.0446  0.0969
24384W        W40858   4.346   2.126   0.398 -0.1149  0.0054 -0.1626
24385W        W40859  12.864   5.297   5.736  0.2535  0.0655  0.0110
24386W        W40860   8.923  17.848  12.879  0.3925 -0.1549  0.2256
24387W        W40861  13.731  12.799  12.360  0.2960  0.0141 -0.1575
24388W        W40862  15.100   1.375   3.465  0.0694  0.1073  0.1010
24389W        W40863  15.283   4.992  11.495 -0.2260  0.0164  0.0513
24390W        W40864   6.773   3.164  13.062  0.0058 -0.3949 -0.0532
24391W        W40865  12.320   4.683  15.596  0.0962 -0.0471 -0.1990
24392W        W40866   2.789   1.625   0.059  0.1048 -0.3104  0.1581
24393W        W40867   6.114   7.343   0.548  0.0430 -0.0471 -0.2762
24394W        W40868   7.178  13.830   3.376  0.3005 -0.0884 -0.1970
24395W        W40869  16.592  17.433  16.257  0.0332 -0.0841 -0.0890
24396W        W40870   4.130   0.537   0.949  0.2127 -0.0976  0.0016
24397W        W40871  14.495  17.056   2.397 -0.0462  0.0334 -0.0663
24398W        W40872  15.568  12.712   1.659  0.2237  0.0717 -0.0320
24399W        W40873  18.145   0.792  13.693  0.1049  0.0773 -0.0656
24400W        W40874   9.534   3.787  15.945 -0.1142 -0.0209  0.1367
24401W        W40875   2.946   2.391  14.243 -0.0830 -0.1822  0.2140
24402W        W40876  17.835   6.281  13.091 -0.0556  0.1614  0.1596
24403W        W40877  15.643   6.022   3.135  0.0091  0.0590  0.0570
24404W        W40878  12.487  11.500  15.555 -0.2022 -0.0702 -0.1193
24405W        W40879  10.083   0.623   1.265  0.0227  0.0045 -0.3875
24406W        W40880   9.301  10.314   3.217 -0.1373  0.0274  0.5023
24407W        W40881   3.794  16.896  12.993  0.1630  0.2652  0.2549
24408W        W40882  17.264   9.423  12.007 -0.2862 -0.1943 -0.5942
24409W        W40883  14.238   6.087  13.117  0.2567  0.0201 -0.2740
24410W        W40884  16.639  17.323   1.282  0.1744  0.1628 -0.2528
24411W        W40885   8.635   9.306  14.038  0.2255 -0.0672  0.1864
24412W        W40886  13.761   3.935  11.903 -0.1510  0.1783 -0.0104
24413W        W40887   3.786  17.931   5.525  0.2752  0.0826  0.2205
24414W        W40888   7.463  12.529  14.572 -0.0981  0.0584 -0.1075
24415W        W40889  13.559  10.029  15.482 -0.1780  0.1558 -0.0003
24416W        W40890   6.646   3.089   2.787 -0.0073 -0.0295  0.4614
24417W        W40891   9.942  11.800  11.469  0.1164  0.2254  0.3702
24418W        W40892  15.833   9.106   1.092 -0.0169  0.1283 -0.2367
24419W        W40893   2.012   5.253   2.686 -0.1651 -0.1276 -0.1927
24420W        W40894   0.865  17.609   2.777 -0.2796  0.1454 -0.2706
24421W        W40895  10.965  14.639  15.282 -0.1956 -0.2538  0.1877
24422W        W40896  17.365   6.432  13.926  0.0280 -0.0347 -0.1836
24423W        W40897   2.556   1.187   4.293 -0.0883  0.2062  0.0857
24424W        W40898   9.623   6.905   5.514 -0.1139 -0.1359  0.1153
24425W        W40899   2.444   2.744  12.316 -0.0365 -0.1117 -0.2321
24426W        W40900   1.203  12.032   5.502  0.4116  0.4989  0.1553
24427W        W40901   9.294   5.474   5.830  0.0113  0.0930 -0.1169
24428W        W40902   4.377   7.594   4.484 -0.0291  0.1484  0.3542
24429W        W40903   4.028   7.636  15.028  0.0646 -0.2748  0.1822
24430W        W40904   9.458   5.100  13.367  0.0878 -0.0114 -0.5748
24431W        W40905  11.762  16.224  11.835 -0.1585  0.0787 -0.0339
24432W        W40906   7.385   1.164   3.941  0.1280  0.0831  0.0123
24433W        W40907   8.378  16.654   0.653 -0.0562 -0.1208 -0.2607
24434W        W40908   9.614   9.348   5.955 -0.2336  0.1250 -0.2542
24435W        W40909   4.341  15.908  11.165 -0.2016  0.3631  0.1892
24436W        W40910  18.171   5.512  14.064  0.2631  0.0309  0.3151
24437W        W40911   3.918  12.266   4.849  0.1578 -0.0027  0.1749
24438W        W40912  17.288   2.522   2.773  0.1829 -0.1953  0.3991
24439W        W40913  16.494  15.173   2.710  0.4524  0.1914  0.1449
24440W        W40914   0.912  10.250  15.417 -0.1398  0.1597 -0.0931
24441W        W40915   9.016   0.667  13.539 -0.0363 -0.1332  0.0136
24442W        W40916  12.740  16.642   3.133 -0.0850 -0.0726 -0.1687
24443W        W40917  11.463  11.289   2.300 -0.2790  0.0162 -0.1654
24444W        W40918   2.463   7.798  13.916 -0.1696 -0.1342  0.1734
24445W        W40919   5.201  12.888   3.392  0.0155  0.1788 -0.0314
24446W        W40920   4.909   2.780   3.632  0.3153 -0.0205  0.1320
24447W        W40921   3.422  11.072  14.586 -0.2811  0.3699  0.3054
24448W        W40922   3.497   0.446   3.129  0.1599  0.0863 -0.2611
24449W        W40923   8.149  11.344   1.015 -0.1037  0.3025 -0.1811
24450W        W40924  12.887  14.570  13.803 -0.5895  0.0382  0.0798
24451W        W40925   9.538   0.136  14.383  0.1022  0.3292 -0.0564
24452W        W40926  16.599   7.649   3.972 -0.3896  0.0327 -0.2702
24453W        W40927  12.178   5.883   3.683  0.1760 -0.3834 -0.2717
24454W        W40928   9.780   0.905  13.216 -0.0090  0.1669 -0.0881
24455W        W40929   2.686   8.567   0.993  0.0461  0.0346 -0.0237
24456W        W40930  16.788   7.543  15.784  0.4112  0.1348  0.1254
24457W        W40931   7.011  16.780   5.111 -0.3180  0.0330  0.1176
24458W        W40932   3.043  10.743  14.398 -0.1855  0.1233  0.1071
24459W        W40933  13.537   2.332   3.878 -0.1566  0.1069  0.0814
24460W        W40934  12.040   0.531   0.252 -0.1313  0.2500  0.0775
24461W        W40935   1.764  15.255   0.838 -0.3189 -0.2301  0.0151
24462W        W40936  12.030   5.872   1.633 -0.2703 -0.1020 -0.2565
24463W        W40937   4.969   5.480  12.198 -0.1819 -0.0612 -0.0221
24464W        W40938   2.756  15.451  15.822 -0.1206  0.4146 -0.0570
24465W        W40939   3.922  10.473  15.771 -0.0880 -0.1220 -0.0986
24466W        W40940   2.575  15.542   1.741 -0.0474 -0.2293  0.1944
24467W        W40941   8.486   7.154  13.521  0.0928 -0.0264  0.0698
24468W        W40942  16.147  11.302   2.603 -0.0695  0.2334  0.0897
24469W        W40943  16.631   7.132  12.736  0.0982 -0.0841  0.3932
24470W        W40944   1.414   2.285  10.612  0.0908  0.0408  0.0163
24471W        W40945   2.908   3.078  12.631 -0.1919  0.0815  0.1079
24472W        W40946   1.057  11.448  14.212 -0.0757  0.1838  0.1574
24473W        W40947  12.455   8.733   3.313  0.0881  0.1117 -0.1562
24474W        W40948   6.784   3.908  15.005 -0.0643  0.3928 -0.2153
24475W        W40949  17.144   2.057   5.749 -0.1661  0.1188  0.0376
24476W        W40950   7.421  15.238   2.792 -0.1201  0.0006  0.2960
24477W        W40951  16.135   5.167  13.856  0.0057 -0.0442 -0.0609
24478W        W40952  10.964  13.923  16.061 -0.3798 -0.4161 -0.2272
24479W        W40953   6.975  11.801   3.980  0.0237  0.1265  0.1434
24480W        W40954   1.872  15.904   2.798  0.0471 -0.2577 -0.2852
24481W        W40955   4.867   1.997   5.638  0.6023 -0.0643 -0.1090
24482W        W40956  13.631   6.067   0.844  0.1029 -0.1950 -0.2104
24483W        W40957   3.947  17.937   0.402 -0.1679 -0.2243 -0.1152
24484W        W40958  12.029   0.113  14.544 -0.0118  0.1195 -0.1347
24485W        W40959  12.465   7.417  15.307 -0.5094  0.0879  0.0061
24486W        W40960  12.627  13.799   0.183  0.1662 -0.0788 -0.0586
24487W        W40961   9.503   9.246   4.169  0.0795  0.1105  0.1329
24488W        W40962  10.122   1.985   4.692 -0.0285  0.2361  0.0328
24489W        W40963   0.728   2.761  10.713 -0.2440 -0.0127  0.1693
24490W        W40964   4.099   2.688   1.169 -0.1671  0.2358  0.1372
24491W        W40965   0.508   0.114   5.404  0.0115 -0.1582 -0.2136
24492W        W40966  17.549   1.696   1.065  0.1027 -0.0548  0.2027
24493W        W40967  15.860  12.693   2.519 -0.1194  0.0465 -0.0684
24494W        W40968   8.051  11.439   3.180  0.2335  0.0307  0.0014
24495W        W40969  11.928  10.469  13.127  0.0742  0.0270  0.0796
24496W        W40970   8.705  11.988   0.645  0.1831 -0.0262  0.1322
24497W        W40971   5.139  15.278   1.674  0.0909  0.1818 -0.0761
24498W        W40972   1.595   9.213  12.910  0.4697 -0.4456 -0.1116
24499W        W40973  15.290  15.488  15.947 -0.2831  0.1172 -0.2132
24500W        W40974   0.886   7.839  12.718  0.0577 -0.0213 -0.0747
24501W        W40975   3.309  16.401   1.690  0.0041 -0.1471 -0.3306
24502W        W40976   5.590   9.680  11.939  0.0063 -0.0949  0.0452
24503W        W40977  10.372  16.066   1.998  0.1019  0.1224 -0.1554
24504W        W40978  12.173  10.726   5.791  0.1307 -0.1374 -0.0034
24505W        W40979   5.792   8.237   0.131  0.0796 -0.0288 -0.0436
24506W        W40980  15.624   0.115  16.059  0.0815  0.0970  0.3456
24507W        W40981  12.511   0.045   2.011  0.0731 -0.3047 -0.5417
24508W        W40982  12.870  12.401  14.617 -0.3378 -0.0238  0.2865
24509W        W40983   3.551   9.721   4.473  0.0414  0.2550  0.0914
24510W        W40984  13.679   8.853  15.165  0.0178  0.1222 -0.1581
24511W        W40985   8.782  16.877   3.570 -0.2012  0.2765  0.0175
24512W        W40986   8.225   3.536   5.446  0.1146  0.4488  0.1111
24513W        W40987  11.440   9.920   3.143  0.5280 -0.0684 -0.0560
24514W        W40988   2.075  13.348   4.746  0.1051 -0.2533  0.0112
24515W        W40989  13.236   3.166   1.520  0.1041 -0.2520  0.2140
24516W        W40990  17.725   1.914  13.037  0.0427  0.1263 -0.0463
24517W        W40991   2.669  10.607  15.550 -0.2136  0.1722 -0.3604
24518W        W40992   2.449  14.024  15.543 -0.0647  0.1678 -0.1009
24519W        W40993   4.429   7.147   6.256  0.1561 -0.0204  0.0289
24520W        W40994  15.362   8.960  12.003 -0.0777  0.3087  0.2079
24521W        W40995   8.043   0.431  11.607 -0.0675  0.0262  0.0969
24522W        W40996   4.098   4.872  15.589 -0.1025  0.1257 -0.0186
24523W        W40997   8.311   0.122  11.873 -0.0728 -0.3902 -0.0185
24524W        W40998  13.251   3.046  11.672  0.0938 -0.1125 -0.0757
24525W        W40999  16.149  11.859   3.001 -0.0276  0.2257  0.1530
24526W        W41000   8.429   0.885   2.258  0.0777 -0.0707 -0.1919
24527W        W41001  15.878   5.188   4.748 -0.0465 -0.1891 -0.2015
24528W        W41002   0.506  16.212   3.791 -0.3008 -0.1354 -0.0491
24529W        W41003  15.326  10.826   2.369 -0.2728 -0.2134 -0.0961
24530W        W41004   8.791   1.926  12.050  0.4646 -0.0102 -0.1483
24531W        W41005   1.974   7.383  11.768  0.4816 -0.2178  0.1174
24532W        W41006  18.151  14.008   6.098 -0.1280  0.0105  0.1043
24533W        W41007  14.264   8.829  15.326 -0.0985  0.0368  0.5300
24534W        W41008   7.868  15.602  13.726  0.2774 -0.1504  0.3375
24535W        W41009  10.799   2.283   2.672  0.0893 -0.0038  0.3838
24536W        W41010   5.535   1.374   2.243  0.0425  0.0336  0.1981
24537W        W41011  17.088  14.787  13.395 -0.1101 -0.2687 -0.0463
24538W        W41012   6.152  16.007  13.708  0.3977  0.0487 -0.0680
24539W        W41013  17.862   9.251   2.853  0.0763 -0.3069 -0.2514
24540W        W41014   0.516  16.215  15.574  0.2331 -0.3170 -0.0094
24541W        W41015   0.187   5.469  11.516 -0.2864 -0.1685  0.1850
24542W        W41016  12.383  12.958  14.148 -0.0853  0.0158 -0.1098
24543W        W41017   0.385  17.589  15.742 -0.1989 -0.1882 -0.2055
24544W        W41018   1.512   0.525   4.836 -0.0199  0.1533  0.0463
24545W        W41019   4.858   1.504   1.478 -0.0631 -0.2903  0.3002
24546W        W41020  13.008   8.882   5.146  0.2114 -0.1941  0.2349
24547W        W41021  13.643  10.125   1.716 -0.0619  0.1627  0.0733
24548W        W41022  11.893   6.379   5.012  0.0558  0.1670 -0.1501
24549W        W41023   8.253   8.071   3.346 -0.2293 -0.2632  0.1980
24550W        W41024   2.066  17.577  13.182 -0.1007 -0.1039  0.1106
24551W        W41025  15.753  16.878  11.330  0.1739 -0.0254 -0.1629
24552W        W41026  14.339  11.472  14.861 -0.2338  0.0335  0.0043
24553W        W41027  16.315  14.779   4.932  0.1124 -0.1678  0.0005
24554W        W41028   7.391  11.458   1.774  0.1406  0.0350  0.1083
24555W        W41029  12.623   9.234   3.070 -0.0421  0.0853  0.1117
24556W        W41030   2.112   5.623  15.462 -0.0313 -0.0498 -0.1894
24557W        W41031  13.318   6.835   5.983  0.4343 -0.2047  0.2226
24558W        W41032  15.508   5.551  13.295 -0.0983 -0.0706  0.0924
24559W        W41033  15.190  12.971   1.406  0.1316  0.3268 -0.0230
24560W        W41034  12.949  16.342  16.149 -0.0571  0.0512  0.1781
24561W        W41035   3.889   7.393   6.668 -0.2115  0.2569  0.2185
24562W        W41036  10.615  14.316   5.406 -0.5182  0.0545  0.2766
24563W        W41037  11.480   2.955   0.999 -0.0915 -0.2903 -0.1059
24564W        W41038   6.806  14.068   5.520  0.2981 -0.0918 -0.5666
24565W        W41039   0.562  17.013  15.793  0.1508  0.1127 -0.0277
24566W        W41040   7.360   9.809   3.464  0.2334 -0.0332  0.1718
24567W        W41041   7.017   8.369  13.566 -0.0073 -0.1446  0.0050
24568W        W41042   3.913  11.925   0.015 -0.2809 -0.0264  0.0249
24569W        W41043  16.642   9.098  16.274  0.0728  0.1020  0.1194
24570W        W41044   9.827   9.619  13.217  0.3436 -0.2405 -0.2138
24571W        W41045   4.378   3.556   1.169  0.0774 -0.0618  0.2918
24572W        W41046  10.104  12.489  13.890  0.1056  0.0678 -0.1932
24573W        W41047  14.341   2.574   3.332  0.1739 -0.1812  0.0597
24574W        W41048   7.102  11.769   5.603 -0.0280 -0.0518  0.2661
24575W        W41049  12.060  16.340   0.141 -0.0883 -0.4410  0.0634
24576W        W41050  14.233   3.907   3.550  0.0069  0.1155 -0.1637
24577W        W41051  11.660   4.021  14.218 -0.0679  0.2598  0.0839
24578W        W41052  14.758   8.689   2.541 -0.1936 -0.1343  0.0762
24579W        W41053  10.134  15.000  15.675 -0.0383 -0.0856 -0.0007
24580W        W41054  15.380  12.970  13.038  0.2839  0.0001 -0.0908
24581W        W41055  16.974  10.243   1.865 -0.2316 -0.0871 -0.0734
24582W        W41056   9.126   1.062  16.305 -0.0345  0.0410  0.3677
24583W        W41057   2.107   5.558  13.333  0.1011 -0.1710 -0.4061
24584W        W41058  17.570   7.065  13.067  0.1514 -0.1249 -0.0352
24585W        W41059   5.890  12.333   4.894 -0.3031 -0.2202  0.3050
24586W        W41060   0.880   2.656   2.725 -0.1004  0.0069 -0.2543
24587W        W41061  15.458   6.655   1.050 -0.2057 -0.1648 -0.2075
24588W        W41062   1.230  16.567   5.416  0.0842 -0.0109  0.0721
24589W        W41063   3.428   4.911   0.497  0.0589  0.0679  0.2058
24590W        W41064  17.771  10.099   1.224  0.0269  0.0295 -0.1133
24591W        W41065  13.658  14.029   4.882 -0.0980 -0.1020  0.3620
24592W        W41066   0.047  15.336   2.801 -0.0484 -0.0142  0.1664
24593W        W41067   8.775  18.077   1.158  0.1040  0.3168  0.1842
24594W        W41068  14.265   9.963  13.854  0.0088  0.1070 -0.0604
24595W        W41069  12.505  14.803   1.490  0.0421  0.2059 -0.1187
24596W        W41070  13.268   0.787   0.597 -0.2656  0.0114 -0.0844
24597W        W41071  12.008  17.276  16.062 -0.3261  0.1372 -0.0477
24598W        W41072  15.864   1.487   3.572  0.2958 -0.2363  0.2279
24599W        W41073   5.907  13.494   3.023  0.1409 -0.2927 -0.0627
24600W        W41074   1.500   2.256  14.903  0.2525  0.2494  0.1019
24601W        W41075  14.161   4.216  11.023  0.1267  0.0068 -0.0784
24602W        W41076  11.204  10.927   3.815 -0.0444 -0.0748 -0.0805
24603W        W41077  17.799   9.110  13.934  0.3024 -0.0784 -0.2075
24604W        W41078  16.156   7.916  13.089  0.1377  0.0422  0.0205
24605W        W41079  15.290   4.436   4.274  0.0285 -0.0888  0.0357
24606W        W41080   4.928  15.975  15.584 -0.1803 -0.0766 -0.3044
24607W        W41081  17.280  11.903  14.203  0.1209  0.0572  0.0379
24608W        W41082  15.642  14.395   2.746  0.1468  0.2104 -0.0361
24609W        W41083  11.095  11.999  12.069 -0.2558 -0.1168 -0.0647
24610W        W41084  16.802  10.984   3.672  0.4155 -0.1250 -0.0098
24611W        W41085  12.015  14.941   0.082 -0.0942  0.2485 -0.2918
24612W        W41086   8.339  17.077   5.546  0.2383  0.1908  0.0064
24613W        W41087   0.699   6.760   4.576 -0.1051 -0.1950  0.0815
24614W        W41088  14.800  13.491   3.193 -0.0654 -0.0425  0.0608
24615W        W41089  13.140   7.647   4.432 -0.3122 -0.1848 -0.1014
24616W        W41090   5.173  13.499  13.023 -0.3214 -0.2141  0.1036
24617W        W41091   1.223   7.577   4.903 -0.1819  0.0136 -0.0204
24618W        W41092  12.362  10.958   1.162 -0.0649 -0.0843 -0.1835
24619W        W41093  14.000   3.662  15.187 -0.1654  0.2991 -0.2165
24620W        W41094   1.128   5.012  12.479  0.0228 -0.1746  0.1214
24621W        W41095  13.964   1.948   2.048  0.0562 -0.1797  0.2505
24622W        W41096   8.618   1.515  10.266  0.2024  0.0367 -0.0632
24623W        W41097  11.312  14.648  13.697  0.0354  0.0763 -0.1327
24624W        W41098   4.441   4.484   0.086 -0.3802  0.1797  0.4843
24625W        W41099  17.470  16.176  14.139 -0.1478 -0.1684 -0.0688
24626W        W41100  13.760   0.658  16.066  0.0503  0.0848  0.1574
24627W        W41101   6.047   9.335   4.000  0.0051 -0.1450 -0.1997
24628W        W41102   0.240  13.091  11.883  0.1807  0.2111 -0.0450
24629W        W41103  17.795   0.420   1.253 -0.3501 -0.2228 -0.0856
24630W        W41104   9.705   1.615  14.968 -0.1635 -0.1323  0.2313
24631W        W41105   1.744  17.632  13.663  0.2863  0.0515  0.3254
24632W        W41106   3.142   3.287   3.583  0.1697  0.2829  0.5003
24633W        W41107  14.194   2.108   0.106 -0.1153 -0.2601  0.1091
24634W        W41108  11.959   6.112   0.595  0.2494  0.0036  0.0541
24635W        W41109   8.927  10.859   4.767 -0.0845  0.2203  0.0594
24636W        W41110   1.199   8.585   1.309 -0.2304 -0.0173 -0.2860
24637W        W41111  18.300   1.199  13.461  0.1082  0.2191 -0.1913
24638W        W41112   9.278   7.021   4.813 -0.2572  0.0285  0.2282
24639W        W41113   0.604   9.328  14.134  0.0203  0.0071 -0.0439
24640W        W41114   9.853   7.190   2.414  0.1514  0.1990  0.0306
24641W        W41115  14.141   6.569  14.350  0.0554 -0.0611  0.5695
24642W        W41116   4.085  11.133   1.550 -0.4087  0.5574 -0.1977
24643W        W41117  17.236  12.909  14.234  0.1645 -0.5193  0.5312
24644W        W41118  16.792  17.724   4.584 -0.2376  0.0318 -0.1906
24645W        W41119   5.948   2.737  11.168  0.1666 -0.1912  0.2567
24646W        W41120   0.845  10.531  12.429 -0.1651 -0.0913  0.4425
24647W        W41121   2.101  14.334  12.286  0.1873 -0.1931  0.0535
24648W        W41122   1.900  10.060  15.077 -0.2279  0.2283  0.1999
24649W        W41123  15.541   6.305   0.291 -0.1872 -0.0245 -0.1636
24650W        W41124   8.172  11.875   1.699  0.1481  0.2015  0.0339
24651W        W41125  10.876   2.673  12.105 -0.1637 -0.2571  0.2908
24652W        W41126   0.144  13.747   0.252  0.0446 -0.0471 -0.0292
24653W        W41127  12.216   3.179   2.843  0.1777 -0.3138  0.0246
24654W        W41128  10.267   8.697   0.883  0.1056 -0.2898  0.0127
24655W        W41129  15.567  15.404   2.500 -0.2216  0.2183  0.1538
24656W        W41130   7.011  17.449   1.826 -0.1201 -0.1586  0.2174
24657W        W41131   1.500  12.932  13.839 -0.3020  0.1248  0.0420
24658W        W41132  13.383   9.975   4.251 -0.0352  0.1937  0.1838
24659W        W41133  16.954  17.591   3.672  0.3025 -0.1487  0.0732
24660W        W41134   6.070   9.718  12.338  0.3316  0.1086 -0.0215
24661W        W41135  13.158   4.413   5.128  0.1707 -0.2016 -0.4061
24662W        W41136  15.041   8.742   4.744 -0.2628 -0.1426  0.2643
24663W        W41137  13.794  16.330  12.689  0.3008 -0.1114  0.0115
24664W        W41138   5.197   3.816  11.494 -0.0367 -0.0748  0.0219
24665W        W41139   6.910  16.441  14.118  0.2245  0.0104  0.0463
24666W        W41140  13.735   6.282  13.050  0.1389  0.0935 -0.5169
24667W        W41141   0.519   0.816   3.731  0.1149 -0.2045 -0.1568
24668W        W41142   5.252  12.615   1.666 -0.0451 -0.0715  0.4090
24669W        W41143   3.199  13.641  12.898 -0.0157  0.0733 -0.1722
24670W        W41144   3.024  14.635   4.708 -0.1544  0.0924  0.0550
24671W        W41145   1.668  14.312   4.427  0.2646 -0.1633 -0.1003
24672W        W41146   9.451   2.552   5.119 -0.1802 -0.0041  0.0942
24673W        W41147  17.757  12.399   1.689 -0.0784 -0.0116 -0.3354
24674W        W41148   5.383   4.047  11.919 -0.3324 -0.0194 -0.1237
24675W        W41149  10.796   3.106  13.017  0.0768 -0.1648 -0.2022
24676W        W41150  12.114   4.082   1.232 -0.0049 -0.0205 -0.1340
24677W        W41151  14.482   5.319   3.858 -0.0671  0.0772 -0.0912
24678W        W41152  15.491   3.059  16.166 -0.0849 -0.2853 -0.0506
24679W        W41153   6.509  14.715   2.402 -0.1821 -0.1400  0.1330
24680W        W41154  10.047   0.717  12.834 -0.0918 -0.0011 -0.0758
24681W        W41155   7.404  10.719   2.366 -0.0500 -0.3285 -0.2440
24682W        W41156   6.721   8.354   0.060  0.0968  0.3494  0.0351
24683W        W41157  16.674  17.487  13.297 -0.1397 -0.0735 -0.4866
24684W        W41158   8.330  10.473  16.312  0.1177 -0.0803 -0.1097
24685W        W41159  12.754   8.290   1.288 -0.0032 -0.2885 -0.0505
24686W        W41160   5.602   1.743  14.395  0.0394  0.2057 -0.0839
24687W        W41161  14.761  15.805   2.964 -0.0197  0.1331  0.0212
24688W        W41162   8.970   3.428  11.904 -0.0403  0.1623 -0.0445
24689W        W41163  13.747   4.819  12.039  0.2551 -0.0038 -0.1427
24690W        W41164   7.084  15.062   0.216  0.1149 -0.1646  0.0818
24691W        W41165   8.166   9.017   1.537 -0.0950  0.1490  0.2490
24692W        W41166   7.049  16.503  16.201 -0.0019 -0.2107  0.0835
24693W        W41167  16.797  12.926   2.771  0.2245  0.0833 -0.0515
24694W        W41168   4.485  17.524   2.723  0.0293  0.2524  0.1286
24695W        W41169   1.420   5.353   2.103 -0.1362  0.1141 -0.1473
24696W        W41170  12.009   6.875   6.144 -0.0773  0.1931 -0.0837
24697W        W41171   7.648  13.275   3.156 -0.0583 -0.3111 -0.0204
24698W        W41172   2.872   7.947  14.279  0.0407 -0.2184  0.0467
24699W        W41173   3.888  10.530   2.791  0.0756  0.0973  0.1551
24700W        W41174  14.088  17.849   3.307 -0.1921 -0.2773 -0.1360
24701W        W41175  15.896   6.786  14.644  0.2324  0.0658 -0.1146
24702W        W41176  15.510  12.270  11.109 -0.0277  0.0220  0.1791
24703W        W41177   5.734  11.082   0.218 -0.2455 -0.0003  0.0595
24704W        W41178   2.753  10.780  13.659  0.1061 -0.0355  0.0990
24705W        W41179  17.708  15.385  15.234 -0.1652  0.0567  0.4240
24706W        W41180   6.667  10.695  12.556  0.1913 -0.0239 -0.0635
24707W        W41181   6.898   1.317   4.098 -0.2540 -0.0152 -0.0885
24708W        W41182   6.583  10.120  12.731  0.1976 -0.0575 -0.2058
24709W        W41183   5.362   7.294  11.523  0.0104 -0.0395  0.0048
24710W        W41184   5.811  16.121   3.178 -0.0334  0.0342 -0.0443
24711W        W41185  15.997  12.429  13.481 -0.2006 -0.1064  0.0527
24712W        W41186   9.462   3.142   0.904 -0.2896 -0.2343  0.2706
24713W        W41187   0.359  10.805  12.619  0.0903  0.0377  0.2725
24714W        W41188   0.927   8.847   2.367 -0.1561 -0.3528  0.1121
24715W        W41189   0.988   1.434  13.407  0.2376 -0.0899 -0.5853
24716W        W41190  11.709   1.988   2.603  0.1796 -0.2159 -0.2873
24717W        W41191   1.859  17.465   1.268 -0.1757  0.0312 -0.0271
24718W        W41192   6.533  13.120  13.315 -0.0536 -0.2733  0.1843
24719W        W41193   9.627   4.040  11.621 -0.1953  0.0638 -0.0440
24720W        W41194   9.061  12.406  15.339  0.2471  0.1525  0.1659
24721W        W41195  15.157   8.505   3.448 -0.1916  0.0031 -0.0216
24722W        W41196   7.230   3.157   4.072 -0.2943  0.0494 -0.2565
24723W        W41197  11.539  14.753   0.126 -0.3197  0.1533  0.0641
24724W        W41198  16.260  11.021   4.219 -0.1740  0.1792 -0.1126
24725W        W41199   9.093  15.620  14.649 -0.1727 -0.0690 -0.1182
24726W        W41200  12.876   4.387   2.445  0.1035 -0.0101  0.2691
24727W        W41201   8.877   0.370   3.512 -0.0387 -0.2268 -0.2393
24728W        W41202  11.841  12.729   1.766 -0.0315  0.0426  0.0265
24729W        W41203  13.908   5.027  15.304  0.0616  0.1613  0.2376
24730W        W41204   1.277  17.811  15.967 -0.0345  0.0465  0.3323
24731W        W41205  11.041  15.876  15.693  0.0178 -0.0256 -0.4628
24732W        W41206  14.025   2.410  15.848 -0.0491 -0.1898 -0.3841
24733W        W41207  15.459   8.743  15.525  0.0033  0.0011  0.0622
24734W        W41208   5.935   0.122   0.549  0.2172  0.0235  0.0380
24735W        W41209   7.183   2.270   2.457  0.1539 -0.1620 -0.0191
24736W        W41210   2.567  16.647  11.620 -0.1700  0.1204 -0.2777
24737W        W41211   1.378   7.226   6.184  0.0908 -0.2178  0.0801
24738W        W41212   7.768  13.706  14.445  0.0095 -0.2730  0.0173
24739W        W41213   8.800  17.408  15.628  0.1033  0.1023  0.0965
24740W        W41214  17.979   3.319  15.796  0.1237 -0.1132 -0.1091
24741W        W41215  14.856  16.415   1.355 -0.4484  0.1443  0.0671
24742W        W41216  15.981   2.762   5.887 -0.0048  0.2107 -0.0964
24743W        W41217   8.447   8.392  14.810  0.3115 -0.1169  0.1296
24744W        W41218  17.138   2.141   2.519  0.2099  0.1620 -0.4372
24745W        W41219  13.056  11.605  15.829  0.1069  0.0544  0.1350
24746W        W41220   6.031  17.912   3.352  0.2481 -0.1211  0.2608
24747W        W41221  15.195  13.632   5.644  0.0939  0.0079  0.1859
24748W        W41222  14.071  15.710  12.112 -0.0640  0.0537  0.0529
24749W        W41223   3.418   0.077  15.986  0.1875 -0.0414  0.0200
24750W        W41224   2.414   2.695   2.615 -0.2507  0.1214 -0.1693
24751W        W41225  15.754   9.135  14.534  0.0279  0.1042  0.0381
24752W        W41226   8.234   9.609  15.491 -0.0392 -0.0895  0.0501
24753W        W41227  11.828   0.428  12.650 -0.0007  0.0215  0.1388
24754W        W41228   9.673  10.487  13.715  0.0445  0.0893  0.4040
24755W        W41229  10.154   6.883  13.316  0.1412 -0.0865  0.0490
24756W        W41230  17.850   9.355  12.835 -0.1141  0.0373 -0.0641
24757W        W41231   2.611  13.109  14.517  0.4279  0.0969 -0.0654
24758W        W41232   1.607   0.647  12.738 -0.1412  0.2769 -0.0721
24759W        W41233   2.585  16.789   1.289  0.1238 -0.0473 -0.0584
24760W        W41234   7.262  13.913   2.606  0.2022 -0.0757  0.0569
24761W        W41235   5.885   3.802   3.491  0.0063  0.2921  0.0366
24762W        W41236  16.896   2.745  13.596 -0.1436  0.1690  0.0621
24763W        W41237  18.242   6.520  15.417  0.1866 -0.2833 -0.2493
24764W        W41238   5.704  15.431  14.893  0.1860 -0.4290  0.1536
24765W        W41239   7.680  14.181   0.067  0.1361 -0.1253 -0.3851
24766W        W41240  17.912   3.314   4.913 -0.1347  0.2792 -0.2332
24767W        W41241   5.038   4.704   0.467  0.3721 -0.1578 -0.1230
24768W        W41242   7.401  16.384  12.645  0.2503  0.0164 -0.1142
24769W        W41243  15.156  16.049   2.692  0.0992 -0.0337 -0.1601
24770W        W41244  15.667  12.099   1.264  0.2400 -0.1106  0.0828
24771W        W41245   3.440   5.911   1.049 -0.5416  0.0294  0.0320
24772W        W41246   9.297   0.911  14.444 -0.1617 -0.2135 -0.3423
24773W        W41247  17.225   3.692  13.818  0.1453 -0.1286 -0.1512
24774W        W41248   4.205  13.944  15.810  0.1932 -0.1190  0.1645
24775W        W41249   3.240   1.925   2.794  0.3851 -0.3156 -0.3925
24776W        W41250   9.883   2.013   3.655 -0.0086  0.1834  0.0700
24777W        W41251  13.159  18.286   0.519 -0.0271 -0.2351  0.0350
24778W        W41252  11.403   3.611  11.522  0.2741  0.4674  0.0561
24779W        W41253  17.332   1.954   4.306 -0.1507  0.2204 -0.2107
24780W        W41254  10.035  15.357  13.718  0.0070 -0.1114  0.0227
24781W        W41255  16.627   5.544   3.140 -0.0605  0.0134 -0.0497
24782W        W41256  11.402   3.996  15.068  0.0392 -0.4176  0.3338
24783W        W41257  13.555   5.790   1.356  0.2293  0.1503 -0.0367
24784W        W41258   0.727   6.743  12.067 -0.0864  0.2206 -0.1481
24785W        W41259  15.889   9.785   4.941 -0.0130 -0.0112 -0.1019
24786W        W41260   0.281  14.120  12.733  0.0916 -0.1640  0.3495
24787W        W41261  10.835  11.705  13.035  0.1855 -0.1497  0.0638
24788W        W41262  17.879   5.288   2.583 -0.0351  0.0420  0.0341
24789W        W41263   6.576  18.239  15.632  0.0278 -0.0232 -0.1276
24790W        W41264   0.172   8.132   3.311 -0.2004 -0.3490 -0.0663
24791W        W41265   8.349   5.943  15.509  0.0855  0.1962  0.1149
24792W        W41266   3.353   3.345   2.573 -0.0985 -0.1792  0.0010
24793W        W41267   5.468   1.261   4.508 -0.1549  0.3530  0.2856
24794W        W41268  15.306   6.754  11.870 -0.0086  0.5438  0.0343
24795W        W41269  14.939  12.214   3.896 -0.1746 -0.3579 -0.0389
24796W        W41270   6.905   4.908  14.782 -0.1563  0.0506  0.1230
24797W        W41271  11.054  11.510  13.830 -0.0389 -0.1711  0.3381
24798W        W41272  14.970  11.383  15.795 -0.0036  0.0872 -0.2145
24799W        W41273   7.743  16.974   1.291  0.1349 -0.2302 -0.0266
24800W        W41274   2.466  14.268  13.326  0.0959  0.0749  0.0856
24801W        W41275   8.592   9.502  13.516 -0.3053 -0.2637  0.0852
24802W        W41276   1.457  10.967   4.160 -0.2325  0.2386 -0.0208
24803W        W41277   9.162   1.963   3.227  0.2270 -0.0418  0.1072
24804W        W41278   0.334   0.279   0.923 -0.2409  0.1257 -0.3180
24805W        W41279   1.109   6.829  14.827  0.1489  0.1653  0.1305
24806W        W41280   8.966   0.024   0.339  0.0523  0.3267 -0.4051
24807W        W41281  10.508   3.471  11.712 -0.3766 -0.0983 -0.2620
24808W        W41282   7.200  14.629  11.569 -0.1811  0.1716  0.0116
24809W        W41283  18.201  11.819  11.501  0.1115  0.1629  0.0668
24810W        W41284   4.423   1.005   2.538  0.0450 -0.4374  0.1056
24811W        W41285   8.223   3.633   4.362 -0.0722 -0.2119  0.1912
24812W        W41286  12.103   9.779   0.386  0.0581  0.3591  0.3394
24813W        W41287   6.289  18.149   1.904 -0.0544 -0.2060 -0.0437
24814W        W41288   9.048   0.347  13.165 -0.0928 -0.0959  0.1786
24815W        W41289  10.955   1.207  13.266  0.0182 -0.1237 -0.2729
24816W        W41290  14.292   7.557   0.426  0.3449 -0.1532  0.1137
24817W        W41291   8.493   0.591  11.878 -0.2307 -0.2681 -0.1461
24818W        W41292   4.962   0.154  11.259  0.2059  0.1254 -0.0916
24819W        W41293   2.008   5.973   0.278 -0.0462 -0.3902 -0.1291
24820W        W41294  11.340  16.069   2.945  0.0140  0.0322 -0.1695
24821W        W41295  11.602   6.031   3.948 -0.0727  0.0718 -0.3649
24822W        W41296   7.041  11.995  15.942 -0.0595  0.2190 -0.1378
24823W        W41297  17.121   4.241   4.967 -0.3030 -0.0621 -0.1467
24824W        W41298   3.534  11.441   4.423  0.2277 -0.1285  0.0285
24825W        W41299   4.432   8.689  13.118  0.1779  0.0493 -0.0183
24826W        W41300   9.746   5.734   4.952 -0.1465 -0.1845  0.0633
24827W        W41301   9.808   9.462  12.751 -0.0354 -0.1727  0.2181
24828W        W41302   8.412   5.320   4.275 -0.0092 -0.1161 -0.1846
24829W        W41303  10.202   0.033   5.139 -0.3071 -0.0826  0.1469
24830W        W41304   2.102  13.237   2.881  0.0887  0.1103 -0.0672
24831W        W41305   4.454  10.032   4.706 -0.3514  0.1011  0.3234
24832W        W41306   9.562  13.173   2.869  0.2260 -0.1695  0.4457
24833W        W41307   1.476   0.364  16.287  0.2192  0.0585  0.0461
24834W        W41308   5.135   7.066  12.997  0.1795  0.0244  0.1651
24835W        W41309   0.087  14.303  13.993  0.2609  0.0769 -0.0616
24836W        W41310   5.660   5.087   2.472 -0.0107  0.1965 -0.0419
24837W        W41311   1.353  18.017  11.191 -0.3310 -0.0794 -0.0652
24838W        W41312  10.206   8.316   5.276 -0.2530 -0.0180 -0.2293
24839W        W41313   9.590  15.507   6.048  0.3763 -0.1936 -0.2457
24840W        W41314   1.618  12.857  16.112  0.2277 -0.2616  0.0714
24841W        W41315  16.224   4.173   1.076  0.2048  0.3909 -0.1635
24842W        W41316  16.940  13.416  13.719 -0.0069  0.1637 -0.1875
24843W        W41317   0.798   2.481   1.001  0.2293  0.0540 -0.1601
24844W        W41318  10.109  16.239   4.281 -0.2954  0.0977 -0.1069
24845W        W41319  17.299  13.719  14.470  0.1088 -0.2896 -0.0367
24846W        W41320  14.959  10.482  13.868  0.1344  0.0933  0.0685
24847W        W41321   4.486  17.518   3.266  0.2983 -0.0697  0.4973
24848W        W41322  16.590  16.506   2.888 -0.2744 -0.1672 -0.1186
24849W        W41323   1.559   8.772   2.718  0.0368 -0.0566  0.2272
24850W        W41324   0.645  14.770   1.081 -0.1622 -0.3833 -0.1811
24851W        W41325   9.620  10.885   3.179  0.0214 -0.0095  0.1110
24852W        W41326  14.178  14.392   4.706  0.1859  0.1575  0.1670
24853W        W41327  13.094  10.633  10.504  0.3076 -0.2452  0.2361
24854W        W41328   9.411   5.075  14.995 -0.1478 -0.3950  0.2288
24855W        W41329   4.163  17.172  13.581 -0.2803  0.1186  0.0819
24856W        W41330  16.460  11.791  15.313 -0.0885  0.1754 -0.3841
24857W        W41331  15.665  12.350  10.672  0.1584  0.1766  0.1748
24858W        W41332  12.992   0.772   5.477  0.0639  0.1509  0.1997
24859W        W41333  14.387   0.870   2.552 -0.2018 -0.3154 -0.2397
24860W        W41334  17.531   0.575  11.629  0.1559  0.1717 -0.3240
24861W        W41335   5.622   1.628  14.938 -0.2051  0.3447 -0.2331
24862W        W41336   7.482  11.247  15.968 -0.0785 -0.1257 -0.0228
24863W        W41337  16.176   3.822   3.467 -0.0969 -0.3327 -0.2400
24864W        W41338  16.998   9.111   5.266  0.1608  0.0124  0.0200
24865W        W41339   3.022   3.624   5.432 -0.2139 -0.2077  0.0159
24866W        W41340  16.867   1.749   0.219  0.0527  0.2550  0.1554
24867W        W41341   4.805   6.916   3.457  0.0058 -0.1648  0.0854
24868W        W41342  11.526  11.431  13.989  0.0908  0.1585 -0.1742
24869W        W41343  11.385  15.240   1.915 -0.1889  0.1764 -0.0561
24870W        W41344   4.326  11.205   6.340  0.1820 -0.2511 -0.0833
24871W        W41345   9.312   8.189   1.868 -0.0020 -0.1815  0.2732
24872W        W41346   0.228  16.098  14.123 -0.1369  0.1127 -0.0601
24873W        W41347   5.288   9.193  12.553  0.1782  0.0503  0.1145
24874W        W41348   0.404   7.063   3.927  0.0128  0.1961 -0.1028
24875W        W41349   2.803   5.091  14.699  0.1893  0.2378  0.1236
24876W        W41350  16.521  15.332   4.872  0.4001  0.1378 -0.2622
24877W        W41351   6.792   6.121   6.413  0.2050 -0.1346 -0.1628
24878W        W41352   3.956  17.356   3.954 -0.0618 -0.1122 -0.1796
24879W        W41353  10.449  17.628  11.840  0.0642  0.0611 -0.0235
24880W        W41354   8.056  12.893   3.480 -0.1067  0.1364  0.2797
24881W        W41355  10.596   6.953  12.139 -0.0999 -0.2277 -0.1330
24882W        W41356   6.357  12.346  15.827  0.3634  0.0760 -0.1046
24883W        W41357  12.414  11.296   2.186 -0.0681  0.1922  0.0145
24884W        W41358  16.918   0.111   0.551 -0.1655 -0.1122  0.1267
24885W        W41359   2.819   4.215   2.261 -0.0921  0.2299  0.0102
24886W        W41360  15.457   8.070   1.574  0.2281  0.0209  0.0873
24887W        W41361  17.277  12.882  11.216 -0.0566  0.3644  0.0945
24888W        W41362   9.069  17.934   2.391  0.1420  0.0257  0.0113
24889W        W41363   2.442   1.791  13.320  0.0959  0.0375  0.3089
24890W        W41364  18.105   9.248  12.370  0.4662 -0.1949  0.4136
24891W        W41365  14.706   3.460  12.772  0.0324  0.4289  0.0035
24892W        W41366  13.013  15.424  14.965  0.1344 -0.1442 -0.1274
24893W        W41367   4.685   6.753  15.883  0.2888  0.4368 -0.1022
24894W        W41368  18.243  14.651  15.887  0.0267 -0.0116  0.1056
24895W        W41369   2.798   2.398   1.663 -0.2202 -0.2152 -0.0057
24896W        W41370   4.901  11.084  14.141 -0.1623 -0.1862  0.0572
24897W        W41371  17.277   9.114   0.265  0.0751 -0.0107  0.1598
24898W        W41372   0.451   7.589  16.220 -0.4540  0.1771 -0.1964
24899W        W41373   8.068   9.139  12.010 -0.0831  0.0842 -0.3742
24900W        W41374   5.093   7.228   1.426  0.1000  0.1177 -0.0239
24901W        W41375   3.037   6.345  12.842  0.1677  0.0859  0.0062
24902W        W41376   2.019   5.030  12.279  0.0855  0.4332 -0.0279
24903W        W41377  18.184   5.915   5.149  0.0601  0.0902 -0.0706
24904W        W41378  10.903   8.587  16.311  0.1348  0.1478  0.1728
24905W        W41379   6.335   0.758   1.142 -0.1015  0.2137  0.2059
24906W        W41380   6.307  13.580   6.277 -0.0719 -0.0279 -0.0102
24907W        W41381  17.297   5.120   3.306 -0.2326  0.0181  0.0729
24908W        W41382   3.879  18.174   3.625  0.2960  0.1129  0.1583
24909W        W41383   3.263  10.948  11.827  0.1165  0.2774 -0.1249
24910W        W41384  11.236  16.185  11.948 -0.0166 -0.3075 -0.0751
24911W        W41385   1.903   2.186   0.271 -0.1113 -0.0033 -0.0968
24912W        W41386  11.938  13.128   4.501 -0.0580 -0.0719  0.1592
24913W        W41387  13.336   1.880   3.668 -0.1541  0.0677  0.1012
24914W        W41388  13.105   5.331   0.723  0.0113 -0.1624  0.1070
24915W        W41389   6.106   0.993   1.573 -0.0488 -0.1078  0.1922
24916W        W41390   8.397   6.059  15.985 -0.3359 -0.2107 -0.0584
24917W        W41391  12.820   6.459   3.797 -0.5114 -0.1341  0.0979
24918W        W41392  16.564  14.547  15.947 -0.1101 -0.1819 -0.1376
24919W        W41393   0.646  16.168  15.115  0.0730  0.0698 -0.0779
24920W        W41394  16.863  12.590  14.712 -0.0144  0.0181  0.1011
24921W        W41395  16.503  13.910  16.064  0.2228  0.0378  0.0981
24922W        W41396   5.727   6.826   4.594 -0.0956 -0.0844 -0.2780
24923W        W41397   6.232  15.778  13.178  0.0112  0.3576  0.0536
24924W        W41398   7.642   1.570   4.883 -0.3467 -0.0247 -0.0632
24925W        W41399   9.147  14.212   1.846 -0.1195  0.2962  0.0901
24926W        W41400   1.538  13.823  16.036 -0.1482  0.1129  0.1721
24927W        W41401  10.612   5.641   5.305 -0.1033  0.0905  0.0212
24928W        W41402   9.112   7.123   0.073  0.0711  0.1197 -0.2047
24929W        W41403   7.948   7.189   1.112  0.1417  0.3898  0.0209
24930W        W41404  18.324  12.000   0.704 -0.1014 -0.2208 -0.0192
24931W        W41405  10.842   3.920   1.130 -0.1048 -0.3611  0.0233
24932W        W41406  15.644   4.950   5.192 -0.0551 -0.0243 -0.3525
24933W        W41407   3.657  15.097  16.003 -0.0985 -0.0371  0.0040
24934W        W41408  10.535  13.598  16.054  0.1672  0.2278 -0.0269
24935W        W41409  16.484  17.497  14.899  0.2027  0.2242 -0.1086
24936W        W41410   9.935  16.874  11.798 -0.0836  0.0577  0.2841
24937W        W41411   3.539  17.684   0.393  0.0060 -0.0206  0.0524
24938W        W41412   2.728  13.897  16.046  0.0525  0.1051  0.2455
24939W        W41413  11.928  16.758  15.968  0.2809 -0.3062  0.2008
24940W        W41414  16.903   4.712  12.288  0.1933  0.1008  0.2211
24941W        W41415  16.316  13.339  15.006  0.0506  0.1761 -0.1620
24942W        W41416   6.034  15.901  12.275 -0.0861  0.1688 -0.0513
24943W        W41417   4.705  11.519  14.363 -0.0430  0.0052 -0.2519
24944W        W41418  17.226   9.956   4.730  0.0991 -0.0852  0.0103
24945W        W41419  10.872   4.840   1.777 -0.2058 -0.1410 -0.1245
24946W        W41420  13.969  14.113   0.054 -0.3390 -0.0404  0.1167
24947W        W41421  18.037   1.308   4.304 -0.1636  0.0350 -0.3014
24948W        W41422   8.010   2.420   2.230  0.2287 -0.0826 -0.1564
24949W        W41423   5.715  11.575  14.883  0.0329 -0.0464  0.1288
24950W        W41424   7.940   5.882   1.325 -0.0188 -0.0358 -0.0724
24951W        W41425   0.101   6.030   2.731 -0.0873 -0.2065 -0.1780
24952W        W41426  17.343  11.698   4.451  0.3450  0.1350  0.0896
24953W        W41427   4.702   1.693  14.569 -0.2544 -0.0306  0.0608
24954W        W41428  17.159   9.242  15.137 -0.0322 -0.0855 -0.0587
24955W        W41429  11.071   0.537   3.896 -0.1695 -0.3452 -0.2577
24956W        W41430  17.330   2.017  12.454 -0.0992 -0.2264 -0.0765
24957W        W41431  10.916  13.350   0.751  0.0895  0.0710 -0.1321
24958W        W41432  13.656   7.207  13.036  0.1541  0.2160  0.0501
24959W        W41433   3.418  13.216  15.881  0.0863 -0.0142  0.2877
24960W        W41434  12.302  12.721   6.311  0.0141  0.1098 -0.0247
24961W        W41435   0.176   9.669   3.606  0.0379  0.0358  0.0107
24962W        W41436  14.795  17.146   5.814  0.1779 -0.0501 -0.1923
24963W        W41437   9.547   9.640   4.924 -0.3502  0.0503 -0.2503
24964W        W41438   1.812   3.452  13.530 -0.2303  0.4009 -0.2355
24965W        W41439   2.687  12.346  11.003 -0.1060  0.2787  0.2343
24966W        W41440   7.471   4.567  11.777 -0.1455 -0.0020 -0.1863
24967W        W41441   2.762   7.579   1.805  0.0979 -0.1586  0.0260
24968W        W41442  15.232  11.613   3.056  0.1967 -0.2904 -0.1256
24969W        W41443   2.632   8.121   2.921 -0.1219  0.3468  0.1944
24970W        W41444  15.555  10.312  16.064  0.3617  0.1797 -0.0374
24971W        W41445   8.543   5.963  14.004  0.1496  0.0131  0.0973
24972W        W41446   1.356   5.614  14.531  0.2392 -0.2181  0.1326
24973W        W41447   4.726   4.813  14.376  0.1600  0.1165  0.2072
24974W        W41448  10.501   1.226   3.939  0.0836  0.2676  0.1918
24975W        W41449  13.249   1.385   3.941 -0.0843 -0.1851  0.1347
24976W        W41450  13.986   0.214   4.952  0.2429 -0.1559  0.5881
24977W        W41451  16.725   4.985  13.049 -0.1328  0.2205  0.0152
24978W        W41452   5.060  16.800   3.629  0.2071  0.0861 -0.0039
24979W        W41453  13.806  14.751   4.045  0.1356 -0.2091 -0.2549
24980W        W41454   9.187   2.641  15.133 -0.3229 -0.3801  0.2558
24981W        W41455  18.108   6.303  11.544  0.0612  0.2805  0.0704
24982W        W41456  16.974   9.019   2.533  0.0013  0.2035 -0.4890
24983W        W41457  15.477  16.021   1.119 -0.0115  0.0804 -0.0682
24984W        W41458  14.781   0.652   3.907  0.0858 -0.2342 -0.0103
24985W        W41459   6.041  17.132  11.929 -0.0626  0.1808  0.2631
24986W        W41460   4.885  14.447   0.859 -0.0136  0.0868  0.3918
24987W        W41461   6.800  13.028   5.480  0.1052 -0.1636  0.0601
24988W        W41462   1.999   4.613  14.815  0.1275  0.3737  0.2671
24989W        W41463  17.107   3.928  13.370  0.1392 -0.0498  0.1526
24990W        W41464   0.497  15.592   2.788 -0.2607 -0.3279  0.0731
24991W        W41465   0.310   8.453  13.841  0.1895  0.2440 -0.0856
24992W        W41466  12.279  13.575   3.162 -0.1978  0.2377 -0.0920
24993W        W41467  10.119  15.389   1.388  0.2567  0.0284 -0.1831
24994W        W41468  13.965  11.842  15.847 -0.3326  0.1430 -0.3626
24995W        W41469   8.325  10.957  11.451 -0.0786 -0.1600  0.1488
24996W        W41470   4.653  15.026  11.908  0.3139  0.1706 -0.0287
24997W        W41471  13.970   5.147  13.295  0.0554  0.1157 -0.0568
24998W        W41472   8.421  16.493   3.502  0.0514  0.1681  0.1366
24999W        W41473   9.481  17.866  13.234 -0.2050  0.1317 -0.1642
25000W        W41474   8.750  14.557   3.055 -0.0720  0.0675 -0.0668
25001W        W41475  13.161   4.715   2.164  0.1087 -0.0107  0.2849
25002W        W41476  11.019  16.309  13.667  0.1623 -0.2114 -0.2882
25003W        W41477  10.886  11.872   4.550 -0.0665  0.0897 -0.0184
25004W        W41478  11.134   8.444  13.843 -0.2551 -0.2860 -0.1222
25005W        W41479   3.387  13.657  10.449  0.0628  0.0954 -0.0051
25006W        W41480  18.174  14.555   2.589 -0.0180  0.2377 -0.2139
25007W        W41481   9.268   7.723  15.045  0.1249  0.1541 -0.1224
25008W        W41482   0.639   0.702   2.622 -0.0706  0.0355  0.2857
25009W        W41483  13.671  13.545   4.471  0.1328  0.2336 -0.0926
25010W        W41484   7.397  13.268  11.052  0.0357 -0.1689 -0.0515
25011W        W41485   4.552  14.983   5.134  0.0164  0.1261  0.1113
25012W        W41486   9.083  12.248  15.808 -0.0399  0.1797 -0.4068
25013W        W41487  15.749   5.328   1.580  0.0969 -0.0591  0.0353
25014W        W41488   5.345   3.147   3.925 -0.1795 -0.2069  0.0119
25015W        W41489   4.123  13.527  15.521 -0.0506  0.1430  0.0094
25016W        W41490   5.885   4.903  11.612 -0.0047  0.4706 -0.2623
25017W        W41491  15.737  11.291   5.461  0.0892  0.1680  0.0669
25018W        W41492  11.038   3.091   5.328  0.1059  0.3612  0.1928
25019W        W41493  17.196   1.316  12.889 -0.2877 -0.1201 -0.2262
25020W        W41494   4.765  14.715  14.929 -0.1105  0.1455 -0.1802
25021W        W41495   5.676  12.585   1.382  0.0279  0.2405 -0.0500
25022W        W41496  11.339  10.406  14.884  0.1108 -0.0466 -0.0143
25023W        W41497   2.687  13.614   5.926  0.0568  0.2959  0.1949
25024W        W41498  11.243   0.604   2.791 -0.0049  0.2757 -0.3480
25025W        W41499   6.066   5.344  12.896 -0.2478 -0.0789 -0.0418
25026W        W41500  11.103  13.343  13.885 -0.0822 -0.0931 -0.1299
25027W        W41501   5.297  17.294   0.815  0.2274  0.1213  0.1652
25028W        W41502   0.645  13.648   3.321 -0.0330 -0.1505  0.1889
25029W        W41503   4.724   3.978  14.312 -0.1458  0.2318  0.0531
25030W        W41504  14.189   7.335   4.119 -0.0885  0.0523  0.2064
25031W        W41505  11.634   0.987  12.455 -0.2377 -0.1622  0.0985
25032W        W41506   7.510  12.141  15.804  0.0843  0.0621 -0.0383
25033W        W41507   1.294   2.186   2.294 -0.0682  0.0082  0.0318
25034W        W41508   3.055  11.692   2.929  0.0245 -0.1598  0.0214
25035W        W41509  10.517   5.717  13.696 -0.0183  0.1798 -0.1539
25036W        W41510  17.451   2.640   0.127  0.1678  0.1412 -0.2872
25037W        W41511   8.834  11.715  11.971  0.0954  0.2655 -0.2938
25038W        W41512   3.011   5.438  15.026  0.2093  0.1705  0.0668
25039W        W41513  12.497   3.771  15.518  0.0370 -0.1691 -0.0545
25040W        W41514   5.195   4.073  15.529  0.1090 -0.1779  0.2437
25041W        W41515   2.674  18.051  15.711 -0.1884  0.2039  0.0281
25042W        W41516   5.919  13.728  12.087  0.2321 -0.0194 -0.0587
25043W        W41517  16.401   0.123  15.282 -0.0129 -0.3092  0.1560
25044W        W41518  17.882  10.393   1.719  0.2996  0.1305  0.2944
25045W        W41519  15.768  16.771  14.080 -0.3475  0.0330  0.0378
25046W        W41520  15.014   8.228   0.659 -0.2432  0.1516 -0.0103
25047W        W41521  12.082   9.431  13.742 -0.0998  0.1140  0.2310
25048W        W41522   7.190  15.967   0.663 -0.0039  0.2247  0.1235
25049W        W41523  14.653  10.825  12.957  0.0951  0.2088  0.0833
25050W        W41524   4.587  13.230   1.352 -0.0984 -0.0778 -0.1445
25051W        W41525  15.729  16.364  14.332  0.1370  0.1471  0.2826
25052W        W41526   1.760   4.409   0.056 -0.1040 -0.3529  0.0084
25053W        W41527  16.639   9.773  16.220  0.2313 -0.1806 -0.0799
25054W        W41528   0.463  12.265   3.627  0.1494 -0.3133  0.0561
25055W        W41529   4.496   3.036  15.727  0.2080  0.2426 -0.0304
25056W        W41530   0.952  10.089   2.826 -0.0019 -0.1469  0.1341
25057W        W41531  17.469   8.980  16.100 -0.1340  0.1962  0.2418
25058W        W41532   2.446   2.306  12.517  0.0899  0.2508  0.1995
25059W        W41533  14.340   9.352  13.360 -0.0805 -0.1334 -0.0378
25060W        W41534   3.873   1.362  10.937 -0.0114 -0.0317 -0.3554
25061W        W41535   5.406   1.394  12.152  0.0306 -0.2789 -0.1419
25062W        W41536   7.537   9.504   0.462 -0.3423 -0.1579 -0.2015
25063W        W41537  10.939  14.614   2.549  0.0015 -0.1111 -0.0845
25064W        W41538  14.791   0.668   3.031  0.0990 -0.0775 -0.1724
25065W        W41539  13.547  12.270   0.671  0.1184  0.1578 -0.0710
25066W        W41540  10.561   4.127   2.797  0.0922  0.2233  0.3177
25067W        W41541   5.357   6.880  12.590  0.2306  0.2062  0.0169
25068W        W41542  16.138   8.724   1.537 -0.2769  0.0542  0.2039
25069W        W41543   9.130  16.619  10.832  0.0704 -0.0953  0.0129
25070W        W41544  15.926  11.629  15.209 -0.0277  0.0951 -0.0773
25071W        W41545   8.909   9.369   3.563 -0.3520 -0.2220  0.2795
25072W        W41546  17.960   8.515  13.218 -0.1715 -0.3883  0.4143
25073W        W41547   8.008   5.322   4.573  0.1524  0.0214 -0.1069
25074W        W41548   2.321   5.686  16.248  0.0520 -0.0556 -0.0293
25075W        W41549   1.772   0.927  10.896 -0.1503  0.1810  0.0928
25076W        W41550   7.865   4.002  11.061 -0.1117  0.0479  0.2404
25077W        W41551   0.481  13.516  12.107 -0.0400 -0.0751 -0.0392
25078W        W41552  12.423   7.007  12.086 -0.0401  0.2333 -0.1677
25079W        W41553   3.093  14.035   3.161  0.2014 -0.1066  0.2146
25080W        W41554  13.584   1.069   4.806  0.3164 -0.1014 -0.1155
25081W        W41555  10.477  18.018  15.474 -0.0459 -0.1259 -0.0804
25082W        W41556  16.502   3.470   4.457 -0.1071 -0.1025 -0.0873
25083W        W41557   3.412  10.924   1.807  0.1608  0.0485  0.0818
25084W        W41558   1.051  15.607  13.120  0.2854 -0.1002  0.3058
25085W        W41559  10.558   3.066   0.672 -0.2152  0.1437 -0.2588
25086W        W41560  17.983  16.781  14.771  0.0631 -0.2196 -0.0110
25087W        W41561  16.699  18.005   0.687 -0.1046  0.0031 -0.1290
25088W        W41562  10.403   9.752  14.170 -0.0479  0.1231 -0.1464
25089W        W41563  12.099   6.517  15.004  0.0097  0.0073 -0.2510
25090W        W41564   4.537  16.040   0.646  0.0609  0.1894 -0.0936
25091W        W41565  12.258   4.067   2.572  0.0358 -0.1102  0.0050
25092W        W41566  11.340  17.156  14.318 -0.0647 -0.1955  0.2322
25093W        W41567  14.503   5.237  14.208 -0.0695  0.0359 -0.1276
25094W        W41568   9.036  12.466  11.417  0.1280  0.2582  0.0941
25095W        W41569   3.268   9.525  12.522  0.0067  0.1407  0.0662
25096W        W41570   7.831   7.133  12.566 -0.1745  0.0913 -0.2470
25097W        W41571   8.727  14.154   5.523  0.0299 -0.4394  0.1435
25098W        W41572  14.348   9.001  13.041  0.0350  0.0041  0.1329
25099W        W41573   5.417   7.252   2.508  0.2195  0.1697  0.0554
25100W        W41574   3.054  16.594  13.835  0.0704 -0.1764  0.0224
25101W        W41575   0.785   9.791  14.086  0.0100 -0.2939 -0.4073
25102W        W41576  10.010   5.858   2.397  0.0028  0.0849  0.0288
25103W        W41577   3.100   6.828   0.120 -0.0736  0.1895  0.0240
25104W        W41578   6.166   9.663  14.889  0.3036  0.1636  0.0169
25105W        W41579  10.777  18.203   2.570  0.0659  0.0653  0.2960
25106W        W41580  11.979  17.772   1.547  0.1084  0.1049  0.0978
25107W        W41581  11.655   9.309   3.784 -0.0676 -0.0071 -0.0401
25108W        W41582   9.310  12.405   3.097  0.0319 -0.0791 -0.0794
25109W        W41583   4.994  13.323  12.062 -0.3558 -0.3242  0.0414
25110W        W41584   4.931   8.793   4.389  0.3288 -0.2449  0.2033
25111W        W41585  12.346  12.544   5.552 -0.1252 -0.0368  0.0670
25112W        W41586  17.504  16.811   5.420  0.0240 -0.0366 -0.0858
25113W        W41587   8.393   6.466   2.521 -0.0232 -0.1577 -0.0113
25114W        W41588   8.173  18.245  12.532 -0.0303 -0.0181  0.1941
25115W        W41589   1.656   7.386   4.797 -0.0014  0.2397  0.4352
25116W        W41590   8.996  17.098  16.299  0.1103 -0.0619 -0.0810
25117W        W41591   6.087   7.640   4.587  0.2400  0.2936 -0.1569
25118W        W41592   4.713   8.715  11.205 -0.4829 -0.3129 -0.0709
25119W        W41593   3.749  11.343  14.985  0.1836 -0.3785 -0.1856
25120W        W41594  14.409  14.092   3.917 -0.1381 -0.3118 -0.2062
25121W        W41595  14.924  14.967  14.974 -0.0212  0.0099 -0.1318
25122W        W41596  15.611  16.040  15.328 -0.0376 -0.0135  0.0194
25123W        W41597   7.965   8.630   1.757  0.0274 -0.4069 -0.2154
25124W        W41598   0.681  15.068   1.467 -0.2413 -0.3161 -0.0320
25125W        W41599  10.593  13.035  11.477 -0.0028 -0.1956  0.0375
25126W        W41600  15.950  10.061   1.220 -0.2316 -0.0394 -0.1534
25127W        W41601   9.337  13.765   2.841  0.0179 -0.0827  0.2603
25128W        W41602   2.222   7.618  14.749  0.0940  0.2326  0.1317
25129W        W41603   7.142   8.381   6.353 -0.3255  0.1748 -0.0574
25130W        W41604  16.258  17.457   5.842 -0.2614  0.0912  0.1740
25131W        W41605  11.636   5.779   2.082  0.1465 -0.2039 -0.0470
25132W        W41606   9.344   3.036  15.443 -0.3106  0.2271  0.2000
25133W        W41607  16.700  12.605   4.812  0.3495 -0.3456  0.0828
25134W        W41608  13.173   7.574   1.411  0.1792  0.0544  0.0223
25135W        W41609  16.816   6.674  11.812 -0.0053 -0.1116 -0.0056
25136W        W41610  13.947   5.243  12.816  0.1942 -0.1079  0.1251
25137W        W41611  10.713  10.004   1.518 -0.2658 -0.2415 -0.3224
25138W        W41612   8.702   3.899   4.239  0.0956  0.1315  0.0216
25139W        W41613  15.652  15.551   4.683 -0.0999 -0.0979  0.1729
25140W        W41614   1.588   0.864   4.153  0.1174 -0.3128 -0.1147
25141W        W41615  17.304   8.309  13.064  0.0269 -0.2425 -0.0843
25142W        W41616   2.232  11.892  11.621 -0.3362 -0.0480  0.1283
25143W        W41617   0.328  15.862   0.752 -0.5585  0.1741 -0.0896
25144W        W41618   6.472   6.282   4.945 -0.0750  0.1976 -0.1454
25145W        W41619  11.761   7.245  11.275 -0.1716 -0.1533 -0.0991
25146W        W41620  14.552   7.047  13.296 -0.0108  0.0696 -0.0840
25147W        W41621  17.365  13.289   1.274 -0.0123 -0.0066  0.3398
25148W        W41622  12.945  16.667  15.597  0.1222 -0.1866  0.0332
25149W        W41623   6.255  12.454  12.137 -0.0410  0.0957 -0.0399
25150W        W41624   2.851   8.729  14.137  0.2095 -0.0214 -0.2447
25151W        W41625   9.311  18.219   4.316 -0.0455  0.1132  0.1926
25152W        W41626   4.682   5.831  11.973  0.1875 -0.1099 -0.0376
25153W        W41627  14.296   3.550   3.229 -0.1934 -0.1784  0.1869
25154W        W41628  12.941   2.067  11.152 -0.0218  0.1187  0.0350
25155W        W41629  17.286   4.675   0.978  0.0784  0.0425 -0.1891
25156W        W41630  10.831  12.936   3.962 -0.4466 -0.0302 -0.1946
25157W        W41631   9.856   2.664  13.025  0.2036 -0.1980 -0.0880
25158W        W41632   3.866  16.244   4.007 -0.1831 -0.2127 -0.1596
25159W        W41633   3.325   4.928  11.391  0.0157 -0.0217 -0.1746
25160W        W41634  15.292   1.773   0.490  0.1853  0.3362 -0.1745
25161W        W41635  10.855  17.129  13.067  0.2473  0.0091  0.2545
25162W        W41636   1.111  14.999  11.299  0.1528  0.0427  0.0943
25163W        W41637  14.944   7.818  11.171  0.2473  0.2795 -0.0091
25164W        W41638  16.317   0.594   3.769  0.2232  0.0318  0.0823
25165W        W41639  13.081  11.076   5.934 -0.2178  0.3610  0.0880
25166W        W41640   8.860  12.525  13.420  0.0606  0.3178  0.0166
25167W        W41641   3.809   3.745   3.877 -0.1330 -0.2480  0.0615
25168W        W41642   3.896   5.205   5.046 -0.0977 -0.2351 -0.2568
25169W        W41643   0.348  11.692   0.945 -0.1894  0.0544  0.1849
25170W        W41644   2.503   6.850   1.452  0.3117 -0.1320  0.2447
25171W        W41645   9.438   5.841  11.814 -0.0057  0.5957  0.1712
25172W        W41646  11.570   1.042   3.630  0.1464  0.0714 -0.1670
25173W        W41647   3.887  10.746   1.845  0.1209  0.0359  0.1835
25174W        W41648   2.355   8.452  11.395 -0.2115  0.2007 -0.0891
25175W        W41649  15.445  14.502  12.218 -0.3055  0.2860 -0.0066
25176W        W41650  16.787  15.431  11.277  0.3553  0.0999  0.1608
25177W        W41651  13.355   4.245   0.041  0.3074  0.2949 -0.1817
25178W        W41652  14.223   6.132   6.291  0.0674  0.1233 -0.1176
25179W        W41653   5.310  15.364   4.882  0.0113 -0.2521 -0.0236
25180W        W41654   9.299  12.707  10.946 -0.0029  0.3112  0.0773
25181W        W41655   5.391   7.610   5.476  0.1500 -0.0314  0.1033
25182W        W41656  14.243   3.007   3.615  0.0042  0.1611 -0.1580
25183W        W41657   8.967   9.893  12.802 -0.4209  0.2941  0.2792
25184W        W41658   8.366  11.801  13.546 -0.0506  0.0082 -0.3818
25185W        W41659   9.106   3.942   1.691 -0.1437  0.0178 -0.1408
25186W        W41660   7.952  14.475   5.410 -0.1537  0.0474  0.3228
25187W        W41661  17.368   3.908   5.365 -0.0845 -0.0275  0.0462
25188W        W41662  12.035   0.417  15.188  0.0619  0.0670 -0.3944
25189W        W41663  14.870  10.022   0.253  0.0717  0.1138  0.1814
25190W        W41664   3.817   7.199   5.186 -0.0475 -0.0231  0.1140
25191W        W41665  16.046  17.491   3.651  0.0664 -0.0289 -0.0373
25192W        W41666  11.794   1.093  15.883 -0.1031  0.1064 -0.3746
25193W        W41667  14.809   7.473   1.689  0.2836  0.4859  0.0148
25194W        W41668  11.707   5.735   3.547  0.2838 -0.0177 -0.1283
25195W        W41669  10.265   3.696   0.055 -0.1195  0.1598  0.1631
25196W        W41670   4.742  12.772  12.836  0.1619  0.0475 -0.0689
25197W        W41671  13.893  13.897   3.533  0.0096  0.0790  0.2324
25198W        W41672   1.576  18.090   5.526  0.1089 -0.0159 -0.1318
25199W        W41673   1.894   6.746  14.967  0.1551 -0.0169 -0.2295
25200W        W41674   1.787  11.801  11.863  0.0683 -0.2121  0.0414
25201W        W41675   9.820  13.138   0.403  0.3720  0.0930 -0.2081
25202W        W41676  14.905   4.106  11.610  0.1670 -0.1152  0.0411
25203W        W41677   4.564   5.932   3.073 -0.4460  0.0365  0.3377
25204W        W41678   2.003  15.651   1.724 -0.0561  0.0665 -0.1784
25205W        W41679   7.031   3.741   4.163  0.2328  0.1653 -0.1707
25206W        W41680  12.698  16.572   5.149 -0.3716  0.1579  0.3965
25207W        W41681   8.942   1.980  13.464  0.2761 -0.4036 -0.1609
25208W        W41682   6.670  11.709   0.987  0.1183  0.1968  0.1130
25209W        W41683   2.200  15.467   2.171 -0.3123 -0.2999 -0.0759
25210W        W41684  10.344  15.073   0.947  0.3232 -0.0728 -0.1161
25211W        W41685   1.571  12.226   2.717 -0.1891  0.1186  0.1207
25212W        W41686  12.658   0.724  13.296  0.0878 -0.3971  0.1344
25213W        W41687  15.564  13.183   0.519  0.1132 -0.1801 -0.0686
25214W        W41688   2.285   4.154  12.568  0.1117  0.2126  0.0630
25215W        W41689   5.275   1.483   0.451  0.1526 -0.0914  0.1058
25216W        W41690  13.659   6.033  15.126  0.1711 -0.0898 -0.0405
25217W        W41691   6.565   8.973   3.294  0.1987  0.0226  0.0916
25218W        W41692  14.093   0.110   1.799  0.1516 -0.3071  0.1104
25219W        W41693  17.066  15.258  13.091 -0.0092 -0.1210  0.3749
25220W        W41694   2.179   0.386   2.982  0.0378  0.1523  0.0189
25221W        W41695   9.800  10.411   3.124 -0.0940  0.1447 -0.0445
25222W        W41696   3.974   4.877   0.600 -0.0908  0.2011  0.0328
25223W        W41697   9.317  14.388  15.688  0.3712 -0.0021 -0.3053
25224W        W41698   5.784  10.856  12.627  0.1829 -0.0156 -0.1102
25225W        W41699  10.167  13.417  12.230  0.2709  0.2766  0.0414
25226W        W41700  13.846   4.683  14.028 -0.2063 -0.0719  0.1116
25227W        W41701  14.620   8.761   0.688  0.2795  0.0514  0.0165
25228W        W41702   2.986  14.304  12.161 -0.1498 -0.0064  0.2754
25229W        W41703   5.976   3.231   5.580 -0.1263 -0.2600 -0.1428
25230W        W41704   9.995  15.202   5.919  0.0437 -0.2144 -0.3148
25231W        W41705   3.492   4.087  14.504  0.0457 -0.3705  0.1403
25232W        W41706  12.812   6.937   5.664  0.2388  0.1959 -0.1718
25233W        W41707   4.836   1.400   3.784 -0.0019  0.0063  0.0730
25234W        W41708  11.778   6.043  13.703  0.0136 -0.2110 -0.1140
25235W        W41709   3.649  11.559  14.446  0.0471  0.0582  0.2075
25236W        W41710  13.006  17.101  13.826  0.1049  0.2331 -0.0948
25237W        W41711   5.240   5.361   1.110 -0.2180 -0.1375  0.0334
25238W        W41712   3.860   0.920   0.647 -0.2853 -0.3099 -0.0840
25239W        W41713  13.711   3.471  15.606  0.1883 -0.4290 -0.2623
25240W        W41714   1.092   6.570   0.912  0.1439 -0.2808 -0.4534
25241W        W41715  14.685  11.743  14.456 -0.0439 -0.1816  0.2353
25242W        W41716  11.164  14.941  14.116 -0.1206  0.0872 -0.1852
25243W        W41717  12.119   6.606  12.205  0.1080 -0.0500  0.2017
25244W        W41718  16.275   8.272   0.131  0.2945 -0.2406 -0.3646
25245W        W41719  13.869   2.497   5.216  0.1313  0.1236  0.4844
25246W        W41720  13.602  13.111  11.941  0.2250  0.0905 -0.2117
25247W        W41721   5.296  15.495   4.011 -0.0202 -0.1151 -0.1097
25248W        W41722   9.150   4.528   0.182 -0.1588  0.0012  0.2458
25249W        W41723   4.903   0.494   3.276 -0.1025  0.1388 -0.0134
25250W        W41724   5.076  16.373  10.947  0.5976  0.0919 -0.2897
25251W        W41725  11.490  17.186  15.792  0.1962  0.1237  0.1252
25252W        W41726   4.194  11.374  13.699  0.1193  0.0854  0.0067
25253W        W41727   7.276   7.303   3.990 -0.3780  0.0037  0.0938
25254W        W41728   4.223   6.804   4.615  0.2224  0.2826  0.1815
25255W        W41729  11.304   4.793  14.726 -0.0111 -0.0619 -0.4060
25256W        W41730   1.038   4.256  15.615  0.0095  0.0590 -0.2100
25257W        W41731  10.646   4.096  13.918 -0.3529 -0.1975 -0.2481
25258W        W41732  14.863   4.735   2.534  0.0187 -0.1265  0.1406
25259W        W41733   5.364  14.070   5.801  0.3239 -0.1922 -0.2738
25260W        W41734  16.955  13.936   5.178  0.0593 -0.1706  0.0714
25261W        W41735  14.655   6.192   2.253  0.0494 -0.1508  0.3536
25262W        W41736   9.608   4.332  15.418 -0.1014  0.5368  0.0040
25263W        W41737   3.983   1.008  15.371 -0.0652 -0.0488  0.0405
25264W        W41738   8.081   6.276  14.661  0.1302 -0.1189  0.3831
25265W        W41739  12.991  16.884  16.120  0.3828 -0.0017  0.1623
25266W        W41740   4.174  12.634   2.577  0.1582  0.0263 -0.2640
25267W        W41741   9.993  10.414   1.850  0.2456  0.1094 -0.1067
25268W        W41742   7.563  16.106  15.488 -0.0428 -0.1923  0.1354
25269W        W41743  11.242  17.893  14.730  0.0792  0.2236  0.4501
25270W        W41744  13.297   2.462  15.159 -0.2201  0.1695  0.1464
25271W        W41745   9.426  13.702   1.785  0.0142  0.1383 -0.2408
25272W        W41746  14.843   4.214   0.445 -0.0367  0.0289  0.1792
25273W        W41747  11.378   7.900  13.871  0.3140 -0.3045 -0.0457
25274W        W41748  14.729   4.868  12.259  0.0994 -0.1034  0.3191
25275W        W41749  13.580  16.724   5.057  0.1464 -0.0066 -0.1718
25276W        W41750  15.033  12.933  14.120  0.1674 -0.0034  0.0596
25277W        W41751  13.671   1.633  14.396 -0.0700  0.1082  0.0111
25278W        W41752  13.946  14.872   5.568  0.0821  0.2328  0.1803
25279W        W41753  15.039  17.241  12.318  0.1895  0.0209 -0.1711
25280W        W41754  16.642   0.624  16.100  0.0769  0.1114 -0.0579
25281W        W41755   1.030   4.185   5.225  0.0808 -0.0706 -0.1091
25282W        W41756   2.198   5.147  15.544 -0.0803 -0.1514 -0.3747
25283W        W41757   4.568  10.029   2.686 -0.0128 -0.3155 -0.0458
25284W        W41758  14.566   4.011  12.622  0.0059  0.2014  0.0310
25285W        W41759  15.805   4.875  12.577  0.4004  0.0356 -0.2392
25286W        W41760  12.327   0.513  12.741  0.0572 -0.0164  0.0631
25287W        W41761   7.295   7.738  12.720  0.0531  0.1696 -0.0500
25288W        W41762   9.878   9.775   1.383 -0.1132  0.2701  0.4722
25289W        W41763   7.140   2.255   3.617  0.4547 -0.1217  0.0661
25290W        W41764   3.286   3.863  15.424 -0.1577  0.0886 -0.0207
25291W        W41765  13.999   9.376   5.478  0.0034  0.3839 -0.2032
25292W        W41766  10.672   1.587  10.118  0.1612 -0.0727 -0.0374
25293W        W41767   9.756   3.532   4.081 -0.1318 -0.0435 -0.0077
25294W        W41768   8.853  12.864  11.750  0.2230  0.1872 -0.0581
25295W        W41769  17.182   3.516   2.489 -0.0913 -0.3032 -0.0885
25296W        W41770  18.262   8.491   3.531  0.1338  0.0386  0.1301
25297W        W41771  10.175   2.674   0.508  0.0286 -0.1427  0.5036
25298W        W41772   6.879   6.842  11.756  0.1352 -0.1874 -0.0235
25299W        W41773  15.362   3.509   4.769  0.1086 -0.0918 -0.0443
25300W        W41774   7.373   5.972   5.012 -0.1617  0.1318  0.2455
25301W        W41775   6.709  11.658   0.460  0.0491 -0.1116 -0.0776
25302W        W41776  11.980   5.939  12.507  0.0080  0.2867  0.0164
25303W        W41777   4.783  12.815  11.424  0.2114 -0.4611  0.1964
25304W        W41778   0.436  12.239   4.520 -0.0274  0.2559  0.0830
25305W        W41779  13.697   2.678  13.590 -0.0159 -0.1377  0.1774
25306W        W41780   5.552   1.551  13.418 -0.1170  0.2255  0.3548
25307W        W41781  17.959   2.043  15.227  0.2835 -0.2633  0.0354
25308W        W41782   7.619  14.151   6.597 -0.0238  0.1661 -0.1836
25309W        W41783  16.645  11.543  11.740 -0.1876 -0.2741 -0.1687
25310W        W41784   7.619   2.446   4.729  0.0897 -0.1754 -0.0863
25311W        W41785   8.578   7.655   3.167  0.0628 -0.1651  0.4472
25312W        W41786   7.265   1.799   2.309 -0.1466  0.3345 -0.1919
25313W        W41787   1.700   0.506   2.779 -0.2896  0.2710 -0.1422
25314W        W41788  17.350  10.742  11.050  0.3190 -0.0368  0.0638
25315W        W41789   0.170  16.267   2.745  0.0221 -0.1895 -0.0585
25316W        W41790   5.803  14.614   0.230 -0.0705  0.2539  0.0237
25317W        W41791  11.232  10.059   1.510  0.1316 -0.2520  0.0332
25318W        W41792   7.178  12.270  13.613 -0.2815 -0.1406  0.1947
25319W        W41793   4.720   5.881   4.335 -0.0310  0.0663  0.0085
25320W        W41794   1.843   7.313  15.105  0.0170  0.3609  0.2289
25321W        W41795  17.470  15.228   3.510  0.1727  0.1165  0.0529
25322W        W41796  13.859  12.323  12.261  0.1345 -0.2105 -0.4651
25323W        W41797   6.879  13.200   4.965 -0.0194 -0.1867 -0.2106
25324W        W41798   3.484  17.918   5.080 -0.3190  0.0973  0.0466
25325W        W41799   7.097  11.318  14.694  0.2770  0.0516  0.1198
25326W        W41800   5.304   0.068   3.928  0.0355  0.1781  0.0358
25327W        W41801   0.749  10.294   1.153  0.1609 -0.2461  0.2419
25328W        W41802   3.640  13.967   1.166 -0.1565  0.1492 -0.0659
25329W        W41803  11.623  16.341  14.467  0.0924 -0.0267  0.3885
25330W        W41804   9.246  18.310  14.866 -0.0342  0.0242  0.0818
25331W        W41805   4.918   2.584  15.688 -0.3632 -0.4779  0.2315
25332W        W41806  16.200  15.090   5.997 -0.1016 -0.0576  0.1304
25333W        W41807   2.236   6.758   2.187  0.2265 -0.1013 -0.1468
25334W        W41808  17.690  18.007  10.219  0.0552 -0.0650  0.1705
25335W        W41809  12.921   5.193  11.744 -0.0151 -0.0946  0.2124
25336W        W41810  14.135  12.878  14.616 -0.0454  0.3102  0.0106
25337W        W41811   4.441   3.902   0.815 -0.3478  0.3925 -0.0709
25338W        W41812   5.768  10.439   4.572  0.3374 -0.2005  0.2804
25339W        W41813   6.856   4.219  14.198 -0.1650 -0.0687 -0.2718
25340W        W41814  13.429  15.378  16.307 -0.0580  0.0985  0.0886
25341W        W41815  14.712   1.170   1.566  0.2834  0.0104 -0.2561
25342W        W41816  15.902   2.688  14.194 -0.4154 -0.2051  0.2609
25343W        W41817   9.838   5.949   3.058  0.1711 -0.2158  0.0809
25344W        W41818   7.743   4.296   4.810  0.1496 -0.1108 -0.1657
25345W        W41819  10.688   7.842  11.921 -0.1193 -0.0653 -0.1448
25346W        W41820  16.922   5.206  14.487  0.1496  0.0841  0.1978
25347W        W41821  16.256   1.443   1.300 -0.0807  0.2794  0.0458
25348W        W41822  14.350  11.609   3.568 -0.0362 -0.0432  0.1239
25349W        W41823   4.152  12.851   3.933 -0.1055 -0.0378 -0.0676
25350W        W41824  10.506   7.301   0.885 -0.2809  0.0333 -0.0352
25351W        W41825  16.331  12.382  14.505 -0.1863 -0.0099 -0.0246
25352W        W41826   4.668  14.967  12.415  0.2557 -0.2926  0.1112
25353W        W41827  16.239   5.905   5.944  0.0205  0.1702  0.2280
25354W        W41828   5.791   0.777  13.635  0.3708 -0.0232  0.1046
25355W        W41829  17.706   5.029  13.145 -0.1042 -0.0076 -0.0933
25356W        W41830  13.206   3.606   2.695 -0.0132  0.1269  0.2146
25357W        W41831  11.458  15.197  11.681 -0.0803 -0.1767 -0.0720
25358W        W41832  14.981  12.046   1.926  0.1174 -0.0114 -0.1088
25359W        W41833  12.306  12.404  15.687  0.1943  0.0614 -0.0111
25360W        W41834  10.146   3.978   3.037  0.0650  0.0619  0.0443
25361W        W41835   6.091   4.609  16.011 -0.1843  0.0495  0.0310
25362W        W41836  16.937   0.259  13.029 -0.1151 -0.1550 -0.4306
25363W        W41837   1.783  11.477   4.288  0.2282  0.3466 -0.2060
25364W        W41838  16.964   5.241   0.234 -0.4731  0.0787  0.0163
25365W        W41839   1.870  14.322   1.774 -0.1027  0.0047  0.1783
25366W        W41840   5.138  15.218  16.138  0.1292  0.1392  0.1120
25367W        W41841  16.589   8.493   3.290 -0.1873  0.0730 -0.3493
25368W        W41842  12.416  17.490   1.558 -0.2045  0.1600 -0.1045
25369W        W41843   1.446   9.314  16.061  0.2471  0.0574 -0.3410
25370W        W41844  10.840  15.315   5.449 -0.1004 -0.1959  0.3691
25371W        W41845  14.497   5.320   0.888 -0.2939 -0.1416  0.1465
25372W        W41846   2.435   3.978   2.634 -0.0888  0.2748  0.2080
25373W        W41847  10.129  13.806   3.840 -0.3757  0.1584 -0.1620
25374W        W41848  13.547  13.370  12.955 -0.1575 -0.0486 -0.2154
25375W        W41849  11.354   3.172   3.337  0.2364 -0.0054  0.0739
25376W        W41850  11.228   5.966  10.663  0.1992  0.0665  0.0504
25377W        W41851  14.994   4.436   3.848 -0.2833 -0.2385  0.1224
25378W        W41852   4.039   0.024  14.816  0.2058  0.0273 -0.1702
25379W        W41853  12.338   9.623   3.797 -0.2999  0.1011  0.0733
25380W        W41854  10.143  14.111  14.065 -0.1840  0.1526  0.0741
25381W        W41855  11.095   9.583   0.378  0.0597  0.1214  0.0069
25382W        W41856  16.408  13.145  13.525 -0.2011  0.0934  0.4252
25383W        W41857   9.175   6.708  13.006 -0.0826 -0.0855 -0.0728
25384W        W41858   3.160  13.338  11.413 -0.2580  0.3108  0.2704
25385W        W41859  12.373   7.742  16.023 -0.1459 -0.1804  0.0063
25386W        W41860  11.508   5.024  15.218 -0.1521 -0.1716 -0.2092
25387W        W41861  15.116   8.811   2.214  0.1019  0.0090 -0.1074
25388W        W41862  15.536   5.150  14.564 -0.1252  0.0549  0.2244
25389W        W41863  15.845   9.335  11.881  0.0138  0.0766 -0.1048
25390W        W41864   0.564   9.258  12.907  0.0485 -0.1078  0.2299
25391W        W41865   0.534   3.046  14.776  0.1445  0.4367 -0.2245
25392W        W41866   0.174   2.089   0.244  0.1503 -0.3798  0.2839
25393W        W41867  17.509  12.013   3.230 -0.5103  0.1968  0.3505
25394W        W41868   0.598  17.820   1.349  0.1241 -0.0687  0.1279
25395W        W41869   4.236   9.382   5.452  0.1680  0.2351  0.1161
25396W        W41870   7.342   2.615   3.936  0.0906 -0.0164  0.3090
25397W        W41871   8.019  17.903   2.210 -0.2492  0.0341 -0.2766
25398W        W41872  12.277  16.111   3.470 -0.4268  0.3148  0.2183
25399W        W41873   4.182  11.395  14.699 -0.0134 -0.0880 -0.0508
25400W        W41874   1.538   1.438   1.212 -0.1532  0.0469 -0.0420
25401W        W41875   4.730  15.404   2.022  0.1415 -0.1450  0.0284
25402W        W41876  11.046   0.122   4.779  0.1850  0.3227 -0.1232
25403W        W41877   3.016  15.609  14.929 -0.0017  0.0368 -0.0909
25404W        W41878   6.614  14.117   3.250 -0.0341 -0.0821 -0.1574
25405W        W41879   3.375   0.819  12.634 -0.0370  0.0214 -0.1114
25406W        W41880   5.683   7.845  12.779  0.1647  0.0572  0.1038
25407W        W41881  17.382  15.648  10.934  0.4196 -0.0472 -0.0785
25408W        W41882  17.880   5.018  15.467  0.1844 -0.2058  0.0739
25409W        W41883  12.734   1.662  11.339  0.1835 -0.0060  0.1524
25410W        W41884   3.932   0.337   1.443  0.4115 -0.0644 -0.1035
25411W        W41885   1.411  13.117   2.377 -0.0387 -0.0632  0.2477
25412W        W41886  17.832   2.512  15.947  0.0347 -0.0076  0.3436
25413W        W41887   9.845   5.594  15.751 -0.0474  0.2435  0.1144
25414W        W41888   1.222  11.232  12.533 -0.2759  0.3466 -0.3009
25415W        W41889  15.542   1.731  13.081 -0.0358  0.0361  0.0932
25416W        W41890   9.692   0.347   1.970  0.2373  0.1666 -0.1785
25417W        W41891   0.897  18.227  14.289 -0.1755  0.1053 -0.0288
25418W        W41892   0.724  11.753   2.203 -0.5013 -0.1398  0.0969
25419W        W41893   2.693   7.066   0.067  0.2177 -0.1078 -0.2150
25420W        W41894   0.170   4.463  11.493 -0.1567  0.1261 -0.2776
25421W        W41895  16.342  12.040  13.828  0.0015 -0.0043 -0.0234
25422W        W41896   7.674  15.754  15.091  0.2039 -0.0656 -0.2098
25423W        W41897   7.491   1.127  13.814  0.1474  0.0847 -0.2299
25424W        W41898  10.824   7.122  14.275  0.2289 -0.2704  0.1932
25425W        W41899  13.908  10.973   2.860  0.2617  0.0932  0.2876
25426W        W41900   3.043  15.294   2.318  0.0642  0.0331  0.0412
25427W        W41901   9.899   1.035  14.430  0.0432  0.0813 -0.0356
25428W        W41902  12.922   3.389  14.384 -0.0742 -0.2555  0.3215
25429W        W41903  17.526  16.684   4.813  0.0470  0.0537 -0.0046
25430W        W41904   3.853  12.700  15.973  0.1527  0.0951 -0.0752
25431W        W41905   7.306   9.792   0.107 -0.1178  0.0335  0.2288
25432W        W41906  10.874  15.716   2.063 -0.0070 -0.0409 -0.1452
25433W        W41907   9.934  15.831  12.736  0.1248  0.1885  0.0744
25434W        W41908  14.114  16.887  13.592  0.0161  0.2348 -0.1234
25435W        W41909  18.161  13.046   5.524 -0.2423  0.0067  0.0136
25436W        W41910  17.046   3.761   3.104  0.1609 -0.1128 -0.2126
25437W        W41911   5.172   0.402  14.441  0.0279 -0.1876 -0.0819
25438W        W41912  10.792  16.666  13.981 -0.0221 -0.0094  0.1778
25439W        W41913   2.323   2.988   0.874  0.0112 -0.0554 -0.2280
25440W        W41914   1.660  14.677   0.233 -0.0311 -0.0247  0.1982
25441W        W41915  15.980  11.011   0.780  0.0860 -0.2410  0.1796
25442W        W41916   1.954  18.225  13.580 -0.1386 -0.0008 -0.1199
25443W        W41917   6.850   5.029   0.152 -0.0517 -0.1203 -0.1095
25444W        W41918   7.045  18.265  11.022 -0.0328 -0.0931 -0.0706
25445W        W41919  11.179   0.545  14.849  0.1058  0.0027  0.1167
25446W        W41920   5.984   1.417   4.701 -0.2513  0.1336  0.2513
25447W        W41921   4.514  11.288  16.043 -0.1585 -0.1084  0.4394
25448W        W41922  14.770  11.217   0.800  0.2936 -0.2569  0.0132
25449W        W41923   2.414  11.203   1.700 -0.1256  0.0066  0.0976
25450W        W41924   0.155   5.575   3.076 -0.0351  0.3626  0.2643
25451W        W41925  16.714   9.470   3.551  0.0673 -0.1072  0.3197
25452W        W41926  10.317  13.022   5.216 -0.2645 -0.2629 -0.0445
25453W        W41927   2.878   7.985  13.180  0.2072 -0.0481  0.4098
25454W        W41928  18.207   7.836  15.505  0.0305 -0.0263 -0.0968
25455W        W41929   6.802  15.629  13.548  0.4506 -0.0678  0.0031
25456W        W41930  15.005  15.406   0.079  0.2564  0.1856 -0.0046
25457W        W41931   2.658  11.256  14.870  0.0981  0.0094  0.0302
25458W        W41932  10.614  16.710   3.783 -0.0163  0.3592 -0.1780
25459W        W41933  14.941  16.138   4.697  0.1124 -0.2775 -0.2883
25460W        W41934   5.450   6.963  14.377  0.2721 -0.0206 -0.2705
25461W        W41935  15.276  17.856  13.103 -0.0161 -0.0139 -0.3358
25462W        W41936   2.923   1.159  15.610  0.2755 -0.0900  0.0391
25463W        W41937  13.666  14.450   3.428 -0.3202 -0.1852  0.1017
25464W        W41938   3.619  15.386  13.271 -0.0673  0.1656 -0.0135
25465W        W41939   0.014   9.026   5.778  0.0287  0.0652  0.1736
25466W        W41940   4.636  14.307  14.582 -0.3021 -0.1454  0.2171
25467W        W41941   0.289  11.392  11.942 -0.4211 -0.2156  0.1692
25468W        W41942  11.730  10.282   3.844  0.2964 -0.0321 -0.0399
25469W        W41943   4.012  13.130   3.150 -0.0909  0.5030 -0.2132
25470W        W41944   5.708   4.102   2.200  0.0970 -0.0158  0.1243
25471W        W41945   2.760   0.800   1.170 -0.3506 -0.0608 -0.0856
25472W        W41946  15.201  18.059  15.138 -0.2082  0.0257  0.0635
25473W        W41947  12.214  11.901  15.536  0.1064  0.2253 -0.0154
25474W        W41948   6.948  12.271   4.679  0.0763 -0.2215  0.0234
25475W        W41949   6.091   5.134  14.258 -0.0454  0.1803  0.1705
25476W        W41950   7.509  12.972   3.768  0.0450 -0.0896  0.0178
25477W        W41951   1.964  18.166   5.216 -0.4191 -0.0429 -0.3535
25478W        W41952  16.938  16.427   0.965  0.1334  0.0996  0.1868
25479W        W41953   7.686   2.767  11.381 -0.2364  0.2493  0.0063
25480W        W41954  15.099   1.848   3.274  0.1563  0.2488  0.1739
25481W        W41955  10.906  14.393   3.574 -0.3041 -0.2414 -0.0422
25482W        W41956   5.717  17.942  14.106  0.0920  0.0241  0.1979
25483W        W41957   2.591   8.549   3.259  0.0803 -0.1424  0.1587
25484W        W41958   8.575  12.919  16.298  0.0080  0.4573  0.3286
25485W        W41959  13.460   0.151  11.627 -0.0777  0.1417  0.2108
25486W        W41960  11.458  10.921  12.667  0.0899 -0.0908 -0.0443
25487W        W41961   3.154   1.567  15.399  0.2050 -0.0770 -0.1030
25488W        W41962   7.589   3.140   3.232 -0.3147  0.0499  0.3328
25489W        W41963  16.381   0.453  12.348  0.2109  0.1516  0.1488
25490W        W41964  12.612  12.927   1.310  0.2286  0.4154  0.0102
25491W        W41965  16.543   6.230  15.228  0.0344 -0.0305 -0.1216
25492W        W41966  13.086   6.245   5.108 -0.1370  0.0095  0.3197
25493W        W41967   5.095  13.932   5.291 -0.0624  0.2720  0.0633
25494W        W41968  14.751   7.109   1.356 -0.2367 -0.2046 -0.0089
25495W        W41969   9.611  15.917   1.557  0.0680 -0.0186  0.0753
25496W        W41970  13.480  16.408  16.313 -0.2987 -0.2968  0.0419
25497W        W41971   1.140   4.858   2.419 -0.1663 -0.2041  0.2437
25498W        W41972   0.794   0.300  12.634 -0.2937 -0.1220 -0.1344
25499W        W41973  12.722   7.352  12.304 -0.1131  0.1523 -0.0384
25500W        W41974   4.223  15.051   1.334 -0.4094 -0.2651  0.1413
25501W        W41975   2.028  16.655  12.407 -0.1323  0.0843  0.1928
25502W        W41976  11.907   6.000  14.231  0.0190 -0.0126 -0.4462
25503W        W41977  16.276  12.420   4.242  0.0022 -0.1375 -0.3314
25504W        W41978   0.526  11.406   0.533  0.0864 -0.1385  0.0524
25505W        W41979  16.550  18.099  13.165  0.2430  0.1136 -0.0251
25506W        W41980   5.008   9.267  14.810 -0.3282 -0.0379  0.1443
25507W        W41981   0.349  13.311  11.454  0.2922  0.1815 -0.0263
25508W        W41982   8.952   6.071   2.043 -0.0399  0.3334 -0.1139
25509W        W41983   0.971  12.966  15.269 -0.0042  0.0910 -0.2105
25510W        W41984  11.265   1.938   4.008 -0.4018  0.1763  0.2594
25511W        W41985  11.315  12.323  14.175  0.0626  0.0240  0.2315
25512W        W41986   3.823   5.853   0.250  0.0753  0.0296 -0.0020
25513W        W41987   8.747  13.942   0.894  0.3547  0.0971  0.2651
25514W        W41988  12.899  12.324   0.264 -0.1391 -0.2737  0.1111
25515W        W41989   4.610  10.427   4.464 -0.1636 -0.0516 -0.1954
25516W        W41990   2.306   7.215   0.920  0.1140 -0.0435  0.0666
25517W        W41991   3.693  15.391  11.565  0.0433  0.6098 -0.0913
25518W        W41992  11.479   3.498   2.948  0.1307  0.1277  0.0082
25519W        W41993   7.991   5.448   4.052  0.0429  0.0328 -0.1384
25520W        W41994   0.636   8.583   0.378  0.1099 -0.0684  0.1926
25521W        W41995   7.242  10.999   1.643  0.0158  0.0492  0.3662
25522W        W41996  11.289   0.716  12.710 -0.1541  0.2289  0.0821
25523W        W41997   7.672  17.975   5.031 -0.3512 -0.0732  0.2307
25524W        W41998   2.267  17.742  11.135 -0.2465 -0.2280  0.0349
25525W        W41999   3.623   4.426  12.167  0.0764  0.1070  0.4996
25526W        W42000   8.124  17.534   1.863 -0.1791 -0.1437 -0.0591
25527W        W42001  11.393   7.498  11.988  0.0775  0.1841  0.1608
25528W        W42002   8.022   2.745   1.021  0.1481 -0.0065  0.1689
25529W        W42003  13.670  16.950   1.713 -0.1880  0.0502  0.2689
25530W        W42004   4.527   9.629  12.088  0.0027  0.1137 -0.2547
25531W        W42005   1.532  16.659  10.884  0.0235  0.1173 -0.0599
25532W        W42006  17.266   8.833  15.440 -0.1051 -0.2735 -0.2165
25533W        W42007  11.763   5.428  12.680 -0.1934  0.0040 -0.1275
25534W        W42008   9.394   7.271  15.996 -0.1620  0.1420  0.0079
25535W        W42009   4.299  17.400   1.087  0.0055  0.0971 -0.1007
25536W        W42010   4.301  15.413   4.852  0.1997  0.0424 -0.1324
25537W        W42011  12.571   9.400  12.811  0.1228 -0.3416  0.1085
25538W        W42012   0.901   1.471  11.006 -0.1329  0.4375 -0.0166
25539W        W42013   2.888  13.301  13.424  0.0159  0.2031 -0.1697
25540W        W42014  15.558  14.044  15.092  0.3217 -0.3266  0.2809
25541W        W42015   4.362   2.354  13.067  0.0745 -0.2704 -0.2659
25542W        W42016   7.256   3.090   2.757 -0.2278  0.0847 -0.0108
25543W        W42017   1.078  17.048  13.703  0.0690 -0.4637 -0.0599
25544W        W42018  14.710   4.918  13.504 -0.0609 -0.1137  0.2748
25545W        W42019  10.754  11.196   3.911  0.0043  0.1435  0.1015
25546W        W42020  14.404  13.080   2.323  0.0743 -0.1271  0.0390
25547W        W42021   0.727   9.541   4.425 -0.0809  0.0682  0.0519
25548W        W42022  13.086   3.075  10.771 -0.0534 -0.2410  0.1790
25549W        W42023  10.470  10.873   4.244  0.0476 -0.0277  0.1897
25550W        W42024  16.422   8.620  12.874  0.2651 -0.0497 -0.2140
25551W        W42025  15.909   0.474   5.615  0.1115 -0.1713 -0.0975
25552W        W42026   5.948  10.540   5.039  0.4301  0.0224 -0.0804
25553W        W42027  13.886  11.334   0.321  0.1048  0.1172  0.0030
25554W        W42028   9.534   7.210  11.658 -0.0902  0.1320  0.1883
25555W        W42029   1.420  10.268  15.119 -0.3433 -0.2012  0.1027
25556W        W42030  14.881  10.232  12.271 -0.2220  0.3185 -0.1849
25557W        W42031   1.179   3.492   2.940  0.2419 -0.2308  0.3698
25558W        W42032  11.872  15.221  12.553 -0.0216 -0.1517  0.0360
25559W        W42033  10.334   9.393   3.126  0.1167  0.2198 -0.0461
25560W        W42034  16.802   4.785   1.086 -0.0624  0.0585 -0.0591
25561W        W42035   6.059   7.807  13.174  0.0228 -0.0588  0.1533
25562W        W42036  13.115  11.743  12.226  0.3482  0.0873  0.2797
25563W        W42037   8.762   8.401  14.326 -0.1263 -0.3585 -0.1460
25564W        W42038  10.706  17.468   1.812  0.2176 -0.0090  0.0999
25565W        W42039   3.174   1.395  16.187 -0.0947 -0.1900 -0.2380
25566W        W42040  12.207   5.706  13.962  0.3090 -0.3822  0.1801
25567W        W42041   4.445  17.530   2.247 -0.2646  0.2400 -0.0604
25568W        W42042   6.834   3.226  11.826 -0.0838 -0.0918  0.2048
25569W        W42043  10.200   1.501   3.579  0.2763 -0.2431 -0.2359
25570W        W42044  12.095   4.983   1.644  0.0641 -0.1020  0.3354
25571W        W42045   7.638  11.041   2.012 -0.1037  0.0402 -0.0171
25572W        W42046  12.972  11.459   5.651  0.0195 -0.0205 -0.0790
25573W        W42047  14.979   3.119   3.372  0.1754 -0.1685 -0.0281
25574W        W42048  15.595   2.114   0.358  0.1958  0.2694  0.1844
25575W        W42049  17.668  17.220   3.627  0.0054  0.2466 -0.0207
25576W        W42050   0.164   9.171  15.158  0.1610 -0.1746  0.0307
25577W        W42051  16.169   6.170  12.905 -0.4417  0.1305 -0.0261
25578W        W42052  10.740  12.793   5.028 -0.1212 -0.1793  0.3974
25579W        W42053  11.592  11.317  13.058 -0.0188  0.2055  0.2533
25580W        W42054   1.060   0.684   5.404 -0.0384 -0.0609 -0.0653
25581W        W42055  14.277  15.835   2.974  0.1988 -0.0784  0.4217
25582W        W42056   1.898   1.626  14.926 -0.0446 -0.1513  0.0574
25583W        W42057   7.887   2.285   2.742 -0.1911  0.0022 -0.0366
25584W        W42058   0.922   8.450  15.221  0.0518  0.1772  0.0567
25585W        W42059  16.495   2.458   1.655 -0.0708 -0.1072  0.0853
25586W        W42060   4.255  12.142  12.282 -0.0775 -0.1399 -0.1290
25587W        W42061   4.222   8.454  15.067  0.0018 -0.3801 -0.2488
25588W        W42062  15.499   4.843   0.190  0.2582  0.3689  0.1940
25589W        W42063  15.999  15.936   1.663  0.0123  0.1639  0.4455
25590W        W42064  12.026  12.871  11.412 -0.0935 -0.0584 -0.0273
25591W        W42065  15.004   1.921  12.049 -0.2642 -0.2090 -0.0762
25592W        W42066  12.996  14.023   0.498  0.0712  0.3938  0.0788
25593W        W42067   5.663  13.041  13.429  0.0792  0.1336 -0.1230
25594W        W42068  11.276  11.404   3.308  0.0190  0.0171 -0.0573
25595W        W42069   9.747   9.957   1.875 -0.0581  0.0845 -0.3145
25596W        W42070  16.628  14.019  13.133  0.0184 -0.3724  0.0174
25597W        W42071  13.680  13.657   1.100  0.0974 -0.2586 -0.2686
25598W        W42072   8.024   7.544  10.706 -0.2101  0.0776 -0.1958
25599W        W42073   4.160  10.836   5.122  0.3770  0.1263  0.4667
25600W        W42074   0.520   1.825   0.513  0.2511  0.1663 -0.0254
25601W        W42075   1.397  14.438   0.638  0.3466  0.3319 -0.3144
25602W        W42076  12.743  13.605  14.963  0.0503  0.1643  0.2433
25603W        W42077   5.115   4.498   3.677  0.0828 -0.0657 -0.1183
25604W        W42078   3.194  10.071  10.955  0.1840  0.1098  0.0803
25605W        W42079   6.821  17.053   2.338  0.3803  0.1925  0.1940
25606W        W42080   5.260  13.770  11.378 -0.3236  0.1918 -0.0158
25607W        W42081  10.130   8.281  15.260  0.1146  0.0911  0.1383
25608W        W42082   9.844  15.300   2.681  0.0403 -0.0989  0.0884
25609W        W42083   5.034   8.225   1.676 -0.0112 -0.1578  0.2112
25610W        W42084   6.212  17.387  14.676  0.0183  0.1837  0.2876
25611W        W42085  11.672   0.698  13.671  0.0172  0.1532 -0.0374
25612W        W42086   6.611   7.438   1.425 -0.2708  0.0849  0.1523
25613W        W42087  17.557   1.883   5.762  0.1284  0.1599 -0.1490
25614W        W42088   6.154  11.970   4.077  0.3496 -0.0043 -0.1085
25615W        W42089   6.081   5.059  15.902  0.0062 -0.0208 -0.1265
25616W        W42090   9.098  10.432   4.942 -0.0017  0.2975 -0.3209
25617W        W42091   9.756   9.225  11.732 -0.0114 -0.1672  0.0126
25618W        W42092  13.495   1.119  13.891  0.0194 -0.0112 -0.2516
25619W        W42093   7.556   5.314   4.304  0.2714 -0.0108  0.1470
25620W        W42094  14.692   8.114  16.285 -0.2202 -0.0014  0.2430
25621W        W42095   6.288   4.060  11.492  0.1931  0.1543 -0.0523
25622W        W42096   1.961  14.902   5.027 -0.0202  0.1158  0.1170
25623W        W42097  15.163  16.409   0.288  0.1934 -0.0485  0.1749
25624W        W42098   0.911   4.495   2.606  0.3540 -0.0823  0.3375
25625W        W42099  15.292  15.971  14.915  0.1363  0.0021  0.0003
25626W        W42100  11.567   2.049   0.732  0.1770 -0.2135  0.1676
25627W        W42101  15.520  12.821   0.813  0.5399 -0.1561 -0.0220
25628W        W42102  12.329  10.254  12.280  0.2681  0.1306 -0.2527
25629W        W42103   2.002  16.279   1.242 -0.1031 -0.2957 -0.1272
25630W        W42104  10.017  16.015  15.264 -0.3177  0.2007 -0.0653
25631W        W42105   0.144   4.709   0.797  0.1311 -0.0837 -0.0564
25632W        W42106  11.370   7.842   3.799  0.2239  0.1221 -0.0841
25633W        W42107  16.732   0.890   1.698  0.0635 -0.0116  0.1114
25634W        W42108   5.930   6.985  13.709 -0.0341 -0.0094  0.1519
25635W        W42109  18.271   2.087   5.329 -0.2312 -0.0055 -0.1760
25636W        W42110  18.264   2.531  14.325 -0.0771  0.0802 -0.0996
25637W        W42111   7.824  17.635   0.448 -0.1943 -0.2034 -0.1586
25638W        W42112   2.636   9.872   2.699  0.1575  0.0825  0.1609
25639W        W42113  16.117  14.000   5.520  0.2297 -0.1160 -0.2383
25640W        W42114  14.129  18.170  15.862  0.2740 -0.0089  0.1016
25641W        W42115  16.429   1.422  11.842 -0.1118 -0.0268 -0.0578
25642W        W42116  12.139   7.564  11.415  0.1176  0.0244 -0.0772
25643W        W42117   2.326   7.382  12.575  0.0127  0.2397  0.1179
25644W        W42118   6.421  12.799   0.254  0.0647  0.0697  0.1778
25645W        W42119   5.354   5.205   0.623 -0.2106 -0.1810  0.1230
25646W        W42120  10.318   4.816   5.967 -0.0729 -0.1768 -0.1991
25647W        W42121   7.287   6.121   0.471  0.2311 -0.1694 -0.1543
25648W        W42122  10.444   6.926   4.448  0.1445  0.4233 -0.0191
25649W        W42123   8.635  15.469   4.969  0.2785  0.1851  0.0620
25650W        W42124  10.314   0.647   0.383 -0.0565 -0.2358 -0.0264
25651W        W42125   0.855  12.377   5.276 -0.1771 -0.2890 -0.0529
25652W        W42126   3.427  16.476  11.821  0.1832 -0.1255 -0.2092
25653W        W42127   1.830  16.061  14.855 -0.0716 -0.1848 -0.0869
25654W        W42128   0.741   1.090   4.654 -0.0314  0.2265  0.0454
25655W        W42129   8.465   5.686  13.626  0.1335 -0.2333 -0.1551
25656W        W42130   3.490   4.428  11.363 -0.0533  0.2530 -0.0976
25657W        W42131   0.294   8.702   1.695 -0.2086  0.3949 -0.0666
25658W        W42132  15.648   7.495  12.287  0.0728 -0.1889 -0.1326
25659W        W42133  12.496  14.222  13.153  0.1079  0.3639  0.2858
25660W        W42134   5.027   3.644  13.683  0.3863 -0.0071 -0.0525
25661W        W42135  15.485   8.330   1.063  0.2690  0.0913 -0.0068
25662W        W42136   8.360  10.150   3.245 -0.3364 -0.0291 -0.1849
25663W        W42137   1.953  12.806   3.320  0.0846  0.1380 -0.2130
25664W        W42138   3.666   9.997  15.921 -0.0189  0.0736  0.1411
25665W        W42139  12.477  13.991  12.045 -0.3274 -0.1295 -0.0586
25666W        W42140   8.306  14.674   4.810  0.0875 -0.0882 -0.1844
25667W        W42141   6.285  12.787   5.186  0.2601  0.1748  0.0496
25668W        W42142   3.983  10.078  12.907 -0.0812  0.1274  0.0102
25669W        W42143  18.318   0.822  10.101  0.1633 -0.2105 -0.1647
25670W        W42144   7.907   8.229  13.721 -0.2812  0.1727 -0.1779
25671W        W42145  12.919   8.117  16.046 -0.1548  0.0605  0.0653
25672W        W42146   0.767   4.643   2.045  0.1400  0.1598 -0.0638
25673W        W42147  16.881  12.586   2.181  0.1113  0.0686 -0.0165
25674W        W42148  10.330   7.049  15.581 -0.2353 -0.0762 -0.0222
25675W        W42149   3.334   3.931   1.681  0.0126  0.2946  0.1805
25676W        W42150   8.458   4.705  15.346 -0.1766 -0.1797 -0.0962
25677W        W42151   0.831   7.578   5.203 -0.1531 -0.0080  0.1468
25678W        W42152  16.655   9.230  14.972  0.0355 -0.1829 -0.1737
25679W        W42153   0.604  15.566   0.192 -0.3557 -0.0921 -0.3147
25680W        W42154   3.711   8.520  12.432  0.1955  0.2125 -0.0162
25681W        W42155  10.749  14.477  16.165  0.1666 -0.4399 -0.0297
25682W        W42156  15.478   3.697   2.795  0.0356 -0.0730  0.0261
25683W        W42157  16.184   5.060  15.207 -0.2047  0.2029 -0.0448
25684W        W42158  15.411  12.170   4.017  0.2002  0.0329 -0.1919
25685W        W42159   5.243   4.935   0.023 -0.1189  0.0393 -0.1812
25686W        W42160   9.270  12.165   4.038 -0.2870  0.2227 -0.0056
25687W        W42161  16.349  15.502   1.447 -0.0794  0.4508  0.2695
25688W        W42162   4.770   1.824  16.188  0.0464  0.1351 -0.0585
25689W        W42163  10.507   7.782   0.711 -0.1045 -0.1913  0.1868
25690W        W42164   0.852   5.852  10.886  0.2844 -0.0092  0.0680
25691W        W42165   7.293  16.501   4.413 -0.2274  0.2158 -0.0160
25692W        W42166  17.190  12.518   1.525 -0.2007  0.3481  0.0010
25693W        W42167  10.167  16.597   3.911  0.4570 -0.3111 -0.0040
25694W        W42168  13.539   6.470   4.963 -0.0144 -0.0890 -0.3749
25695W        W42169  11.070   8.627   4.723  0.0880  0.3391  0.1535
25696W        W42170   3.280  12.448   2.144  0.0030  0.1933  0.0192
25697W        W42171  14.727   1.823  13.167 -0.0443 -0.2220 -0.0784
25698W        W42172   4.356  17.638  14.309  0.1177 -0.2681 -0.2014
25699W        W42173   5.535   7.224  15.075  0.0757  0.1093  0.3009
25700W        W42174   4.791  15.513  14.453 -0.3247  0.1876 -0.2499
25701W        W42175  11.360   0.838   1.849 -0.0639  0.1330 -0.1668
25702W        W42176  14.214   0.948  16.247  0.1127  0.0974 -0.2945
25703W        W42177  10.372   5.768   3.985  0.3535  0.2604  0.0225
25704W        W42178  10.384   2.834   4.219  0.2549 -0.0571 -0.0599
25705W        W42179  10.087  17.386  14.725  0.0052 -0.0811  0.0242
25706W        W42180  13.417   8.517   5.021 -0.0428 -0.2176 -0.0204
25707W        W42181   5.545  18.142   0.401  0.2152  0.1483  0.0322
25708W        W42182  14.984   0.849   6.092  0.1640  0.3096 -0.3563
25709W        W42183   6.024   7.794   5.920  0.1424 -0.0434  0.0294
25710W        W42184   0.389  14.035  13.245 -0.0425 -0.1659  0.0792
25711W        W42185   8.900  11.626   4.183  0.0563  0.3443 -0.3367
25712W        W42186  13.868   6.867   2.427  0.0084  0.2219  0.2662
25713W        W42187   2.484  18.175  15.226  0.3817  0.1490  0.0371
25714W        W42188  15.876   5.843  15.697  0.1636 -0.0945 -0.1949
25715W        W42189   8.645   9.241   4.145 -0.1952  0.3636  0.2691
25716W        W42190   2.274   5.018   4.752  0.1185 -0.0451 -0.0552
25717W        W42191   2.215   1.480   4.546 -0.1670 -0.0614 -0.1401
25718W        W42192  12.981   7.192   5.215  0.0523 -0.2993 -0.1174
25719W        W42193  11.106  11.738   5.067 -0.0257 -0.0123 -0.0136
25720W        W42194   8.078  12.239  11.932  0.0077  0.0369  0.4450
25721W        W42195   6.998  12.989  13.146 -0.0360  0.2348 -0.1843
25722W        W42196   9.717   8.046  14.224 -0.1605 -0.1006 -0.1134
25723W        W42197   5.608  14.324  12.867 -0.1119 -0.0885 -0.2318
25724W        W42198   5.649  10.523  15.354 -0.1520 -0.2129 -0.4506
25725W        W42199   1.685  14.592  13.980  0.5869 -0.3902  0.1562
25726W        W42200   0.840   1.150   4.146  0.0520  0.0774 -0.3007
25727W        W42201  17.441  12.080   1.344  0.3472  0.2513 -0.0788
25728W        W42202  16.122   4.741   2.813 -0.0628 -0.0348  0.1638
25729W        W42203  12.561   7.538   5.168  0.2039  0.0663 -0.0820
25730W        W42204   1.622  13.130   1.939  0.0943  0.1209  0.4510
25731W        W42205  14.551   5.744  11.957  0.0770 -0.1335  0.0483
25732W        W42206   9.169  13.740   0.035  0.1283 -0.2640  0.0253
25733W        W42207   6.226   7.923   5.113  0.0803 -0.1124  0.2089
25734W        W42208   7.944  18.227  16.144  0.0589 -0.0334 -0.2694
25735W        W42209  13.351   8.100  14.260 -0.1793  0.1798  0.0628
25736W        W42210   3.082  15.478   1.827 -0.0835  0.1426  0.0315
25737W        W42211   6.268   3.487   1.754 -0.1206  0.0635  0.0885
25738W        W42212   0.508  15.865  13.303 -0.1475 -0.1104  0.1271
25739W        W42213   1.589   5.763  12.561  0.0156  0.1662  0.2238
25740W        W42214  12.331  17.109   5.869  0.1599 -0.1080  0.0762
25741W        W42215  12.808   6.335   0.698  0.1055 -0.0193  0.2079
25742W        W42216  10.668   5.074   3.957 -0.4515  0.0569 -0.1719
25743W        W42217  16.746   6.988   3.263 -0.3414 -0.1112  0.4262
25744W        W42218  13.203   9.877   1.112  0.0107  0.0003  0.1687
25745W        W42219   0.784   1.390  12.050  0.2036 -0.0296  0.1600
25746W        W42220   3.715  13.253  15.454  0.2092  0.2154  0.0254
25747W        W42221   4.653   4.909  12.330  0.1943 -0.3333  0.0372
25748W        W42222   0.841  17.744   3.298  0.0736  0.0402  0.0209
25749W        W42223  12.407  13.836   2.585  0.1126 -0.1563  0.1498
25750W        W42224   6.266  16.552  14.960  0.2395 -0.0118 -0.0678
25751W        W42225   0.497   3.753   2.213 -0.1755  0.0174  0.2695
25752W        W42226  13.612  11.426   5.335 -0.0451 -0.2304 -0.0501
25753W        W42227  10.119   3.533  13.297  0.1187  0.0131  0.0641
25754W        W42228   0.099  11.086   1.982  0.3122 -0.1086  0.4088
25755W        W42229   6.106   7.393   3.107 -0.1397  0.0643 -0.0210
25756W        W42230  15.040   9.197  13.609  0.1701  0.0743 -0.4553
25757W        W42231  11.981   4.421  11.661  0.3077 -0.1518  0.1896
25758W        W42232   2.839   6.272  13.971  0.1409 -0.1637  0.1692
25759W        W42233  13.484   4.440  11.165 -0.2199  0.1253 -0.1307
25760W        W42234   1.860   3.902  11.306  0.1535 -0.3200 -0.1069
25761W        W42235  15.698  17.337  15.285 -0.1035  0.1435 -0.0928
25762W        W42236  11.272  10.688   6.051 -0.1426 -0.0367 -0.2167
25763W        W42237   6.227   6.514  14.941 -0.0367 -0.0058  0.1671
25764W        W42238   2.428   8.033  14.959 -0.0230  0.0118  0.2210
25765W        W42239  13.711   9.457   3.708  0.0325  0.0199 -0.0280
25766W        W42240   1.067  14.990   2.389 -0.1768 -0.0638 -0.0372
25767W        W42241  14.863  11.522  11.773 -0.2224 -0.0043  0.3417
25768W        W42242  14.751   5.697   4.190 -0.0281  0.0855  0.0909
25769W        W42243  16.823  15.880   2.118  0.1127  0.4484 -0.3167
25770W        W42244   9.578  11.430   3.050 -0.0821  0.0662  0.1909
25771W        W42245  13.101   3.173   4.298 -0.2150 -0.1894  0.2434
25772W        W42246  16.375   1.779   3.727  0.2208 -0.2212  0.2367
25773W        W42247   0.664  18.180   1.667 -0.2651 -0.3141 -0.1385
25774W        W42248  17.676   7.948  14.880  0.2722 -0.0022 -0.7083
25775W        W42249   2.293   3.960  11.508  0.1356 -0.0002 -0.0564
25776W        W42250  17.545   5.783   0.187 -0.0694 -0.0148 -0.0084
25777W        W42251   4.467  13.037   3.419 -0.0662  0.2344  0.1514
25778W        W42252   3.129   8.632   5.071 -0.1088  0.0878 -0.2318
25779W        W42253   6.428  11.981  12.200 -0.0829 -0.1079  0.0858
25780W        W42254   8.521  13.466   0.713  0.2332  0.0259 -0.0173
25781W        W42255   0.157  17.804  14.784 -0.2232 -0.0345 -0.1559
25782W        W42256   3.928  10.789  12.050  0.1943  0.1053 -0.0476
25783W        W42257  17.823  17.432   5.841  0.2609  0.3031 -0.2012
25784W        W42258  11.010   3.236   4.220 -0.0545 -0.0697  0.2094
25785W        W42259   6.248   3.729   0.567  0.2353  0.0160 -0.0786
25786W        W42260  12.441  10.645   3.417 -0.1917 -0.2079  0.0541
25787W        W42261  14.586   4.819   3.998 -0.0188 -0.2598  0.0324
25788W        W42262   4.762   1.359  15.997 -0.1714  0.3513  0.1667
25789W        W42263   4.004  10.306   3.279  0.1719  0.2344 -0.2342
25790W        W42264   5.148   9.870   5.307 -0.1890 -0.0906  0.2678
25791W        W42265   7.457   4.847   6.036 -0.4637  0.1585  0.1538
25792W        W42266  14.861  17.790  14.775  0.0424  0.1935  0.0083
25793W        W42267  17.452  16.896   2.248  0.1696  0.0975 -0.0094
25794W        W42268  16.116   2.425   4.078  0.1720  0.0461  0.2273
25795W        W42269  16.647   2.659  15.354  0.0942  0.1540  0.1511
25796W        W42270   0.417   2.790   2.654 -0.0159  0.0893  0.0650
25797W        W42271   4.690   6.708   4.709  0.2405 -0.1782  0.3018
25798W        W42272   1.482  18.326   5.073  0.1345 -0.2665 -0.1783
25799W        W42273   2.456   7.841   3.885 -0.0536 -0.0297  0.1422
25800W        W42274  11.584   3.897   1.292  0.4674 -0.0436 -0.1205
25801W        W42275  12.780  17.738   3.127 -0.1924  0.0892 -0.0116
25802W        W42276   2.713   2.459   4.097  0.1363 -0.1306 -0.0884
25803W        W42277   1.386  13.323  15.850 -0.1300 -0.0455 -0.1026
25804W        W42278   1.083   4.433  14.548 -0.1509  0.2627  0.2450
25805W        W42279   6.384   9.557   0.460  0.0476 -0.0646 -0.1460
25806W        W42280   0.482  17.392  11.217 -0.1055  0.3076 -0.2121
25807W        W42281   0.192   5.963  15.462  0.0508 -0.1502 -0.0772
25808W        W42282  17.005  16.720  11.475  0.0299  0.0131  0.1590
25809W        W42283  11.548  18.115   2.989 -0.2186 -0.2108 -0.1270
25810W        W42284  15.866  12.975   5.169  0.0848 -0.1841 -0.1139
25811W        W42285   7.747  13.874   2.446 -0.0447 -0.1999  0.0101
25812W        W42286   9.673   8.911   0.284 -0.1429  0.0550  0.0616
25813W        W42287   1.696   1.532  13.678 -0.3148  0.2786  0.3441
25814W        W42288  12.654  17.067  12.216 -0.0313  0.0093 -0.2051
25815W        W42289   7.954  11.635   2.642 -0.3339  0.5587 -0.1936
25816W        W42290   0.725  13.455  11.726 -0.2537 -0.4170  0.0850
25817W        W42291   1.680  15.446  15.936 -0.1483 -0.0420  0.1262
25818W        W42292  12.463   6.814  15.703  0.0505 -0.1792 -0.4113
25819W        W42293  16.290   5.087   4.079  0.3431  0.2147  0.2999
25820W        W42294   5.486  18.324  12.258  0.0088 -0.0724  0.1086
25821W        W42295  17.023   5.578  14.871  0.0915 -0.0088  0.0006
25822W        W42296  15.038  10.326   2.267 -0.0187 -0.0271 -0.0297
25823W        W42297   1.375  13.425   4.344  0.1642  0.0228 -0.2198
25824W        W42298   9.456   5.885  14.408  0.0522 -0.0695  0.2352
25825W        W42299  11.050  10.304  13.004 -0.0422 -0.2145  0.1961
25826W        W42300   0.915  11.117  11.091  0.0739 -0.0838 -0.0173
25827W        W42301   1.561   3.653   0.722 -0.0312 -0.0759 -0.1717
25828W        W42302  10.374  11.861  14.350 -0.2726 -0.2158 -0.1743
25829W        W42303  12.983   3.426  14.881 -0.2258 -0.1095 -0.2257
25830W        W42304  10.156   5.206  12.529 -0.0628  0.1697 -0.1430
25831W        W42305  12.889   6.146   2.669 -0.0283  0.1451 -0.0004
25832W        W42306   1.643  15.118  14.828 -0.3687  0.1346 -0.2661
25833W        W42307   2.162  11.434  11.734  0.0100  0.2389 -0.0232
25834W        W42308   0.311   5.830   4.877  0.2497  0.1079 -0.0485
25835W        W42309   1.548   1.412  14.267 -0.1674 -0.2683  0.0877
25836W        W42310  14.272  13.079   1.804  0.0098 -0.2447  0.0279
25837W        W42311  13.792  16.698  15.535  0.1011 -0.2267  0.0918
25838W        W42312   9.340   5.340  12.897 -0.0296  0.1839 -0.0760
25839W        W42313   1.475   8.405  16.053 -0.0062 -0.1117  0.1634
25840W        W42314   4.859  17.160  12.925  0.1018 -0.2122  0.0577
25841W        W42315   4.093  18.149   3.155  0.4442 -0.0626 -0.1393
25842W        W42316  13.223   3.728   2.127 -0.0056 -0.2039 -0.0765
25843W        W42317  10.760   1.541   1.572  0.2492  0.3045 -0.0351
25844W        W42318   9.028   4.145  14.700  0.1301 -0.1523  0.0719
25845W        W42319  14.354  14.272  13.716 -0.1326  0.1207 -0.1365
25846W        W42320  16.358  17.501   2.364  0.3122  0.4036  0.1045
25847W        W42321   3.656   5.347   0.745  0.1286 -0.0062 -0.1311
25848W        W42322  11.406  12.630  12.010  0.0270 -0.2037 -0.6233
25849W        W42323  13.252   7.059  13.367  0.2756 -0.0933  0.2710
25850W        W42324  12.800  12.525  13.255 -0.0450  0.0413  0.1600
25851W        W42325  12.841   9.184   0.546  0.2172 -0.0365  0.1773
25852W        W42326   5.359  12.438   3.097  0.1135 -0.0799  0.0890
25853W        W42327  12.645   4.318   4.981 -0.0059 -0.1579 -0.1531
25854W        W42328  15.859  16.855   4.024  0.1012 -0.2129 -0.0812
25855W        W42329  17.396   1.038   5.502  0.0040  0.3147  0.1184
25856W        W42330   3.373  13.931  11.972 -0.0863 -0.1484 -0.1951
25857W        W42331  17.195   1.994  15.854 -0.1806 -0.0045  0.2956
25858W        W42332   7.278  11.551  12.683  0.1381  0.1518 -0.4329
25859W        W42333  12.108  10.743   2.772 -0.0406 -0.3703  0.1867
25860W        W42334  12.103  12.611  15.262  0.2510 -0.1288 -0.5107
25861W        W42335  10.663   8.371   3.175 -0.3144  0.0443 -0.0940
25862W        W42336   3.741   5.744   2.553 -0.0421  0.2961  0.3068
25863W        W42337  14.629   8.059   4.688 -0.0121  0.3548  0.2535
25864W        W42338   2.752   2.627  10.899 -0.0671  0.0508 -0.2415
25865W        W42339  12.669   7.922   1.611 -0.2257  0.2494 -0.3854
25866W        W42340  13.218  10.173  13.681 -0.0738  0.2735 -0.1316
25867W        W42341   7.146   6.608   2.296  0.2134  0.0116 -0.0183
25868W        W42342   8.974  13.088   4.402  0.0049  0.0891 -0.0448
25869W        W42343  18.187   5.225  15.152  0.2371  0.0602 -0.0951
25870W        W42344  13.443   2.307   1.240  0.3873 -0.0447 -0.2754
25871W        W42345   5.324   1.030   5.060 -0.0184  0.0905  0.0052
25872W        W42346   3.251   6.526   5.683  0.2269 -0.4741 -0.1309
25873W        W42347  12.700  10.702   0.780 -0.0825  0.1111  0.3714
25874W        W42348  15.694  14.956   0.479  0.0484 -0.4121  0.1981
25875W        W42349   2.191  17.616   2.104  0.1857  0.2940  0.0555
25876W        W42350   9.865   9.535  16.012 -0.0000 -0.2279 -0.1426
25877W        W42351   7.202   0.109  13.855 -0.0584 -0.2019  0.0838
25878W        W42352   3.495   2.810  14.148  0.1391 -0.0225 -0.2842
25879W        W42353   5.562  18.069   1.230 -0.1419 -0.0879  0.4321
25880W        W42354   1.201   3.209  11.235 -0.0558  0.0697 -0.1387
25881W        W42355   6.757  16.531   4.303 -0.0585 -0.1618 -0.0043
25882W        W42356  11.833  16.388  13.278 -0.1679  0.0621  0.0596
25883W        W42357   3.859   9.626  15.073 -0.1141  0.1350  0.0953
25884W        W42358   7.290  11.709  13.242 -0.0443  0.0033 -0.1218
25885W        W42359   0.096  14.116   4.551 -0.2056 -0.0915 -0.1442
25886W        W42360  16.937   3.041  11.395  0.2085 -0.0043 -0.0869
25887W        W42361  11.331   2.256   2.986  0.2125 -0.1024 -0.0035
25888W        W42362   6.310  13.755   0.021  0.5426 -0.2597  0.1647
25889W        W42363  14.876   1.928   2.007 -0.2335  0.2083 -0.2820
25890W        W42364   5.516   9.434  13.767 -0.1514 -0.2144 -0.1033
25891W        W42365  16.787   2.348   2.130 -0.0964  0.0536 -0.1655
25892W        W42366   8.698  13.384  13.182 -0.2457 -0.1457 -0.1001
25893W        W42367   5.076   7.198   3.806 -0.1280  0.3493 -0.1595
25894W        W42368   0.635  12.511   4.140  0.1421 -0.1864  0.0500
25895W        W42369  10.365   8.548   4.867  0.1298 -0.2269 -0.1837
25896W        W42370  12.489  12.206  13.534 -0.1521 -0.0263 -0.1017
25897W        W42371   7.545  16.604  12.184 -0.1266 -0.2419 -0.1062
25898W        W42372   8.452  11.760  15.568 -0.2378  0.2857 -0.2828
25899W        W42373   8.907  14.299   0.565 -0.0335  0.2123  0.1856
25900W        W42374   3.991   9.495   2.906  0.1612 -0.1132 -0.0611
25901W        W42375   5.776  17.320   1.965 -0.1118  0.4020 -0.1284
25902W        W42376   1.871   5.513   0.222  0.0484  0.4127  0.2183
25903W        W42377   7.189  10.246  14.087  0.2024 -0.0926 -0.3780
25904W        W42378   8.674   3.454   4.506  0.0780 -0.1299 -0.1333
25905W        W42379   4.988   6.541  12.752 -0.0828  0.1252  0.2752
25906W        W42380  17.237   7.156   3.276  0.1073  0.0150  0.0819
25907W        W42381   5.867   2.310  15.452  0.0272 -0.1899 -0.1886
25908W        W42382  13.987   4.624  11.243 -0.0388 -0.1521  0.1264
25909W        W42383   7.999  18.191  13.594 -0.3043  0.0755 -0.0035
25910W        W42384   0.106  14.781  15.423  0.0379 -0.2174  0.1503
25911W        W42385  13.321  15.822  14.651 -0.2596 -0.1572  0.1990
25912W        W42386  12.340  13.432   4.334  0.3741 -0.0701  0.2337
25913W        W42387   4.084  11.254  11.866 -0.3268 -0.1449  0.2654
25914W        W42388  10.664  15.017  12.975 -0.0165  0.2105  0.3254
25915W        W42389  13.267  18.112  16.277 -0.0832  0.2821  0.1192
25916W        W42390  12.946  13.787  14.312  0.3515  0.0404  0.2125
25917W        W42391   5.041  15.051   3.743  0.3064  0.1756  0.1813
25918W        W42392   9.059   0.053  14.429  0.0435 -0.2478  0.3851
25919W        W42393   5.599   7.204  12.906 -0.2543  0.4090 -0.2323
25920W        W42394  11.443   9.729   2.525  0.0994  0.2272 -0.2770
25921W        W42395  15.727  16.691   1.603 -0.2412  0.2149 -0.0859
25922W        W42396   5.280   7.648  15.101  0.0804  0.3814  0.0072
25923W        W42397  12.871   2.581   0.151  0.5027 -0.3432  0.2418
25924W        W42398  12.400  14.632  12.542  0.0007  0.0007 -0.0521
25925W        W42399  11.952  14.547  15.154 -0.3019 -0.1083  0.1899
25926W        W42400   7.339  13.137  13.443 -0.3277 -0.2666  0.0274
25927W        W42401   8.744  12.573  12.190  0.0322  0.0526  0.0502
25928W        W42402   4.626   8.714   1.560  0.1634  0.1748 -0.0006
25929W        W42403   1.419   8.090  14.629  0.2227 -0.1999 -0.0724
25930W        W42404  15.249  13.461  15.903  0.2237 -0.0083  0.0924
25931W        W42405  18.280   2.339  16.175  0.0964  0.0847  0.0223
25932W        W42406   3.555   1.482   4.732 -0.2612  0.1616 -0.0586
25933W        W42407   3.176   3.107   4.887 -0.0959  0.0287  0.0387
25934W        W42408   1.093  16.082  11.498  0.0418 -0.2074 -0.4855
25935W        W42409   5.672  13.039   1.550 -0.1043 -0.1911  0.1635
25936W        W42410   0.302   1.378  13.953  0.0594  0.0585 -0.3080
25937W        W42411  16.719  16.317   4.080  0.5570  0.3625 -0.1152
25938W        W42412  14.399   7.243   2.332  0.1000  0.1132 -0.1342
25939W        W42413   3.178  15.560  11.985  0.4842  0.0186  0.0271
25940W        W42414   7.489   0.231  15.770  0.0567 -0.1541 -0.2123
25941W        W42415  10.576   0.747   2.106  0.1673  0.0067 -0.1212
25942W        W42416   5.574   6.229   4.028  0.4376  0.0981  0.0521
25943W        W42417   3.635   1.510   3.832  0.3008  0.0089  0.2124
25944W        W42418  13.249  16.267  14.230  0.1311  0.1100  0.2311
25945W        W42419  10.978   6.556  11.276  0.1390  0.1810  0.1592
25946W        W42420   6.523   3.565  13.430 -0.1326  0.0124  0.4191
25947W        W42421  16.947   4.318   3.255 -0.2435  0.2737  0.0861
25948W        W42422  14.235   8.385  16.274  0.2195  0.3073  0.0874
25949W        W42423   8.489   9.275  15.860 -0.0884  0.0421  0.0002
25950W        W42424   4.681   3.575   1.559  0.0187 -0.2347  0.1477
25951W        W42425  17.721   9.261  11.033  0.1719  0.1802 -0.0146
25952W        W42426  13.698  10.849   3.876 -0.1220  0.0020  0.2940
25953W        W42427   4.106  14.554   3.794 -0.1890 -0.0641 -0.1217
25954W        W42428   3.017   3.750   2.388 -0.4774  0.1785  0.0332
25955W        W42429  17.104   8.927   1.547  0.2613  0.0924 -0.2946
25956W        W42430   5.178  14.865  11.837  0.2972  0.1509 -0.0354
25957W        W42431   3.196   9.354   4.483 -0.0620  0.0084  0.1098
25958W        W42432  16.697  13.603   0.552  0.0398  0.0306 -0.0109
25959W        W42433  15.710   0.505  14.931  0.0178  0.0434 -0.0812
25960W        W42434   1.833   1.113  16.079 -0.1081 -0.0047 -0.1595
25961W        W42435  11.000  10.609  13.425  0.1191 -0.2657 -0.1197
25962W        W42436   7.817   1.162   0.234 -0.0783  0.0630  0.0446
25963W        W42437  11.947  15.924   0.507 -0.2761  0.0858 -0.2024
25964W        W42438   9.708   0.101  12.678  0.1155  0.0069  0.1916
25965W        W42439  17.902   4.733  13.565  0.0519  0.2209 -0.0564
25966W        W42440  17.775  14.913  11.792 -0.1041 -0.1371 -0.0513
25967W        W42441  14.866   1.310  15.756  0.1116 -0.0871 -0.0847
25968W        W42442  17.304   6.026  12.893 -0.3054 -0.1382 -0.1944
25969W        W42443   0.384  12.722  16.110 -0.0483  0.0379 -0.4394
25970W        W42444  13.765   2.291   1.668  0.1401 -0.2002  0.2632
25971W        W42445   5.205   9.173   3.702 -0.2005  0.0717  0.1432
25972W        W42446  13.543   4.577   0.356 -0.5351  0.0075  0.2128
25973W        W42447  14.548  10.216   2.612  0.0301  0.1513 -0.0005
25974W        W42448   8.795  10.719  15.781  0.0989  0.1143  0.0896
25975W        W42449   7.747   0.139  11.224  0.1009  0.0997 -0.1146
25976W        W42450  17.149   2.135  11.155  0.2166 -0.3070 -0.2469
25977W        W42451   8.340   8.034   1.783  0.2189  0.0846  0.2084
25978W        W42452  15.217  17.719  12.275  0.0294  0.1781  0.1484
25979W        W42453   1.234   3.153  14.206 -0.2859 -0.0146 -0.0627
25980W        W42454   5.872  13.971   5.804  0.0643 -0.2403 -0.5395
25981W        W42455  10.926   0.366   5.451  0.1345 -0.1192  0.2201
25982W        W42456  12.025   0.324   4.066  0.1606  0.0661 -0.1245
25983W        W42457   7.872   5.346   3.575 -0.2116 -0.2067  0.0557
25984W        W42458  10.987   7.462  11.397  0.0598 -0.1417 -0.0544
25985W        W42459   1.960   9.614   4.088  0.2240  0.0236 -0.4054
25986W        W42460   3.915   3.836  14.570  0.0913 -0.0201  0.1368
25987W        W42461   1.819  12.388  10.371 -0.2250  0.1889  0.0957
25988W        W42462   6.079   4.977   1.490 -0.2904 -0.3589  0.0717
25989W        W42463   9.765   7.477   2.013  0.1815  0.0801 -0.2283
25990W        W42464   9.714   5.590   1.979 -0.3296  0.2824 -0.4744
25991W        W42465   4.903   6.789   1.208 -0.0295  0.0485 -0.0324
25992W        W42466   5.152   4.433   5.575  0.1247  0.1716 -0.2957
25993W        W42467  11.255  10.895   0.951 -0.1781  0.2490  0.0730
25994W        W42468  13.148  13.334  15.816 -0.3949  0.0529 -0.0234
25995W        W42469   7.408  10.391  15.767  0.2399 -0.0173 -0.2585
25996W        W42470  17.891  16.650   2.284 -0.0505  0.0245  0.2026
25997W        W42471   7.552   2.988  12.285 -0.2271 -0.1173  0.0914
25998W        W42472   4.131  15.284  15.837  0.1558  0.0525 -0.1494
25999W        W42473  18.096   1.149   1.705  0.0496  0.1414  0.0313
26000W        W42474   3.210   5.631  13.494 -0.1706  0.0584 -0.1618
26001W        W42475   8.172  11.873   3.055  0.4426 -0.0223  0.3774
26002W        W42476  11.736   0.278   2.921  0.2593 -0.2058 -0.0004
26003W        W42477  12.541   5.119  12.230 -0.1014  0.4093 -0.0961
26004W        W42478   1.989  14.402  11.385 -0.0179  0.2292  0.0786
26005W        W42479   1.854   0.253   2.113  0.1046  0.1768  0.1766
26006W        W42480  12.742   3.445   4.599 -0.0315 -0.0220  0.3584
26007W        W42481  11.419  14.538   2.782  0.0312 -0.1863 -0.2539
26008W        W42482   1.275  12.792   0.376  0.0571 -0.1839  0.1245
26009W        W42483   8.318   7.045   5.096  0.2817  0.2042  0.2903
26010W        W42484   2.713  12.400  13.918 -0.3014  0.2144  0.0639
26011W        W42485   4.447  15.420  10.822 -0.0067 -0.1959  0.0789
26012W        W42486   4.249   4.183  12.687  0.2465 -0.2123  0.2170
26013W        W42487   4.289   0.607   1.794 -0.0846 -0.1950 -0.3032
26014W        W42488   8.955  18.132   3.603 -0.0130  0.1807 -0.0982
26015W        W42489   8.457  17.501   2.875 -0.0642  0.0096  0.0914
26016W        W42490   9.834  14.748   2.133 -0.1354 -0.0163 -0.0720
26017W        W42491   0.588   5.632   2.068 -0.1568 -0.1858 -0.2221
26018W        W42492   6.746  15.009  13.434  0.1143  0.1078 -0.3061
26019W        W42493   2.480  17.448   1.665 -0.0964 -0.2594  0.1554
26020W        W42494  11.403  10.631  13.095  0.0730 -0.0286  0.1652
26021W        W42495   4.852  16.707   2.160 -0.2454  0.1309  0.0250
26022W        W42496  16.256  12.851  12.557  0.0810  0.2449  0.1466
26023W        W42497   2.334  10.430  13.845  0.0543  0.0777 -0.0843
26024W        W42498  17.153   0.933   2.833  0.0540 -0.1864 -0.1099
26025W        W42499  11.572   1.062   1.365 -0.0910  0.2006 -0.1003
26026W        W42500   5.198   4.011  14.594 -0.1866 -0.0301  0.0452
26027W        W42501   4.362   4.976  14.047 -0.1672 -0.2113  0.0915
26028W        W42502  16.029   0.643  14.427  0.1852  0.1203 -0.0184
26029W        W42503   7.442  13.849   1.588 -0.1016 -0.0629  0.3187
26030W        W42504  18.256  12.934   3.306 -0.1857  0.0038 -0.1069
26031W        W42505  17.363  11.746  11.250  0.2078 -0.1738 -0.4697
26032W        W42506   4.994   1.903   2.512  0.0795  0.2729 -0.0486
26033W        W42507  15.903   7.581   0.603 -0.2369  0.0201 -0.3664
26034W        W42508  11.694   3.036   2.944  0.2470  0.1027 -0.1468
26035W        W42509   4.091  13.015  11.800  0.0021 -0.1587 -0.2241
26036W        W42510   5.456  15.299  11.856 -0.2472 -0.0608  0.0309
26037W        W42511   0.585  15.999  16.227  0.0120  0.0856 -0.1811
26038W        W42512   2.996  12.971   5.176  0.0963 -0.3266  0.2185
26039W        W42513   6.043  13.925  14.851  0.1498 -0.1095 -0.4745
26040W        W42514   9.500   2.446   4.558 -0.3611 -0.3314 -0.0176
26041W        W42515  14.793   6.573  14.572 -0.4672  0.3727  0.0855
26042W        W42516   2.737   8.965   0.150 -0.1935 -0.0832 -0.0052
26043W        W42517   5.887  15.077  11.741 -0.1612 -0.2429  0.1642
26044W        W42518  11.531  14.919  15.046 -0.0408  0.1281 -0.0269
26045W        W42519   6.978   9.775   3.746  0.0659  0.6740 -0.1468
26046W        W42520   2.223  14.679  16.255 -0.2492 -0.0980  0.2433
26047W        W42521  11.700   1.404   0.467  0.0038 -0.0101  0.1104
26048W        W42522   6.716  11.179   1.872  0.2548  0.2807 -0.2382
26049W        W42523   3.770  15.385   4.807 -0.0991 -0.1007  0.0344
26050W        W42524   7.587   1.638  15.582 -0.1232  0.2063  0.0732
26051W        W42525  17.403  16.334   5.203  0.2053 -0.0989  0.0219
26052W        W42526   0.986  11.436  11.531  0.0893  0.2938 -0.2143
26053W        W42527   0.583   5.102  15.820  0.0756  0.1225  0.0228
26054W        W42528  12.136  12.741  16.279  0.1021 -0.2190  0.0019
26055W        W42529  13.498  13.868   5.397  0.1605  0.2877 -0.1040
26056W        W42530   2.597   3.353  15.174 -0.1379 -0.2222  0.1152
26057W        W42531  13.862   1.976   0.411 -0.2019 -0.0253 -0.0291
26058W        W42532  11.948  14.544   4.300  0.0551 -0.1885 -0.2074
26059W        W42533  15.412   0.185  14.685 -0.0300  0.3102 -0.0118
26060W        W42534  11.685   1.666   4.359  0.1264 -0.2321  0.0881
26061W        W42535   4.152   7.375  11.733 -0.4092 -0.0277  0.1111
26062W        W42536   4.597   1.601   2.631 -0.3123 -0.1156  0.2934
26063W        W42537  12.604  16.855  14.797 -0.3866  0.2783  0.1042
26064W        W42538  10.940   0.785   2.477 -0.0022  0.0409 -0.2104
26065W        W42539   5.456   1.344  15.767  0.1583 -0.0958 -0.3746
26066W        W42540   5.090   2.161   4.703 -0.0098 -0.3671 -0.0811
26067W        W42541   9.185  12.559  11.900  0.1432  0.0329  0.1714
26068W        W42542   7.690  14.975   0.648 -0.2850 -0.0934 -0.0217
26069W        W42543  14.260   6.954  12.861 -0.2869  0.3390  0.0429
26070W        W42544  17.951   2.542   4.055  0.1764  0.0609  0.4270
26071W        W42545   9.345   8.056   5.743 -0.2446 -0.2148  0.1476
26072W        W42546  11.670  10.246  13.985  0.2814  0.1115  0.2547
26073W        W42547   0.291  10.538   2.859 -0.1550  0.0462  0.2507
26074W        W42548  17.261   5.719  14.216 -0.0250 -0.1993 -0.2593
26075W        W42549  12.539   0.640   2.497 -0.0971 -0.1271  0.2104
26076W        W42550   3.870  15.643   2.334  0.0002 -0.1090 -0.0490
26077W        W42551  16.134   4.307   3.129  0.0611  0.1409  0.2505
26078W        W42552   3.679  13.329  13.728 -0.2595  0.2186 -0.2155
26079W        W42553   3.791   9.861   1.070  0.1658  0.0482  0.0445
26080W        W42554  10.150   0.416  14.914 -0.2506  0.1334 -0.0738
26081W        W42555  14.689   0.901  14.912  0.0977 -0.0009  0.0390
26082W        W42556   4.727   6.658  12.245 -0.0989 -0.1431  0.0087
26083W        W42557   7.888   5.239  11.011  0.1509 -0.0321 -0.1587
26084W        W42558   4.423  16.682   3.141  0.0601  0.3133  0.3206
26085W        W42559   0.160  10.185   3.491 -0.2830 -0.0804 -0.0381
26086W        W42560   1.240   9.038   5.099 -0.0802  0.3019  0.1077
26087W        W42561   1.368  13.278   5.596 -0.2082  0.0040 -0.1215
26088W        W42562  10.085   9.897   4.376  0.0839 -0.1092 -0.0869
26089W        W42563   5.568   8.000   0.919 -0.0899  0.2140  0.0633
26090W        W42564   5.556   9.485   1.639  0.2362  0.2009 -0.2052
26091W        W42565   3.346  13.410  13.307 -0.1282  0.1078 -0.0690
26092W        W42566   4.785  11.866   5.684 -0.0859 -0.1101  0.0982
26093W        W42567   3.664   2.028   3.532 -0.1418  0.0522  0.0581
26094W        W42568  16.248   5.618  15.056  0.0315  0.2834 -0.2698
26095W        W42569   4.665  10.333  13.692 -0.1887 -0.1175  0.0852
26096W        W42570  18.259  16.642   2.996 -0.0003 -0.0482 -0.1489
26097W        W42571   2.869  16.334  12.356 -0.3396  0.3062 -0.1174
26098W        W42572  17.466  17.876   1.385 -0.2627  0.1273 -0.2098
26099W        W42573   6.381  17.875  12.996  0.0651  0.0381 -0.0424
26100W        W42574   7.111   0.868  10.863  0.2140 -0.2537 -0.0537
26101W        W42575  15.157   1.984   4.035 -0.2821  0.0158  0.1506
26102W        W42576   8.848  14.567   3.843  0.1332  0.0682  0.0753
26103W        W42577  16.446   1.577   0.451 -0.1308 -0.3472 -0.2816
26104W        W42578   8.900  16.187  13.013 -0.1859 -0.2249  0.1441
26105W        W42579  13.864   7.353   0.203 -0.0516 -0.0028 -0.0338
26106W        W42580  14.913   3.531   4.422 -0.3352 -0.3136 -0.0359
26107W        W42581  16.137  17.381   3.139 -0.1638  0.0219 -0.1525
26108W        W42582   4.748   3.523  11.309  0.1946 -0.1206 -0.1724
26109W        W42583  15.175   0.625   2.729  0.0416 -0.2262  0.1983
26110W        W42584   0.513  13.843   4.432  0.1892  0.1651 -0.0399
26111W        W42585   1.562   6.891   5.814 -0.1495  0.2039 -0.0206
26112W        W42586  12.480  15.420   2.675 -0.2480 -0.2416  0.2404
26113W        W42587  16.181  16.128   2.167  0.0359 -0.2829  0.1997
26114W        W42588  10.015  16.967  15.177  0.2467  0.1154  0.0176
26115W        W42589   5.947   4.155   1.463 -0.0537  0.1658 -0.0662
26116W        W42590  13.099  12.190   0.988  0.0180 -0.0241  0.1709
26117W        W42591   1.974  12.619  12.040 -0.3545  0.0279  0.0378
26118W        W42592  17.915   0.554   1.768  0.1519  0.2671 -0.2562
26119W        W42593   5.802  10.814   1.559  0.1616 -0.2439  0.2754
26120W        W42594   2.287   5.203   0.221  0.1499 -0.0686  0.0800
26121W        W42595  15.657   1.715  14.024  0.0105 -0.0631  0.2445
26122W        W42596  11.387   1.410  12.311  0.0449 -0.1277  0.2755
26123W        W42597   2.126   4.350  11.181  0.0625 -0.0313  0.2007
26124W        W42598   4.046   0.460   3.126  0.0957  0.1571  0.0030
26125W        W42599   3.429  14.311   4.693 -0.4145 -0.1560 -0.0871
26126W        W42600   2.274   4.454   1.347 -0.1451 -0.1210  0.2678
26127W        W42601   5.134  14.083  12.955 -0.2349  0.0685 -0.1666
26128W        W42602  15.693  13.394   4.242  0.1648 -0.1207  0.1925
26129W        W42603   3.436  10.878  12.885  0.1313 -0.0991 -0.0361
26130W        W42604   4.076  17.179  12.240  0.2439 -0.2666 -0.0689
26131W        W42605  17.923   4.437  14.751  0.2477  0.1784  0.0216
26132W        W42606   0.302  17.007  14.087 -0.0594 -0.0714  0.3579
26133W        W42607  14.399   9.120   2.633 -0.2031  0.0537  0.1203
26134W        W42608  11.615  10.956  14.423  0.2314  0.1553 -0.0450
26135W        W42609   0.291   9.167   3.733 -0.2435  0.0237  0.0899
26136W        W42610  10.930   9.143   0.564  0.0980  0.0143 -0.0871
26137W        W42611  16.351   3.922  14.343 -0.1610  0.0511 -0.2421
26138W        W42612  17.856   8.041   5.290  0.3002  0.2479  0.2136
26139W        W42613   3.158  10.890  13.360 -0.1012  0.0528 -0.0868
26140W        W42614  14.135   5.288   3.233 -0.3073  0.1375  0.1510
26141W        W42615   8.526   6.383   0.907  0.2903  0.0818 -0.2542
26142W        W42616   8.485   5.443  15.284  0.1998 -0.0844 -0.1541
26143W        W42617  18.077   7.330   0.383  0.1135  0.3737  0.1866
26144W        W42618  17.579   6.510   1.732  0.0019  0.1264  0.2940
26145W        W42619   9.820   3.085  11.200 -0.1205  0.1774  0.1631
26146W        W42620   0.220   6.487  15.021  0.1480  0.2367  0.0173
26147W        W42621   0.914  12.014  11.534  0.0084 -0.1009 -0.0203
26148W        W42622   9.200  12.184  14.805 -0.1151  0.0273  0.3113
26149W        W42623  17.854  10.680   1.319  0.3571 -0.1445 -0.1454
26150W        W42624  17.452   4.700  10.810 -0.0409  0.0216 -0.0676
26151W        W42625   1.990   7.980   4.172  0.0777 -0.0235 -0.0398
26152W        W42626  11.848  14.290   3.488 -0.1341 -0.0918 -0.1935
26153W        W42627   0.823   0.900  16.003 -0.1844  0.0842 -0.1599
26154W        W42628   0.204  18.094   1.417  0.0354 -0.1767  0.2375
26155W        W42629   9.283   0.466  14.668 -0.0000  0.1169 -0.2994
26156W        W42630  16.153  14.206   4.762  0.1021 -0.2477  0.3247
26157W        W42631   4.026  15.852   4.734  0.1833  0.0935 -0.0690
26158W        W42632   0.431   0.837   5.360  0.1999 -0.0977  0.1596
26159W        W42633   7.668  16.075  13.016  0.2532  0.2889 -0.1341
26160W        W42634   6.357   4.905  11.487 -0.2180 -0.2515 -0.1161
26161W        W42635   6.752  10.382   1.701 -0.1620  0.1320  0.1914
26162W        W42636   3.906   4.961  13.345  0.0502  0.0487 -0.2314
26163W        W42637   0.986  11.898  14.880  0.3124  0.0132 -0.1432
26164W        W42638   2.655   0.869   3.800  0.2727 -0.1503 -0.2059
26165W        W42639   5.928  11.840   5.706 -0.1844  0.2767  0.0274
26166W        W42640  14.122   2.434   5.628  0.0649  0.1247  0.2865
26167W        W42641  15.043  17.306   1.090  0.1887  0.1259 -0.2560
26168W        W42642   3.115   7.674   5.216 -0.2000  0.0583  0.2493
26169W        W42643  14.789   9.555   1.022  0.0859 -0.3543  0.1024
26170W        W42644   1.163   2.395   5.932 -0.0293  0.0984 -0.4293
26171W        W42645  16.730   4.733  11.709  0.0152  0.1534 -0.1242
26172W        W42646  10.638   9.878   0.267  0.1655 -0.5024  0.1121
26173W        W42647   7.595  11.106  12.997 -0.1928 -0.2670  0.0698
26174W        W42648  10.484  13.467   2.224  0.0298 -0.0107  0.1302
26175W        W42649   5.436   4.551   4.085  0.1797 -0.0590 -0.2304
26176W        W42650  11.978   4.846   0.809  0.2385 -0.0978 -0.1563
26177W        W42651   8.292  14.870  13.253  0.0720 -0.0222 -0.3147
26178W        W42652   0.987   7.649  11.859  0.3402  0.2196  0.1067
26179W        W42653   4.388   4.401   0.824  0.0079 -0.1639 -0.1043
26180W        W42654   4.920  15.376  10.704 -0.0420 -0.0987  0.0442
26181W        W42655  17.762   4.406  15.237  0.1158  0.2539  0.0860
26182W        W42656  16.045   0.663  15.820  0.1941  0.1752 -0.1672
26183W        W42657  16.766   4.943   4.673 -0.0038 -0.1328 -0.3710
26184W        W42658   2.755   2.688   0.792 -0.2208  0.1608  0.0645
26185W        W42659   7.001  15.667  15.965 -0.0777  0.0343 -0.0224
26186W        W42660   0.955   6.346   5.316  0.1359  0.1858  0.2170
26187W        W42661   4.862   6.152  11.287 -0.1479 -0.0037 -0.0395
26188W        W42662  11.171  13.536   2.723 -0.2583 -0.0571  0.2575
26189W        W42663   7.835  18.250   1.431 -0.2838  0.5345  0.1579
26190W        W42664  11.689   6.157  14.969  0.0034 -0.3631  0.2541
26191W        W42665  13.550   7.377   2.160 -0.1250 -0.2332  0.0842
26192W        W42666   4.359   7.880   3.444  0.0378  0.1703 -0.0419
26193W        W42667  10.984   9.757   2.783  0.1531  0.0559  0.0327
26194W        W42668   8.255   3.958   3.994 -0.2115 -0.3162 -0.0774
26195W        W42669   5.787   6.738  15.155 -0.0092 -0.2262 -0.2419
26196W        W42670  15.107   7.547   3.752 -0.2516 -0.0454 -0.0475
26197W        W42671   3.000  12.806  14.980  0.0094  0.1990 -0.4304
26198W        W42672  14.160  17.398   2.054  0.1478 -0.0561 -0.1589
26199W        W42673   8.830   1.944   4.509 -0.0789  0.0287 -0.0303
26200W        W42674   1.924   8.613   0.247 -0.0609 -0.0356  0.3706
26201W        W42675  15.651   2.174  12.354 -0.2903 -0.1576  0.0999
26202W        W42676   3.761   9.805   3.997  0.1837 -0.2912  0.0283
26203W        W42677  11.452  17.292   3.629  0.0782  0.3441  0.0943
26204W        W42678  16.671  16.973   1.674 -0.0501 -0.0416  0.1744
26205W        W42679  16.036  10.480   2.751 -0.1955 -0.2473 -0.1165
26206W        W42680   8.809   2.414   2.050  0.1308 -0.0714 -0.0514
26207W        W42681  16.377   8.037   3.803  0.1708 -0.0329  0.0596
26208W        W42682   7.219   0.131  13.096 -0.1627  0.1919 -0.2512
26209W        W42683   7.413  13.442   3.914 -0.3378 -0.2660 -0.0576
26210W        W42684   5.013  16.547  11.548 -0.1114 -0.1073 -0.0488
26211W        W42685  10.493  17.580   3.592  0.1186  0.2652  0.0730
26212W        W42686  12.656   2.161  14.946 -0.3687  0.2221 -0.1640
26213W        W42687  12.152   9.750  12.124 -0.1367 -0.0780 -0.0785
26214W        W42688   7.299   1.618  14.687  0.0546  0.3794  0.1398
26215W        W42689   1.432   6.575  15.260  0.0890  0.3811  0.1617
26216W        W42690  13.390   1.407  13.403 -0.0163 -0.0282 -0.0984
26217W        W42691   4.482   1.208   3.009  0.0804 -0.1745  0.0740
26218W        W42692  12.830  12.868  13.760  0.5813 -0.0661  0.0647
26219W        W42693  12.016  12.638   2.538  0.1511  0.0390  0.2233
26220W        W42694   7.223   9.054   0.643  0.1263 -0.4105  0.0503
26221W        W42695   0.960  17.269  11.103 -0.0454  0.0946 -0.0187
26222W        W42696   5.736  12.787   4.042  0.0737 -0.0354 -0.0542
26223W        W42697   5.514   7.867   4.457  0.1679 -0.2315 -0.0013
26224W        W42698   3.841   5.697   3.416  0.1155 -0.1552 -0.3901
26225W        W42699   0.768   4.866  13.405  0.0557 -0.0090  0.0144
26226W        W42700   5.893  14.618   1.274 -0.0037  0.0168 -0.1480
26227W        W42701   8.319   9.341   5.316 -0.0708  0.0432 -0.1247
26228W        W42702  13.822   1.728  13.508 -0.1507 -0.2484 -0.1533
26229W        W42703   3.177   4.757  15.621 -0.3970 -0.2161  0.2477
26230W        W42704   5.521  13.521   5.027  0.2028 -0.1094  0.0177
26231W        W42705   0.619   8.000   2.316 -0.1388 -0.1255  0.1267
26232W        W42706   1.245  13.186  14.835 -0.1268  0.1982 -0.0630
26233W        W42707  11.340  16.882  15.401 -0.0503 -0.0087 -0.1706
26234W        W42708   2.811   4.137  11.470  0.0295  0.1322 -0.4695
26235W        W42709   5.563   7.704   6.755  0.0924 -0.3341  0.1029
26236W        W42710  15.703  14.205  11.829  0.1717 -0.2923  0.3509
26237W        W42711   9.983   9.162   0.578  0.2817 -0.0732  0.0760
26238W        W42712   3.518  16.998   5.124  0.4882  0.2158  0.1539
26239W        W42713  17.828  15.766  14.299 -0.0863 -0.2629  0.2748
26240W        W42714   1.412   4.787   0.128  0.1410 -0.1846  0.0469
26241W        W42715   7.824  11.000  11.725  0.0227 -0.4218  0.0811
26242W        W42716  15.605   9.058   2.039  0.5367  0.1552  0.0228
26243W        W42717  12.832   8.945   2.644 -0.0892  0.0155  0.0455
26244W        W42718   6.410  10.668  16.051  0.1210  0.1539 -0.0557
26245W        W42719  15.130   3.602   1.013  0.5964 -0.3186  0.0536
26246W        W42720   8.255  15.105   5.802  0.2247  0.2545 -0.1854
26247W        W42721  16.749   3.553  14.419  0.0812  0.1434 -0.0472
26248W        W42722   8.543   5.103  15.675 -0.0198  0.3616  0.1827
26249W        W42723  17.283   6.735  15.783  0.0626  0.1341 -0.4404
26250W        W42724   1.367   8.888   6.043  0.1634 -0.2205  0.0906
26251W        W42725  13.713  12.943   5.048  0.2700  0.2497 -0.2977
26252W        W42726  18.235   5.637   4.606  0.1826  0.0741  0.1710
26253W        W42727  15.131  13.308   0.868 -0.3491  0.2550  0.1603
26254W        W42728   0.725   7.730   3.771  0.2697 -0.0563 -0.2594
26255W        W42729   4.279   2.872   2.399  0.0232  0.3248  0.1284
26256W        W42730   0.704   4.701  15.510 -0.1064 -0.0366 -0.1911
26257W        W42731   9.228  18.299   0.934 -0.0954  0.0680 -0.1879
26258W        W42732   9.840   2.901  15.316  0.2219  0.1465  0.2394
26259W        W42733   0.400  15.182   0.981 -0.0358 -0.0152  0.3568
26260W        W42734  16.618  11.869   2.118  0.1804  0.3192 -0.2549
26261W        W42735   3.198   2.846   0.612  0.1462  0.2292 -0.1038
26262W        W42736   8.148   2.955   5.081  0.1310  0.0454 -0.2611
26263W        W42737  15.995  12.378  15.920 -0.1748 -0.0770 -0.0598
26264W        W42738  15.269   7.307  11.790 -0.3062  0.0057 -0.0196
26265W        W42739   0.456   8.717  13.350  0.0951 -0.0135  0.1192
26266W        W42740  14.465   9.305  12.280  0.2371 -0.3396  0.3692
26267W        W42741  18.136   9.302  13.638 -0.1526  0.2469  0.0078
26268W        W42742   5.168   1.635  15.293  0.1200  0.1589 -0.0723
26269W        W42743   1.537  13.231   2.847  0.2743 -0.1202  0.0366
26270W        W42744   1.908   6.922  13.387 -0.0172 -0.2830 -0.2524
26271W        W42745   9.138   9.149  13.967  0.0200 -0.0794 -0.3384
26272W        W42746  16.644   7.334  14.820 -0.3270 -0.2121  0.2371
26273W        W42747   5.266  16.589  13.228  0.1076 -0.2254 -0.2521
26274W        W42748  12.721   8.419   1.845  0.0694 -0.0825 -0.0723
26275W        W42749  16.439   7.425   1.279  0.3319  0.2757 -0.1321
26276W        W42750  16.994  15.339   3.722 -0.2778 -0.0928  0.0111
26277W        W42751   5.076  14.736  12.319  0.1165 -0.0616  0.3302
26278W        W42752  14.414  16.829  12.218  0.0921  0.1914 -0.2867
26279W        W42753  16.101  12.500  15.034  0.1812  0.0231  0.2636
26280W        W42754  12.689   3.306  15.792 -0.0544 -0.0052 -0.1369
26281W        W42755  11.311   9.941  14.175  0.0325 -0.0078  0.0517
26282W        W42756   6.434  17.510  12.587 -0.1659  0.2902 -0.1144
26283W        W42757  13.428  16.919   2.792 -0.3337  0.2397  0.0073
26284W        W42758   2.995  13.780   3.569 -0.0984  0.0902 -0.1787
26285W        W42759  10.219  10.021   1.682 -0.0468  0.0951 -0.1185
26286W        W42760   9.761   3.294   1.589 -0.1295  0.5421  0.0157
26287W        W42761  10.735  10.008   2.438 -0.1718 -0.3387  0.0614
26288W        W42762   9.359   1.625   5.197 -0.0273  0.0364 -0.2080
26289W        W42763   1.846   0.998  14.106  0.4049 -0.0005  0.0245
26290W        W42764   0.838  14.351  16.289 -0.1029  0.0818  0.0294
26291W        W42765   3.374   1.866  15.087  0.1897  0.0363  0.0015
26292W        W42766  12.427   6.333   3.510 -0.1910 -0.0404  0.2722
26293W        W42767  14.093   3.008  13.452 -0.0636  0.1747 -0.0068
26294W        W42768   0.085   6.790   4.796  0.1621  0.2562  0.2413
26295W        W42769  12.382   6.159   5.871 -0.1036  0.1337  0.2563
26296W        W42770   9.046   0.850   5.608  0.1668 -0.0882 -0.1371
26297W        W42771  14.459   1.112  14.564  0.1423 -0.1977 -0.0014
26298W        W42772  10.645   6.300   4.315  0.3373  0.1388 -0.0560
26299W        W42773   6.355   0.268  13.809 -0.2630  0.3771 -0.2964
26300W        W42774   4.868   7.374  15.576  0.1040  0.0102  0.0437
26301W        W42775   8.800   5.092   3.510  0.0772 -0.0761  0.2188
26302W        W42776  15.906  11.564  10.574 -0.1136  0.3448 -0.4091
26303W        W42777   1.613   5.132  14.294 -0.3750  0.2530 -0.0780
26304W        W42778  13.932   8.426   5.011  0.1572  0.0302  0.0980
26305W        W42779   7.189   4.326   0.519 -0.1189  0.1317  0.2529
26306W        W42780  18.226  15.248  13.281 -0.0250 -0.1361 -0.1952
26307W        W42781   0.887   9.002   1.469  0.0199 -0.2035 -0.2416
26308W        W42782  14.652   1.469   3.300 -0.2694  0.0645  0.0265
26309W        W42783   8.892  12.099  12.622  0.0086 -0.3585  0.3951
26310W        W42784  16.488   8.692  15.369  0.0499  0.1050  0.1209
26311W        W42785   9.147  15.145  13.126  0.2963  0.1056  0.1836
26312W        W42786  16.902   7.161   3.734 -0.4881  0.4357  0.1121
26313W        W42787   3.590   0.566   2.609  0.0604  0.0045 -0.1882
26314W        W42788   5.500  18.279  14.783 -0.0280 -0.1294 -0.1299
26315W        W42789   3.853   7.644  13.630 -0.1881  0.0296 -0.2556
26316W        W42790   9.036   7.530   2.494 -0.1843  0.2318  0.0040
26317W        W42791   1.311  15.774   1.684  0.0094  0.2033  0.0257
26318W        W42792  12.609   4.318  14.303  0.0813  0.6448  0.0979
26319W        W42793   0.459   6.219  13.824  0.0609 -0.4183 -0.0130
26320W        W42794   1.489   6.694   1.480 -0.0708 -0.3467 -0.0005
26321W        W42795   5.033   8.547  15.960 -0.3049  0.2975  0.1257
26322W        W42796   6.131  14.700   2.762  0.0482  0.0487  0.2710
26323W        W42797   3.212  12.885  13.344 -0.0450  0.0082  0.0714
26324W        W42798  11.403   7.076   5.498  0.2470 -0.2509 -0.2195
26325W        W42799  14.603   7.053  15.372 -0.2223  0.0867  0.0538
26326W        W42800   9.237  14.310  13.688 -0.2390  0.0621  0.1349
26327W        W42801   1.257   6.326   1.277 -0.0797  0.5331  0.0332
26328W        W42802   5.602   7.923   1.803 -0.0829 -0.0685  0.0921
26329W        W42803  17.228   3.508   0.433  0.3323 -0.0472 -0.1542
26330W        W42804   9.351   9.910  14.340  0.0972 -0.1846 -0.0763
26331W        W42805   3.929  13.674  13.474 -0.0789 -0.1023  0.0213
26332W        W42806  11.333  17.087  11.735  0.1890  0.2628  0.0127
26333W        W42807  10.225  16.368   0.958  0.1523  0.3094 -0.2453
26334W        W42808  11.885  18.198  13.173  0.2988 -0.1495 -0.0684
26335W        W42809  16.284   2.618  14.595  0.0814  0.0144  0.2901
26336W        W42810  14.971  14.502  14.326  0.1824 -0.2821  0.2301
26337W        W42811   0.396   9.130   3.192  0.1241  0.3044  0.2513
26338W        W42812   8.361  15.492  13.884 -0.2054  0.2037 -0.0183
26339W        W42813   6.339   7.013  14.857  0.0681  0.0635  0.1053
26340W        W42814   7.163  14.371  14.133 -0.0930  0.1371 -0.1903
26341W        W42815   6.960   2.702   0.471  0.1047 -0.1235  0.0832
26342W        W42816  10.573  18.092  12.129  0.0047  0.0383 -0.0070
26343W        W42817   7.196   0.952   2.776  0.1173 -0.0439 -0.1215
26344W        W42818  14.024  10.290   0.391 -0.3335  0.0387 -0.2486
26345W        W42819   2.546  17.565  13.962  0.1099  0.0310 -0.0621
26346W        W42820   3.805  12.048   1.514  0.0718  0.4100  0.2880
26347W        W42821   3.143   0.000   5.015  0.0166  0.1072  0.0816
26348W        W42822   0.844   7.289  10.783  0.3351  0.0184  0.0707
26349W        W42823  11.476   7.241  14.013 -0.1098 -0.0267 -0.2394
26350W        W42824  10.303  11.613   1.782 -0.4104  0.2528 -0.1190
26351W        W42825   7.443   5.637  15.167  0.0383 -0.0507 -0.1055
26352W        W42826   8.689   7.131  14.828 -0.0066 -0.0125 -0.2680
26353W        W42827   1.100  10.516  13.198  0.2453 -0.1292 -0.3823
26354W        W42828  10.401   6.148   5.526  0.1861  0.2259  0.0587
26355W        W42829   0.549   7.421   2.390 -0.0480  0.0009  0.2149
26356W        W42830   0.425  16.260   0.497  0.2281  0.1362 -0.1991
26357W        W42831   6.691   3.576   2.525  0.1748  0.2173 -0.1664
26358W        W42832  13.673   8.918   3.865 -0.2404  0.0664  0.1416
26359W        W42833  16.750  11.123  10.123  0.0641 -0.2811  0.0969
26360W        W42834  12.808   0.563  14.247  0.0853  0.3280  0.3671
26361W        W42835  17.964   0.963   3.995 -0.1622  0.1672 -0.1825
26362W        W42836  16.982  15.231  11.691  0.0812  0.0443  0.1423
26363W        W42837  13.182   9.303  14.634 -0.3845  0.0417  0.0248
26364W        W42838  14.442   6.763   5.124 -0.1247  0.0460  0.0381
26365W        W42839   3.231   5.489  15.989  0.1670 -0.2744  0.2279
26366W        W42840   0.586  12.245   3.010  0.0703  0.2355  0.3253
26367W        W42841  15.665  17.192  13.311  0.0058  0.0548  0.0677
26368W        W42842   9.846  17.755   4.610 -0.0160  0.1277 -0.0081
26369W        W42843   0.018   4.977  16.285  0.2518  0.2588  0.2123
26370W        W42844  15.315   5.932  10.025 -0.1690 -0.0273  0.0413
26371W        W42845  17.955  12.548   2.180 -0.1727 -0.0580  0.1190
26372W        W42846   2.957   6.797  15.978  0.2362 -0.1761 -0.3791
26373W        W42847  17.887   1.268   5.377  0.0148 -0.2502  0.2067
26374W        W42848   1.387   8.224  13.404 -0.0790 -0.1558 -0.0468
26375W        W42849   6.161   8.707   3.371 -0.1127  0.0418  0.0282
26376W        W42850  16.840   2.508   4.916  0.0124  0.1392  0.1732
26377W        W42851   5.810   3.864   4.475 -0.3739 -0.0678  0.0037
26378W        W42852   5.170   4.334  11.519 -0.0659  0.0978 -0.0891
26379W        W42853  10.465  12.111  15.281 -0.1354 -0.0851 -0.1778
26380W        W42854  13.820   1.230   3.865 -0.0574 -0.2354 -0.0631
26381W        W42855  12.736   6.412   1.226 -0.1944  0.0687  0.1637
26382W        W42856   3.470   4.683   4.190 -0.1442  0.0145 -0.2604
26383W        W42857   4.984  16.388  14.356 -0.2446  0.3607  0.2453
26384W        W42858  14.849  16.765   0.380  0.1154  0.0360 -0.0276
26385W        W42859  10.056   9.168   2.197 -0.2414  0.0796  0.0136
26386W        W42860   0.250  12.009   1.842  0.2254 -0.2449 -0.2258
26387W        W42861  17.749   9.522  11.462  0.0158 -0.1687 -0.0107
26388W        W42862  16.284   4.037  13.836  0.3575 -0.0231 -0.0683
26389W        W42863   2.518   8.844  15.626  0.0437 -0.4021 -0.0505
26390W        W42864   8.213   6.569  11.512  0.0636 -0.2621 -0.0792
26391W        W42865  16.429  16.391   0.927 -0.0263 -0.1182 -0.0845
26392W        W42866  14.812  17.792   0.464  0.2398  0.0230 -0.1643
26393W        W42867   6.760  13.453  12.977 -0.0465  0.0478 -0.1174
26394W        W42868  15.636   3.776   3.427 -0.2907  0.2426  0.0821
26395W        W42869   1.087  12.262   2.868  0.0248  0.0534 -0.1203
26396W        W42870  16.114   7.517   3.906  0.0253  0.2171  0.3362
26397W        W42871   4.546  13.537   0.715  0.0711  0.1493 -0.0092
26398W        W42872  11.139   6.330   5.694  0.0950 -0.2653  0.0317
26399W        W42873   2.247   4.363   0.812  0.0294  0.2927  0.0202
26400W        W42874   6.599   0.919  10.898  0.1606 -0.0293  0.0521
26401W        W42875   7.870  15.381   4.238 -0.3883 -0.2095 -0.0195
26402W        W42876   4.063  15.737  15.627 -0.0384 -0.0442 -0.0045
26403W        W42877  14.738   3.654  12.328  0.0861 -0.3090 -0.2368
26404W        W42878   4.218  17.519   0.261  0.1106 -0.1112 -0.1398
26405W        W42879   5.046  14.848   1.118  0.0469  0.2304 -0.1839
26406W        W42880  15.749   4.083  12.569  0.1733 -0.1393  0.2232
26407W        W42881   3.421   6.187  14.536  0.1722 -0.0233  0.3358
26408W        W42882   8.842  13.338   0.225 -0.1009  0.1374  0.2908
26409W        W42883  15.763  16.210  14.887  0.0910 -0.1052 -0.0544
26410W        W42884   5.095   5.337   3.731 -0.0945 -0.0801  0.3270
26411W        W42885   9.161  17.525   0.161 -0.0949 -0.2389  0.2982
26412W        W42886  14.527   5.622   2.402  0.2459 -0.0046  0.0479
26413W        W42887   6.777   9.831  11.555  0.0538 -0.0944 -0.0933
26414W        W42888   2.270  17.832  15.702  0.1588  0.3421 -0.0632
26415W        W42889   6.442   6.222  15.521 -0.0700 -0.0220 -0.1650
26416W        W42890   8.148   3.517   5.987  0.0567 -0.1164  0.1753
26417W        W42891  17.320   1.679  13.330  0.1208  0.0285 -0.0564
26418W        W42892   5.087  16.735  12.754  0.1706 -0.0643 -0.4561
26419W        W42893   3.399  10.959   0.520  0.2135 -0.0808  0.0145
26420W        W42894  12.604   0.513   1.204 -0.0199 -0.1022 -0.2803
26421W        W42895  18.079  16.834  11.298 -0.0519 -0.1692 -0.2194
26422W        W42896  16.827   5.200  11.189  0.0142 -0.2300 -0.1129
26423W        W42897  16.747   2.828  12.356 -0.1049 -0.0275 -0.1673
26424W        W42898  13.495  16.507  11.288  0.1789  0.1331 -0.1016
26425W        W42899  11.253   1.168   0.267 -0.0727 -0.0750 -0.1045
26426W        W42900   5.863   9.292   1.975  0.0104  0.4464 -0.1724
26427W        W42901  12.964   3.335   2.365 -0.0624 -0.2709  0.2666
26428W        W42902  10.178  11.912   3.481  0.0184 -0.0597 -0.0265
26429W        W42903   5.825  11.148   0.847 -0.4012  0.0028  0.0085
26430W        W42904   6.631  14.504   5.266  0.0327 -0.1237 -0.0298
26431W        W42905   7.684  11.798  14.186  0.1133 -0.2536  0.0866
26432W        W42906   2.917   1.917  14.308  0.0229  0.3771  0.2125
26433W        W42907  13.908  16.160  15.357  0.1915  0.0320 -0.1225
26434W        W42908  14.906   5.543   5.030 -0.2648 -0.1664  0.0548
26435W        W42909  13.102  11.384   4.620  0.1044  0.1830 -0.0038
26436W        W42910  18.062  17.411  10.735  0.0061 -0.1160 -0.0149
26437W        W42911   4.485  14.056  12.740 -0.0467  0.0353  0.4468
26438W        W42912  10.874   2.014  16.013  0.0092  0.2163  0.1648
26439W        W42913  14.301  12.092   2.647  0.0705  0.1311 -0.2107
26440W        W42914   3.985   0.148   4.203 -0.1310  0.1891  0.0024
26441W        W42915  12.814   0.106   5.096 -0.1175 -0.2226 -0.2108
26442W        W42916   3.334   4.479   2.787  0.2012 -0.1370 -0.0500
26443W        W42917   2.509   0.972  15.323  0.1124  0.0573 -0.1233
26444W        W42918  13.463  12.190   1.431  0.4156 -0.3209 -0.1148
26445W        W42919   0.589  15.226   5.428  0.0688  0.2048 -0.1769
26446W        W42920   5.480   1.699   5.845 -0.2633  0.0383  0.1328
26447W        W42921  18.054  13.707  13.497 -0.0015  0.0483  0.2455
26448W        W42922   6.526   1.656   4.145  0.0246 -0.0225  0.0367
26449W        W42923  16.910  15.056  14.097 -0.1038 -0.0550 -0.2091
26450W        W42924   7.185   3.574   2.612  0.0219  0.1917 -0.2017
26451W        W42925   0.494   6.148  12.532 -0.0000  0.1625 -0.2395
26452W        W42926  14.490   9.586  15.888 -0.1337 -0.0937 -0.1170
26453W        W42927  10.686   5.825  15.176 -0.0008 -0.1424 -0.3285
26454W        W42928  17.431   1.271  15.236  0.1237  0.3318  0.0824
26455W        W42929   0.322  14.600  12.583 -0.0177  0.0256 -0.3031
26456W        W42930   1.132   2.961  14.647 -0.1053  0.0354 -0.1370
26457W        W42931  10.559   3.261   4.457 -0.0319 -0.0927  0.0454
26458W        W42932   6.735   0.800  14.425  0.0096  0.0049 -0.0426
26459W        W42933  16.931   7.604  16.266  0.0122 -0.2033  0.0573
26460W        W42934   0.504   1.303  13.528 -0.0635 -0.0685  0.0977
26461W        W42935  17.788  10.721   3.019 -0.0037 -0.1163  0.1551
26462W        W42936  12.121  10.405  13.799 -0.0167 -0.1861 -0.2509
26463W        W42937   1.581  16.892   1.194  0.0019 -0.2177  0.1993
26464W        W42938   1.576   8.206   3.535 -0.0329 -0.1298  0.1357
26465W        W42939  14.977   6.458   0.327 -0.3085 -0.1369  0.2225
26466W        W42940  16.984  12.182  11.947  0.1260 -0.2102 -0.1211
26467W        W42941  18.005  12.830   4.161 -0.0769 -0.2173  0.1051
26468W        W42942   5.235   0.258   2.990 -0.0408  0.0750 -0.1458
26469W        W42943   2.929  18.306  10.989 -0.2669  0.1788 -0.2402
26470W        W42944  16.598   9.904  11.941 -0.1354 -0.1206 -0.0547
26471W        W42945  14.006  13.392   2.226  0.1659 -0.3063  0.0768
26472W        W42946   5.388  11.456   0.904 -0.2771  0.0449  0.1478
26473W        W42947  11.497   7.241   0.023 -0.2762  0.1553 -0.0512
26474W        W42948   9.687  15.489   4.148 -0.0479  0.0890  0.1908
26475W        W42949   3.223   6.478  14.176 -0.3189 -0.3265  0.0352
26476W        W42950   1.612   3.230   4.620 -0.1296  0.1823  0.1233
26477W        W42951   3.709  10.449   5.225  0.2040  0.1128  0.0706
26478W        W42952  16.714  15.558   4.451 -0.0804 -0.0453  0.2341
26479W        W42953   0.575   7.827  13.121 -0.1253 -0.1897  0.0073
26480W        W42954  12.544   4.361   4.468 -0.3411  0.0524  0.2514
26481W        W42955  13.408  16.063  13.005  0.2476  0.0017  0.0457
26482W        W42956   4.254  17.117   5.821 -0.2367 -0.1907  0.2976
26483W        W42957   7.553  10.132   6.364 -0.3086 -0.0259  0.1187
26484W        W42958   9.013  11.260   2.392 -0.0938  0.0061 -0.0256
26485W        W42959   5.862  10.892   3.856 -0.1462  0.1579  0.2185
26486W        W42960   0.516   0.368   4.006  0.2764 -0.1964  0.0346
26487W        W42961  11.249  17.174  12.623  0.2105 -0.5507  0.0757
26488W        W42962  17.409   4.981   1.865  0.4064 -0.0612  0.2186
26489W        W42963  11.506   6.532   3.634  0.1336  0.1561  0.0737
26490W        W42964  15.854   0.655   1.316 -0.2174 -0.0299  0.3153
26491W        W42965   3.230   9.525  14.248  0.1725  0.2205  0.2348
26492W        W42966  18.276   5.055  11.267 -0.0956  0.1463  0.0193
26493W        W42967   1.728  17.948  15.747  0.2026  0.0400 -0.1766
26494W        W42968   4.021   8.468  13.373  0.0703  0.1336 -0.0722
26495W        W42969  14.566  10.062  11.825  0.0985 -0.1312 -0.0376
26496W        W42970   0.963  18.295  12.222 -0.1798 -0.2035 -0.1744
26497W        W42971   3.537  10.442  16.123  0.1365  0.1658 -0.0475
26498W        W42972   2.764  16.145   0.270 -0.0673  0.2205  0.0614
26499W        W42973   1.611   9.477   4.467  0.1058  0.0534  0.1444
26500W        W42974   8.685  15.037  15.249  0.0178 -0.2286 -0.0342
26501W        W42975   9.784   0.245   4.961  0.1583  0.3718  0.1266
26502W        W42976  13.944   2.942   0.821  0.2294 -0.2587  0.5246
26503W        W42977  10.924  15.696   3.608 -0.1201  0.0657  0.3275
26504W        W42978   0.006  12.929  15.669 -0.0539 -0.1276  0.1313
26505W        W42979   3.876   6.049   4.889 -0.0332 -0.2207 -0.1991
26506W        W42980  10.707  16.418   1.749  0.5539 -0.0348 -0.0536
26507W        W42981  17.856   0.268   3.024 -0.1977 -0.0150  0.2054
26508W        W42982   6.736  11.634  15.148  0.5364  0.2118 -0.1671
26509W        W42983  13.064  14.260  16.290  0.0330  0.3308  0.2925
26510W        W42984  17.737  10.345  14.664 -0.0562 -0.2584 -0.2069
26511W        W42985   9.056  13.257  11.539 -0.2527 -0.2778  0.0311
26512W        W42986  14.368   3.304  11.319  0.0726  0.1429 -0.2702
26513W        W42987  11.711   8.645  13.047 -0.1909  0.1418 -0.2943
26514W        W42988   3.915   8.314   5.803  0.2187 -0.1719 -0.0112
26515W        W42989  13.230   7.163   5.594 -0.1680 -0.1803  0.2030
26516W        W42990  16.103   9.863   1.660 -0.0068  0.1767 -0.1829
26517W        W42991   8.950   2.918   2.254 -0.3928 -0.1750  0.2042
26518W        W42992   2.206   3.071  16.001  0.2520 -0.3280 -0.2303
26519W        W42993   8.259  12.464   2.818  0.1341 -0.0450  0.2303
26520W        W42994   0.261  14.249  15.158  0.2180 -0.2039 -0.2839
26521W        W42995  10.577   1.771   3.339  0.3011  0.2381  0.2270
26522W        W42996  15.209   7.064   3.887  0.0384  0.0319 -0.2130
26523W        W42997   3.490   0.788  13.153  0.3041 -0.0590  0.1067
26524W        W42998   3.248   8.723   0.281  0.1578  0.1997  0.0734
26525W        W42999  12.804   1.453   6.133 -0.0441 -0.1818  0.2220
26526W        W43000   0.442  18.160  14.933  0.0897  0.2518  0.1167
26527W        W43001  10.018   8.638   2.560  0.1389 -0.1955 -0.0190
26528W        W43002   8.447   9.164  15.313  0.0003 -0.1448 -0.2527
26529W        W43003   2.598  12.207  14.855 -0.0576  0.3403  0.1089
26530W        W43004  15.048  13.116   3.937  0.4390  0.1031 -0.1096
26531W        W43005   5.669  16.759   1.869 -0.3858  0.3042  0.0897
26532W        W43006  15.524   0.638   3.086  0.1643 -0.0447  0.1069
26533W        W43007   6.685   7.899  14.544 -0.0705  0.0059  0.2858
26534W        W43008   9.887   2.742   0.065  0.3471 -0.3614  0.0912
26535W        W43009  16.285  12.134   2.417 -0.0174  0.0537 -0.2972
26536W        W43010  13.151  14.239  11.216  0.0918 -0.3883 -0.0290
26537W        W43011   0.461  18.165  13.979 -0.1589 -0.0876  0.0599
26538W        W43012   6.520   0.889   4.120 -0.0426 -0.0464  0.0921
26539W        W43013   5.806   6.151   1.333  0.1584  0.1734 -0.0346
26540W        W43014   8.780  11.247  12.716  0.0203 -0.3344  0.1859
26541W        W43015  13.920   9.321  12.140 -0.1522  0.3961  0.0659
26542W        W43016   2.201   2.501  14.668  0.0955 -0.0199  0.0387
26543W        W43017   9.018  14.445   5.263  0.0406  0.0370  0.0003
26544W        W43018   7.768  14.422   2.421  0.1234 -0.4747 -0.1796
26545W        W43019  15.540  11.631   4.604  0.0006  0.0001 -0.2011
26546W        W43020   2.735  18.283  14.838  0.0632  0.1602 -0.0552
26547W        W43021   8.526  16.967  13.069  0.1463 -0.1019  0.1073
26548W        W43022  17.233   0.918   1.758 -0.2257 -0.1483 -0.2856
26549W        W43023  10.038   5.822  13.494 -0.0798  0.1214 -0.4089
26550W        W43024  17.021  10.792  14.278  0.1613 -0.0057 -0.0631
26551W        W43025   0.664   3.762   0.768 -0.1039  0.2106 -0.1433
26552W        W43026   9.136  16.021   3.650 -0.0821  0.1983  0.2700
26553W        W43027  10.614   9.387   0.266 -0.1566 -0.0929 -0.3029
26554W        W43028   7.946  17.364   3.060 -0.1800  0.5316  0.1061
26555W        W43029   0.313  14.242   6.166 -0.0709 -0.0174  0.3198
26556W        W43030  11.570   3.982   5.675 -0.0161 -0.0391  0.3985
26557W        W43031  10.768   1.612  15.703  0.0205  0.0406  0.2772
26558W        W43032   9.085  12.369   1.060 -0.0756  0.1217 -0.1431
26559W        W43033  14.773  18.028   3.130 -0.2211 -0.1470  0.1249
26560W        W43034  16.496   7.093  12.092 -0.3303 -0.2179  0.0924
26561W        W43035   0.841  11.254   1.557 -0.0068 -0.4080 -0.0729
26562W        W43036   3.911  11.813  14.743 -0.0219 -0.1405 -0.1195
26563W        W43037   1.618  11.864   5.345 -0.2399  0.0507 -0.3174
26564W        W43038   0.462  15.722   3.936  0.0091 -0.0323  0.1977
26565W        W43039  12.728  11.636  14.672  0.1369 -0.1673  0.0715
26566W        W43040   5.410  13.352  11.575  0.2700  0.0773  0.1772
26567W        W43041   8.326   3.145   4.189  0.0434 -0.1465 -0.0348
26568W        W43042  17.970  10.247   0.428 -0.1576 -0.1192 -0.0542
26569W        W43043  13.816   2.941  14.431  0.0150 -0.1894  0.2544
26570W        W43044   5.613   7.998   3.557 -0.2950 -0.1052  0.2244
26571W        W43045   7.941  11.196   0.423  0.2405 -0.0432  0.0076
26572W        W43046   1.120   5.460   1.670 -0.0452  0.1499 -0.2511
26573W        W43047  11.886  13.739   5.672  0.1878 -0.1243  0.3984
26574W        W43048   8.027   6.227   6.175  0.4889 -0.1340 -0.0962
26575W        W43049  17.902   0.874   4.733 -0.2325  0.2891  0.0907
26576W        W43050  13.311   1.273  12.906 -0.0578  0.2402  0.2054
26577W        W43051   6.127  16.990  15.247  0.0197 -0.0003 -0.1347
26578W        W43052  14.186   8.695   2.556 -0.0500 -0.2158  0.1968
26579W        W43053   6.673   0.473   0.056 -0.0982  0.0784  0.2182
26580W        W43054  14.906  15.902   0.257  0.2354 -0.1527 -0.0025
26581W        W43055   2.561   8.058   0.946 -0.0418 -0.2774  0.0967
26582W        W43056  13.459   7.319  15.541 -0.3286  0.1434  0.1523
26583W        W43057   8.357  14.993   1.703 -0.1083 -0.3224 -0.2726
26584W        W43058   9.938  11.387   0.940  0.0859 -0.2658  0.1770
26585W        W43059   5.461  10.224   5.401 -0.1100 -0.1498 -0.0952
26586W        W43060  13.994   3.793   5.284  0.1563 -0.3179 -0.0495
26587W        W43061  10.796   1.624  12.054  0.0046  0.1166  0.0536
26588W        W43062   1.143   0.700   0.129  0.0277 -0.1743  0.1256
26589W        W43063  13.270   3.874  12.179  0.2637  0.3254  0.0365
26590W        W43064  15.091   4.451  13.351 -0.0076 -0.4772  0.1462
26591W        W43065   4.344   7.668  13.625  0.1335  0.2949  0.1021
26592W        W43066   0.548   5.068   1.043  0.0622 -0.0602  0.0269
26593W        W43067   3.148   7.474  14.341  0.2417 -0.2588  0.3078
26594W        W43068   7.241  12.590   0.365  0.3096 -0.1878 -0.0039
26595W        W43069  10.203   3.558   4.872  0.2190  0.2460 -0.2428
26596W        W43070   2.656   6.545  15.535 -0.3194  0.0296  0.1403
26597W        W43071  12.893  17.635   1.700 -0.2327 -0.0305  0.0096
26598W        W43072  17.910  15.351   0.245 -0.0493 -0.1109  0.0991
26599W        W43073   3.047   4.909   1.255  0.1608  0.0265 -0.0532
26600W        W43074  11.487  12.804   0.094 -0.0047 -0.0037 -0.0228
26601W        W43075   2.299   8.188   0.185  0.3486  0.2475  0.2513
26602W        W43076   8.538   3.814   1.650  0.2515  0.2209  0.0110
26603W        W43077   6.656  15.728   0.152 -0.1588  0.0778  0.0316
26604W        W43078   3.936   4.002  12.200  0.0557  0.0533  0.0480
26605W        W43079  16.253   2.626   0.813  0.1594  0.1596  0.5582
26606W        W43080   5.936   1.332   5.194  0.1340  0.2582 -0.1240
26607W        W43081   3.517   7.173   3.412  0.0868 -0.3106  0.0062
26608W        W43082  10.784   7.084  13.020 -0.2150 -0.2352  0.2078
26609W        W43083   8.386   1.718  16.181  0.1934  0.0898  0.0299
26610W        W43084  16.914  16.993   2.946 -0.0362 -0.0631 -0.2678
26611W        W43085   4.900   8.305  12.463  0.2758 -0.0470 -0.0003
26612W        W43086  12.512  17.912  12.859 -0.0197 -0.1734  0.2047
26613W        W43087  18.189   7.179  10.554 -0.3384 -0.0553  0.1267
26614W        W43088  14.172  13.669  16.328  0.0564 -0.3820 -0.1386
26615W        W43089  17.796  11.870  13.799 -0.1109 -0.1302  0.0281
26616W        W43090  18.234   7.171   5.695  0.1260  0.0851  0.0742
26617W        W43091  14.076   7.513  11.981  0.1079  0.1171  0.0077
26618W        W43092  14.528  11.120   4.040  0.3791  0.2344 -0.2334
26619W        W43093  12.275  15.205   3.110 -0.0597 -0.1562 -0.0539
26620W        W43094  17.804   6.042  14.174  0.0786 -0.1397  0.1737
26621W        W43095   9.983   1.402  11.394  0.0672 -0.3902  0.2125
26622W        W43096  13.605  14.694  14.237  0.0679  0.0502 -0.1213
26623W        W43097   1.243  12.418  14.441  0.2202 -0.1004 -0.1411
26624W        W43098  10.471  11.467   4.281  0.0609 -0.0681 -0.1575
26625W        W43099   1.136  15.496   3.405 -0.0258  0.1033  0.0605
26626W        W43100   5.983   1.616   2.127  0.2810 -0.0466  0.2517
26627W        W43101   8.173  12.350   4.208  0.1275  0.0943 -0.0261
26628W        W43102   7.161  12.239  15.469 -0.1010 -0.0819 -0.0936
26629W        W43103   0.152   2.498  11.391  0.0031 -0.1747 -0.2054
26630W        W43104  10.904  16.878   0.501 -0.0394  0.3183 -0.1263
26631W        W43105   7.816  10.560  11.452  0.3031 -0.0488 -0.2799
26632W        W43106  16.928   5.706  13.807 -0.0733  0.1315 -0.1238
26633W        W43107  17.729   8.644   5.606 -0.1714 -0.2435  0.1605
26634W        W43108   9.675  13.445  16.215 -0.2714  0.0656 -0.2224
26635W        W43109  16.937  16.503   1.533  0.0882 -0.0905 -0.0129
26636W        W43110   6.820   7.625  15.951 -0.1673  0.2417 -0.3146
26637W        W43111   0.702  16.183  14.190  0.2545  0.3226  0.1234
26638W        W43112  12.507   6.750   0.702  0.1881  0.1806 -0.2613
26639W        W43113  10.421  15.722   4.960 -0.4449 -0.0808 -0.0112
26640W        W43114   3.411   2.304   0.346  0.1207  0.0307  0.2961
26641W        W43115   8.587  17.113  16.077 -0.1276  0.1379 -0.3441
26642W        W43116   4.307   3.205  13.325  0.0081  0.2920  0.1769
26643W        W43117  13.136  13.738  16.087  0.2011  0.1263  0.0323
26644W        W43118   7.951  10.367  13.489 -0.0255  0.0544 -0.0892
26645W        W43119  17.041  17.900  11.406 -0.3292 -0.0182 -0.2720
26646W        W43120  11.290   7.030  12.137  0.3149  0.2164  0.1721
26647W        W43121   0.034  11.341   4.372  0.0402  0.0388 -0.0163
26648W        W43122   2.999   1.116   5.275  0.0601  0.0962 -0.0454
26649W        W43123  16.864   5.807   1.578  0.0507 -0.0255 -0.4472
26650W        W43124  13.910  18.005  14.691 -0.6156 -0.0169 -0.0591
26651W        W43125  16.565   3.235  11.693  0.1448 -0.1404 -0.1133
26652W        W43126  13.843  12.094  14.751  0.1034 -0.1571  0.0744
26653W        W43127  16.530  11.076   5.061  0.1570 -0.1105 -0.2521
26654W        W43128  16.389   8.536   4.935  0.1797  0.0419  0.0549
26655W        W43129  10.057   6.173   5.147 -0.1547 -0.1757 -0.1169
26656W        W43130  12.950   3.164   1.031 -0.3555  0.1716  0.1953
26657W        W43131  12.223  14.968  15.869  0.0107 -0.2064 -0.1173
26658W        W43132   1.549   4.100   4.841 -0.0565 -0.4556 -0.1101
26659W        W43133  15.105  10.832   3.322 -0.3570  0.0717  0.1612
26660W        W43134   3.723  14.775  12.473  0.1479 -0.2032  0.0681
26661W        W43135   2.313  13.314   5.555  0.0811 -0.4992  0.2358
26662W        W43136   2.345   5.639   2.228 -0.2168 -0.3017  0.4542
26663W        W43137  14.510  15.988  12.130  0.0503  0.4172  0.0666
26664W        W43138   9.763   9.540   0.231  0.2160  0.1848  0.3405
26665W        W43139  11.361   0.173   1.237  0.2087 -0.2066 -0.0764
26666W        W43140  16.197  17.831  13.425 -0.0187  0.1150 -0.0813
26667W        W43141  12.325  11.515   2.777 -0.2306 -0.0307  0.2535
26668W        W43142   8.466   0.958   1.325  0.0997 -0.0346  0.2129
26669W        W43143   5.696  10.504   2.290 -0.0485  0.1138 -0.0568
26670W        W43144   7.617   2.003  12.857  0.2210  0.2425 -0.0427
26671W        W43145   3.489  12.301  16.084  0.0007 -0.0664  0.1170
26672W        W43146   0.777   3.019  12.446 -0.0395 -0.0528  0.1517
26673W        W43147  14.617   8.416  15.126  0.1924 -0.1216  0.0501
26674W        W43148   3.003   1.617  12.019  0.1021 -0.2723  0.1205
26675W        W43149  15.521   4.456   2.211 -0.3222  0.1641  0.0387
26676W        W43150   3.527  17.099  14.961  0.3816 -0.2070 -0.0236
26677W        W43151  12.244   1.289   5.594 -0.0657  0.1760 -0.0073
26678W        W43152  10.413   5.612   0.489  0.2266  0.0931 -0.5539
26679W        W43153  12.394   3.303  15.381  0.2776 -0.3437 -0.1821
26680W        W43154   2.880   8.122  14.798  0.0839 -0.1722  0.2842
26681W        W43155  12.633  14.322   0.108  0.1190  0.1562 -0.1866
26682W        W43156  15.060  18.178  15.576  0.3402 -0.1428  0.0250
26683W        W43157  14.583   1.337  12.079  0.1192  0.0518 -0.0439
26684W        W43158  17.441   7.675  15.947 -0.1542 -0.0702  0.0944
26685W        W43159  11.651   1.810   1.775 -0.0149 -0.0329  0.1320
26686W        W43160  14.986   5.235  15.537 -0.3038 -0.0955 -0.2900
26687W        W43161   3.378  11.630  12.032  0.2545  0.0894 -0.1068
26688W        W43162  15.711  17.570   5.086 -0.2049 -0.1931  0.1303
26689W        W43163   8.288   6.553  11.956  0.0739 -0.0907 -0.2307
26690W        W43164  16.320  10.247   0.812 -0.2330 -0.0320  0.0243
26691W        W43165   4.238  14.773   3.293  0.2639 -0.2936  0.3094
26692W        W43166   3.925   8.623   3.340 -0.3492  0.1890 -0.4469
26693W        W43167  16.574  15.404   3.984 -0.3031  0.1443  0.3183
26694W        W43168   8.865   7.796  14.131  0.4701 -0.0077 -0.0702
26695W        W43169   2.288   8.608  14.944 -0.0748  0.0933  0.0381
26696W        W43170   6.846  11.846  13.414 -0.1209  0.1743 -0.0531
26697W        W43171   2.643  15.913  14.809 -0.1449  0.1031  0.4175
26698W        W43172  12.491   2.979  11.127 -0.0627  0.2408 -0.0947
26699W        W43173   9.005  14.817  15.888 -0.0980  0.0750 -0.2031
26700W        W43174   3.945   1.649   4.981  0.2428 -0.2362 -0.1739
26701W        W43175   1.358   0.256  12.497  0.3188  0.1568  0.2092
26702W        W43176  15.892  18.062  14.379  0.0093  0.1059  0.0850
26703W        W43177   9.824   5.229  13.019 -0.0629  0.1417  0.1869
26704W        W43178  13.433  10.544  15.494 -0.1855  0.0694  0.0479
26705W        W43179   4.035  11.131  12.394 -0.0710  0.0029 -0.2109
26706W        W43180  10.092   4.157  12.639 -0.1275 -0.0492 -0.1240
26707W        W43181   9.238  14.230  14.993  0.1864 -0.0640  0.1656
26708W        W43182   7.767  14.749  15.578  0.0036  0.0395  0.1493
26709W        W43183   8.518  15.282   3.497  0.0043  0.0706  0.0342
26710W        W43184  11.998  13.841  14.605 -0.0040  0.1225  0.2585
26711W        W43185   0.309   0.014   3.124  0.2015  0.0068 -0.0905
26712W        W43186  12.507   3.779  14.146  0.4590  0.1496  0.2128
26713W        W43187  17.028  15.411   2.092 -0.1302 -0.1289 -0.2038
26714W        W43188   1.974  12.348   3.023  0.1259 -0.2143 -0.0664
26715W        W43189   2.469   2.022   0.231 -0.2840  0.0387  0.0032
26716W        W43190   6.991   0.450  11.655 -0.1191 -0.1058  0.2445
26717W        W43191  11.499  11.915  12.475  0.2575  0.4625 -0.0745
26718W        W43192  17.676  14.942  14.858 -0.0161  0.3735 -0.0151
26719W        W43193  15.447   0.090  13.709 -0.0353  0.1327  0.0367
26720W        W43194   6.435   7.152  13.855 -0.0416 -0.0810  0.1277
26721W        W43195   1.630   3.418   2.571  0.1493 -0.1737  0.0581
26722W        W43196   4.029  18.049  13.685  0.4541  0.1413 -0.2644
26723W        W43197   2.298   8.266   1.317  0.0428 -0.2657 -0.0409
26724W        W43198  14.052   3.334   5.142  0.0281 -0.1079  0.0836
26725W        W43199   7.852  10.182   5.211  0.0771 -0.2022 -0.0308
26726W        W43200  17.470  12.556  13.754  0.0081 -0.1351  0.0301
26727W        W43201  12.841   9.695   2.785  0.0354 -0.1167 -0.1799
26728W        W43202   0.837   3.664  11.323 -0.2093 -0.0245  0.2123
26729W        W43203   6.867   7.103   3.825  0.0253 -0.2404  0.0555
26730W        W43204   8.687   6.843  16.121 -0.1751  0.2016 -0.1117
26731W        W43205   9.965   9.453  12.278 -0.7017 -0.2758 -0.4809
26732W        W43206  14.501  17.964  12.830  0.0719 -0.1994  0.0212
26733W        W43207   2.808   6.988  15.077 -0.0764 -0.2171  0.1863
26734W        W43208  16.432   4.332  10.948 -0.0344 -0.0547  0.2334
26735W        W43209  12.285   9.055   0.936  0.1445  0.0238 -0.1005
26736W        W43210   5.834   8.301   5.788 -0.2248 -0.0535  0.0501
26737W        W43211   4.900   4.386  14.115  0.0637 -0.0306  0.0592
26738W        W43212   6.812  10.870   1.473 -0.1915  0.0181  0.1269
26739W        W43213   4.771   1.820   4.073  0.2571  0.0886 -0.3533
26740W        W43214   0.720  13.666   1.889 -0.1253  0.4695  0.3809
26741W        W43215   2.868   9.226  16.037  0.0475 -0.0243 -0.0330
26742W        W43216  11.485   6.943   3.949 -0.2450 -0.2348  0.0622
26743W        W43217  14.426   8.827   0.256 -0.0219  0.1170  0.2763
26744W        W43218   3.717  13.586  12.943 -0.0004  0.0473  0.1356
26745W        W43219   1.268   2.145  15.322  0.0325  0.1231 -0.4343
26746W        W43220   9.043  14.794   1.311  0.1259 -0.2025 -0.0624
26747W        W43221  11.415   0.865   4.585  0.2325  0.2882 -0.1281
26748W        W43222  16.896   7.660  12.928 -0.0782  0.0985 -0.0126
26749W        W43223  12.605  12.486  12.675  0.0990 -0.0251 -0.1615
26750W        W43224   9.469   6.725  13.965 -0.1995 -0.4057  0.1417
26751W        W43225  14.981  10.836   1.261  0.0514 -0.0550  0.0777
26752W        W43226  11.590   5.197   3.648 -0.1152 -0.3720 -0.0307
26753W        W43227  15.858   6.832   2.100 -0.2736  0.0719 -0.0321
26754W        W43228   8.509   1.257   4.519 -0.0834  0.1843 -0.0271
26755W        W43229  13.458   8.100  16.052 -0.2615 -0.0940  0.1925
26756W        W43230   9.381   5.733  16.270  0.3210  0.2086 -0.1729
26757W        W43231   9.076   4.617   3.064 -0.1482 -0.2532  0.2070
26758W        W43232  10.886   8.793   1.411  0.1865  0.1050 -0.2022
26759W        W43233   9.923   0.327  13.734  0.2565  0.1923 -0.1582
26760W        W43234   1.131   2.554   3.402  0.0055 -0.0411 -0.0583
26761W        W43235  14.321  17.922  11.241  0.1236 -0.4046  0.1222
26762W        W43236   3.697  10.733   1.371  0.0882  0.1914  0.0890
26763W        W43237   7.064  15.165  15.978 -0.0362  0.0785  0.2491
26764W        W43238   3.588  10.459  12.167  0.1626  0.0810 -0.1348
26765W        W43239   4.804  15.268   4.767 -0.0590  0.1551  0.1796
26766W        W43240   9.305  14.470  16.162 -0.0469 -0.0271  0.1322
26767W        W43241  16.515   2.611   3.921 -0.0034 -0.0508 -0.1298
26768W        W43242  11.152   2.656   5.174  0.0744  0.0279  0.2896
26769W        W43243  17.669   2.923  15.667  0.1653 -0.0494 -0.2051
26770W        W43244  17.239  12.282   5.561 -0.1020 -0.2550 -0.2196
26771W        W43245   9.992   1.604   1.987 -0.0400 -0.2078  0.1781
26772W        W43246  18.296  13.626  16.139  0.2247 -0.1498  0.1450
26773W        W43247   7.781  16.030  12.521  0.2236  0.0644 -0.1167
26774W        W43248   4.695  12.511   1.778 -0.0308 -0.3259  0.0201
26775W        W43249  10.877   6.687   0.196 -0.1532  0.1103  0.0361
26776W        W43250   6.241   5.584   3.652 -0.2367 -0.1252 -0.0399
26777W        W43251   8.797  10.602  13.329  0.1787 -0.1060 -0.2629
26778W        W43252  10.621   0.781   4.714 -0.6351 -0.0444  0.5053
26779W        W43253   1.177  10.255   1.377 -0.0627 -0.1403  0.2443
26780W        W43254  13.779   0.787  15.587 -0.0170  0.1291  0.0927
26781W        W43255  11.131  10.419   0.767 -0.1598 -0.0504 -0.0700
26782W        W43256   1.412  12.701  15.273 -0.3497  0.2833 -0.2196
26783W        W43257   8.671  11.233   3.771 -0.0482  0.4188  0.0527
26784W        W43258  14.400   3.321   2.473 -0.2766 -0.2978 -0.3264
26785W        W43259  16.813   1.171   4.263 -0.3290 -0.0908 -0.3066
26786W        W43260  10.960  17.563  12.804  0.0389  0.0583  0.2058
26787W        W43261  15.476  12.726  10.380  0.0867 -0.1673 -0.3812
26788W        W43262  17.705   8.147   5.846  0.2335  0.1538  0.0013
26789W        W43263   2.382  11.011  14.435 -0.0854 -0.2310  0.2070
26790W        W43264   6.030   4.768   2.582 -0.4349  0.1387 -0.1037
26791W        W43265  10.893  16.907   5.119 -0.0863  0.1740 -0.1898
26792W        W43266  17.626   9.592   1.261 -0.4643  0.0863  0.0160
26793W        W43267  11.952  16.721   2.947 -0.2285  0.0533 -0.0385
26794W        W43268   9.362  17.609   4.547  0.0239 -0.0123 -0.1301
26795W        W43269   1.850  10.325  15.507  0.2935 -0.0114 -0.2770
26796W        W43270  10.787  15.849   0.327 -0.0652 -0.1873 -0.2052
26797W        W43271   9.710  10.856   3.902  0.1509 -0.1207 -0.0966
26798W        W43272  12.659   4.366   2.880 -0.3039 -0.0540 -0.1306
26799W        W43273  12.253  14.929   6.167 -0.0561 -0.0692 -0.0414
26800W        W43274  13.752  16.330   3.322  0.0164 -0.1245 -0.1878
26801W        W43275  10.454   7.702   6.526  0.0997 -0.1893 -0.1134
26802W        W43276  11.985   6.365  12.696 -0.0842  0.3059  0.1835
26803W        W43277  17.781  15.513  13.186 -0.5203  0.1131  0.2177
26804W        W43278   0.878   5.950   2.637  0.2109  0.0022 -0.0428
26805W        W43279   3.121  10.687   3.489 -0.2243 -0.2451  0.0997
26806W        W43280   5.693  10.871   4.815  0.0990  0.2840  0.3482
26807W        W43281   1.952   4.654  13.308  0.0475  0.3226  0.0127
26808W        W43282   1.311  15.475  12.191 -0.4168  0.0272  0.0411
26809W        W43283   7.340   6.219  12.775  0.1348  0.1239 -0.0526
26810W        W43284   0.871   4.195  12.815  0.3354 -0.1908 -0.0414
26811W        W43285   4.463   1.574   5.002 -0.2031 -0.2250 -0.2077
26812W        W43286   9.821   2.061  14.669 -0.2851  0.0797 -0.2928
26813W        W43287   5.611   3.067   4.378  0.0150  0.0159  0.0376
26814W        W43288  10.034  12.685   0.532  0.1620 -0.1730 -0.4142
26815W        W43289   2.194  13.615  11.547  0.4288  0.2313 -0.2057
26816W        W43290  11.523  14.232  13.964  0.3447  0.0566 -0.0360
26817W        W43291  10.282  13.966   4.758  0.1272 -0.2755 -0.0186
26818W        W43292   4.912  11.424   0.604 -0.0176 -0.0127 -0.1563
26819W        W43293  15.404   1.955  15.346  0.1488 -0.2207 -0.1992
26820W        W43294   1.525  12.799  14.272  0.0332  0.0341 -0.1167
26821W        W43295   1.493  10.287  13.600 -0.0458  0.1415 -0.0107
26822W        W43296  10.131   3.371  15.375  0.0087 -0.1386  0.0150
26823W        W43297  13.003  18.328  15.896 -0.0948  0.0982  0.0619
26824W        W43298   9.242   6.882  14.443  0.1655 -0.0212  0.0907
26825W        W43299   0.234   3.331  12.979  0.2978 -0.0259 -0.1558
26826W        W43300   4.401   3.141   1.512 -0.1271 -0.2059  0.1460
26827W        W43301   2.039   4.432   5.244  0.1439  0.0730 -0.3124
26828W        W43302   7.204   3.471   1.559  0.2570  0.1231 -0.1560
26829W        W43303  17.277  13.910   0.532  0.0245  0.1649  0.0361
26830W        W43304  16.657  11.209   2.709  0.3366  0.0894  0.0256
26831W        W43305   0.281   7.920  13.573 -0.0609  0.1351 -0.0609
26832W        W43306   7.526   6.249   4.387 -0.0150  0.0796  0.1203
26833W        W43307   6.452  13.767   5.618  0.0959  0.0994 -0.1319
26834W        W43308  12.508   8.042  12.857 -0.2755 -0.1132  0.2482
26835W        W43309  11.885  13.738  15.065  0.1546 -0.0746 -0.0938
26836W        W43310  17.483   3.503   3.007 -0.1971 -0.1459  0.1215
26837W        W43311   8.906   7.764   3.466  0.1790  0.0125 -0.1787
26838W        W43312   9.234   1.756   2.332 -0.1467 -0.3410  0.2370
26839W        W43313   7.877  18.035   3.034 -0.0130 -0.0071  0.2519
26840W        W43314  15.199  18.307  14.174  0.0688 -0.0297  0.2180
26841W        W43315   9.997   9.311  13.552 -0.1377  0.0100  0.2007
26842W        W43316   7.268   3.455  14.800 -0.1634 -0.2652 -0.3674
26843W        W43317   4.512  13.964   2.160 -0.2398  0.2841 -0.1105
26844W        W43318   7.077   7.883  13.749 -0.2564  0.1759  0.0971
26845W        W43319  16.721  12.718  15.182 -0.1842 -0.1529 -0.2147
26846W        W43320   1.999   9.775   6.147  0.2389 -0.3958 -0.1938
26847W        W43321   2.769  14.948   1.682  0.0642  0.0233 -0.0416
26848W        W43322  12.149   3.749  15.030  0.0965  0.0727 -0.1085
26849W        W43323   9.376   9.905  11.948  0.2731  0.0156  0.0320
26850W        W43324   8.288  13.057  13.974  0.1316  0.1563 -0.3923
26851W        W43325  13.383   9.048   2.681  0.1874  0.2754 -0.2661
26852W        W43326   1.842   0.666   3.248 -0.0287  0.1311 -0.2715
26853W        W43327   7.221  13.704   5.213 -0.1533  0.3146  0.3348
26854W        W43328   2.114   5.716  12.812  0.1223 -0.3218 -0.0892
26855W        W43329  16.834   2.959  15.743 -0.1263  0.1308 -0.1840
26856W        W43330   6.345   0.065  13.318  0.0182  0.2162 -0.0609
26857W        W43331  18.206   4.049  11.741  0.2248 -0.2030 -0.1207
26858W        W43332   6.835   6.903   1.741 -0.2324  0.2208 -0.1332
26859W        W43333   2.609   2.873   3.859  0.1260 -0.0755  0.1414
26860W        W43334   6.304  17.393   5.585 -0.0235  0.0299 -0.2943
26861W        W43335  16.727  10.642   0.376 -0.3048  0.0120 -0.4104
26862W        W43336  14.779  13.665   0.689  0.1058  0.1351 -0.1229
26863W        W43337  10.829  11.940  11.627 -0.1315 -0.1117 -0.0166
26864W        W43338  16.022   2.334   3.158  0.1026 -0.0805 -0.0667
26865W        W43339   1.047  13.250  11.379  0.0836 -0.2745 -0.0187
26866W        W43340   5.009  11.799  15.475  0.1131  0.1632 -0.0386
26867W        W43341   0.748  11.334   4.621 -0.1128 -0.0128 -0.0788
26868W        W43342  16.160  11.745   1.212  0.1461  0.1380  0.3030
26869W        W43343   1.348  14.919  15.245 -0.0345 -0.0202  0.2434
26870W        W43344  17.081   6.648   4.579 -0.2871 -0.0108 -0.0186
26871W        W43345  10.451   1.767  16.226 -0.4124  0.1395 -0.0685
26872W        W43346  12.032  11.947   0.133 -0.0666 -0.0727  0.0191
26873W        W43347   8.221  15.796   1.448 -0.2720 -0.2201 -0.0672
26874W        W43348  11.169   8.566   5.457 -0.0590  0.0572 -0.0130
26875W        W43349  13.052   9.438  13.939 -0.1533  0.1371  0.2676
26876W        W43350   8.965  16.290   3.254 -0.3057  0.3226 -0.2408
26877W        W43351   1.230  11.410   2.312  0.1233  0.3373  0.0529
26878W        W43352  16.276  13.008   2.771  0.2009 -0.3034  0.3145
26879W        W43353   9.940   0.530  11.674 -0.0979  0.1689 -0.1687
26880W        W43354   7.855  16.779  16.305 -0.0241 -0.3647 -0.1295
26881W        W43355   5.874   1.404   2.629 -0.0596  0.1575  0.1320
26882W        W43356   5.763  16.257  13.422  0.1107 -0.1045  0.0318
26883W        W43357  11.008  15.299  16.032  0.0516  0.1919  0.0091
26884W        W43358  15.429   2.902   6.007 -0.1682 -0.0978 -0.2564
26885W        W43359   6.432  18.072   4.828 -0.0995  0.0420 -0.2344
26886W        W43360   9.598   2.826  11.560  0.0830 -0.0376  0.0812
26887W        W43361   8.727  17.347   2.317  0.1349  0.1650  0.0906
26888W        W43362   9.771  12.579  11.165  0.0711  0.2319  0.2663
26889W        W43363   5.212   3.544   2.581  0.0177  0.1330  0.0162
26890W        W43364  13.096  15.989   5.220  0.4341 -0.1772 -0.0212
26891W        W43365   7.237   5.466   3.336  0.0978  0.0202  0.0966
26892W        W43366   8.542   6.435   3.953  0.3166 -0.2635 -0.2728
26893W        W43367  17.073  12.992   1.547 -0.0177 -0.3025 -0.1918
26894W        W43368   9.982  13.493   1.079 -0.2358  0.2354  0.0486
26895W        W43369  11.200   1.964   2.433 -0.0412  0.0565  0.2409
26896W        W43370   4.018  10.019   4.459  0.0132  0.0003  0.0717
26897W        W43371   1.896   7.554  16.042 -0.0457  0.0987  0.0960
26898W        W43372  10.941   3.757   1.992 -0.0967  0.2232  0.0076
26899W        W43373   1.091   2.325  11.169  0.1728 -0.0933 -0.0400
26900W        W43374   2.965  11.643  13.937 -0.3102  0.1761 -0.0156
26901W        W43375  10.630   6.552   1.417  0.0968 -0.1526  0.2007
26902W        W43376   0.832  17.278   3.511 -0.1247  0.4185  0.2345
26903W        W43377  10.226  11.855   4.034 -0.1343  0.0671 -0.1976
26904W        W43378   3.318   0.091   1.408  0.0394  0.0687  0.0451
26905W        W43379   1.783  14.011  12.100  0.0159 -0.2324  0.0259
26906W        W43380   0.991  13.327   0.382  0.0248  0.1334 -0.0924
26907W        W43381   5.683   9.539  15.139  0.0584  0.2900  0.0766
26908W        W43382  10.460   9.017   1.699  0.2199  0.2643  0.0338
26909W        W43383  14.922  11.616  12.276  0.0045  0.3079 -0.1058
26910W        W43384  14.035   4.760   0.152 -0.3593 -0.1513 -0.1180
26911W        W43385   4.319   7.157  12.965  0.1167 -0.1570  0.0260
26912W        W43386   4.327   5.117   5.459 -0.2255 -0.2228  0.0584
26913W        W43387  10.407   8.691  12.497  0.0768  0.2194  0.2283
26914W        W43388   2.804  16.446   4.616  0.3713 -0.2326 -0.0213
26915W        W43389  17.940   0.787  12.081  0.1661  0.2082  0.0610
26916W        W43390  12.604  11.350  16.024  0.2544  0.0034 -0.1471
26917W        W43391   4.891   6.818   5.476 -0.0881 -0.0745  0.4198
26918W        W43392  11.234  14.475  14.850 -0.1572 -0.2793 -0.0421
26919W        W43393  13.494   6.004   1.820 -0.2013  0.1589 -0.1970
26920W        W43394   3.882  15.280   5.310 -0.0033 -0.1368  0.1773
26921W        W43395   2.436  18.158  12.780 -0.0764 -0.0962 -0.3419
26922W        W43396  18.072  14.530   4.367  0.2006  0.0519  0.1866
26923W        W43397  15.374   4.161  15.527 -0.3065  0.0626 -0.3814
26924W        W43398  14.228  10.749  15.780  0.2087  0.0670 -0.1947
26925W        W43399  10.504   4.819  13.488 -0.0701  0.0612  0.2273
26926W        W43400  15.705  16.143   3.182  0.0202  0.0159 -0.0546
26927W        W43401   2.818   1.466  13.107 -0.2714 -0.0358 -0.0427
26928W        W43402   3.595   4.854  15.355  0.3673  0.1064  0.3220
26929W        W43403  15.489  12.430   0.289 -0.1222  0.0543 -0.1273
26930W        W43404   6.535   1.625   1.964 -0.1843  0.2563 -0.0036
26931W        W43405  14.201   6.473   2.496  0.0465 -0.1471 -0.0403
26932W        W43406  10.367  17.422   3.158  0.0529 -0.0825  0.1801
26933W        W43407   3.590   1.806   1.466  0.2168  0.0801 -0.5137
26934W        W43408   6.988  15.902   6.062 -0.1305  0.0183  0.4379
26935W        W43409   7.277   5.193  12.353 -0.0877  0.1846  0.1012
26936W        W43410  17.855   7.622  13.762 -0.1347 -0.3020 -0.2370
26937W        W43411   1.490   1.328  14.822  0.0453  0.1094  0.1377
26938W        W43412   4.117   7.723  14.560  0.0976 -0.0464  0.2412
26939W        W43413   6.401  14.115   5.045 -0.2665  0.2023  0.1137
26940W        W43414  11.500  15.636   0.469 -0.0381 -0.2180  0.0428
26941W        W43415   0.883   5.150   2.004 -0.4880  0.1574  0.0527
26942W        W43416   4.447  12.627   5.230  0.2085 -0.2839 -0.0933
26943W        W43417  16.026   3.462  12.837 -0.1719 -0.1501 -0.0311
26944W        W43418  11.301  11.057   4.717  0.0402 -0.3737 -0.2684
26945W        W43419  12.476   9.135  16.017 -0.4409  0.0781  0.2840
26946W        W43420   6.312  13.168  12.717  0.1002  0.2340 -0.1380
26947W        W43421  10.981   2.307   4.866 -0.3467 -0.4235 -0.1497
26948W        W43422  17.978  14.523  13.780 -0.0011  0.1712 -0.1447
26949W        W43423  17.257  17.459  14.036 -0.1381 -0.2568 -0.0566
26950W        W43424   2.787   8.800   1.961 -0.0584  0.1908  0.2004
26951W        W43425   4.375  13.511   2.336  0.0924 -0.0474  0.1283
26952W        W43426  15.445   2.671   0.592  0.2449 -0.1163  0.0010
26953W        W43427   9.111  17.791   0.930 -0.1676 -0.0909  0.1685
26954W        W43428   7.793   3.412  12.078 -0.3688  0.0245 -0.0880
26955W        W43429   3.799   8.144  15.269 -0.0419  0.0972 -0.1861
26956W        W43430  16.346   9.512   4.421 -0.0445 -0.3575  0.1306
26957W        W43431   8.211  12.959   4.612  0.0022  0.4401  0.3937
26958W        W43432   8.305  16.167   5.031 -0.1631 -0.0094 -0.1519
26959W        W43433   2.689   6.990  12.635  0.0467 -0.1168 -0.0133
26960W        W43434   4.441   1.091  15.727 -0.0876  0.0285  0.0358
26961W        W43435  10.160  12.613  11.693  0.1941 -0.1548 -0.2443
26962W        W43436   1.184  10.309   4.294  0.0007 -0.0305 -0.1573
26963W        W43437   2.524  10.942   3.573  0.0080 -0.2672 -0.5482
26964W        W43438   9.984  11.121  16.217  0.0087 -0.0597 -0.3236
26965W        W43439  11.866  15.687  16.003 -0.0815 -0.1408  0.1618
26966W        W43440   1.086   0.756   1.555 -0.0186 -0.1624  0.0145
26967W        W43441  13.914  14.345   5.630  0.1718  0.2355  0.1939
26968W        W43442  17.878   2.114   4.562 -0.3368 -0.2312  0.1206
26969W        W43443  10.072   7.462   0.627  0.1291  0.4937  0.1260
26970W        W43444  12.808   1.421   1.213  0.0719 -0.1069  0.2519
26971W        W43445   4.962  11.172   5.141 -0.0478 -0.1558  0.0658
26972W        W43446   6.009   0.149   5.183 -0.2467  0.2560 -0.0866
26973W        W43447   5.683  15.745   5.492 -0.1117  0.2686  0.1057
26974W        W43448  12.255   5.135   1.092  0.0811  0.2737  0.0181
26975W        W43449   7.199   6.768  14.975  0.0657  0.1402  0.0703
26976W        W43450   8.438  16.535   1.849 -0.0062  0.0552 -0.0751
26977W        W43451  18.001   7.594   3.690 -0.3234  0.2444 -0.2818
26978W        W43452  15.236   3.699  11.377 -0.0871  0.0511 -0.1750
26979W        W43453   5.465  14.281   3.383 -0.1526 -0.3910 -0.0298
26980W        W43454  11.630   5.232   4.425  0.1831  0.3169  0.0958
26981W        W43455  17.733   4.488   2.068 -0.1470  0.1125  0.0565
26982W        W43456  11.947   1.731   0.722 -0.1377  0.0694 -0.1874
26983W        W43457   9.102  15.595   1.927  0.0244  0.0074 -0.0774
26984W        W43458  16.534  16.671   5.045  0.0100 -0.0037  0.3744
26985W        W43459   6.095   4.078  15.598  0.2321  0.2045  0.0930
26986W        W43460  15.611  18.211  12.773  0.1059 -0.2131 -0.1615
26987W        W43461  14.989   3.249  11.987 -0.0714 -0.0248  0.2379
26988W        W43462  10.016  17.339  13.738  0.2470  0.2473 -0.0490
26989W        W43463   7.012   1.626   1.824 -0.2200  0.0181  0.0208
26990W        W43464   3.696   6.247   1.447 -0.0202 -0.0262  0.1263
26991W        W43465  16.692   9.490   0.769  0.0544 -0.1966 -0.1983
26992W        W43466  13.883   3.251  11.062 -0.1736  0.1606 -0.2178
26993W        W43467   7.327  10.913  14.864  0.0258  0.1025 -0.0344
26994W        W43468  10.846  17.661  13.710 -0.0623  0.0270  0.0709
26995W        W43469   7.146   2.964  14.766  0.0157 -0.2335  0.1452
26996W        W43470  16.614   4.273   4.097 -0.0670  0.1596 -0.1860
26997W        W43471  18.174  16.716  14.234 -0.1651 -0.4347 -0.4020
26998W        W43472   0.327   6.514   4.332 -0.2010  0.0525  0.0883
26999W        W43473   3.195   1.543  11.519 -0.1734 -0.2045  0.0749
27000W        W43474  15.104   1.481  11.210 -0.1890 -0.1739 -0.1326
27001W        W43475  17.150  10.423   3.759  0.1208  0.0534  0.1979
27002W        W43476   3.188   4.040   5.211 -0.1695 -0.0681 -0.1508
27003W        W43477   0.359   9.160  16.176  0.0952 -0.1522 -0.2121
27004W        W43478  11.591  17.921   5.305 -0.2699 -0.2005 -0.1008
27005W        W43479   6.030  17.978   5.097  0.2372 -0.0845  0.2162
27006W        W43480  15.466   3.375  13.488 -0.1370  0.1001 -0.2335
27007W        W43481   2.598  14.268  12.502 -0.1560 -0.0506  0.1090
27008W        W43482   4.564  16.055   3.656 -0.4566 -0.3689 -0.0859
27009W        W43483  16.504   2.590  13.337  0.1038  0.3258 -0.0115
27010W        W43484   5.362  10.150  12.030 -0.2151  0.0361  0.2693
27011W        W43485   4.694   2.435  16.309  0.1108  0.2082  0.0661
27012W        W43486  11.122   5.976   0.747 -0.0913 -0.0817  0.0708
27013W        W43487  16.171   7.145  12.927 -0.1852 -0.0465 -0.0868
27014W        W43488  15.148  18.165   1.241  0.0529  0.0389  0.2695
27015W        W43489   9.940  16.116  14.608  0.1313 -0.0955  0.0321
27016W        W43490  11.120  16.726  16.321 -0.1677 -0.0395 -0.0975
27017W        W43491   8.979  12.728   4.099  0.0107  0.2946  0.1405
27018W        W43492   0.088   6.151  13.506  0.0656  0.0214 -0.0666
27019W        W43493  13.783  13.302   0.723  0.2059 -0.1884 -0.2261
27020W        W43494  17.970   3.519  14.889 -0.1188 -0.0859  0.2260
27021W        W43495   4.822   5.784   0.413 -0.3526  0.0185  0.0710
27022W        W43496   7.689   9.685  15.648 -0.1598  0.2670  0.1428
27023W        W43497   2.930   9.417   1.909  0.0580  0.1143  0.1019
27024W        W43498  13.753  11.630   1.414 -0.2795 -0.0075  0.0725
27025W        W43499  13.913   1.901  12.717  0.1946  0.1545  0.0870
27026W        W43500  14.559   6.649   3.975 -0.0176  0.1465  0.0624
27027W        W43501   3.711   8.372   2.738 -0.1418 -0.0118  0.0113
27028W        W43502  11.561  18.211  14.562 -0.2769  0.0774 -0.2758
27029W        W43503   0.587   1.201  14.556 -0.3153  0.2680 -0.2786
27030W        W43504   7.330   6.441  12.335  0.2464  0.0627  0.1097
27031W        W43505   3.264   2.276  13.279 -0.0476 -0.0564  0.0499
27032W        W43506   8.510  13.396   4.603 -0.1904 -0.0381  0.3788
27033W        W43507   1.708  15.978   1.445 -0.1452  0.1187 -0.0161
27034W        W43508  15.581   0.646  16.022  0.1018 -0.0053  0.0593
27035W        W43509  18.235  17.506   4.152  0.0410  0.2375  0.0179
27036W        W43510   9.034   5.733  12.879  0.0383 -0.0586  0.1063
27037W        W43511  17.426  16.526   1.913  0.2082  0.0244 -0.2540
27038W        W43512  11.609  16.130   5.910  0.1386  0.0184  0.0971
27039W        W43513  15.086  10.319  14.817  0.3090  0.0181 -0.3909
27040W        W43514  14.309   8.316   3.483 -0.3095 -0.1809  0.0437
27041W        W43515  10.136   9.628   2.012  0.2944 -0.2488  0.0741
27042W        W43516   5.149   7.558   3.472  0.1118  0.0928  0.1876
27043W        W43517   6.967   8.629   5.347 -0.0415 -0.0947  0.0355
27044W        W43518   1.635  16.314   4.111  0.0655  0.2934 -0.0466
27045W        W43519   5.751   4.299   3.646  0.0710  0.2850 -0.1021
27046W        W43520   1.428  14.847   2.043  0.0935  0.1096 -0.0470
27047W        W43521  10.845  15.201  14.411 -0.3361 -0.2377 -0.0565
27048W        W43522  11.199   8.275   0.241 -0.0708  0.1656 -0.1335
27049W        W43523   1.265   7.052   0.025  0.0137 -0.0666  0.1066
27050W        W43524  18.152  12.204   2.523  0.2534 -0.0028  0.1311
27051W        W43525  11.884   9.745  11.579 -0.0299 -0.0174 -0.0178
27052W        W43526  16.847   4.179  15.583 -0.0563  0.0604 -0.1213
27053W        W43527   2.972   0.654   0.325 -0.1294  0.1125 -0.2106
27054W        W43528  16.716   4.232  12.480  0.0297 -0.5558  0.3461
27055W        W43529  12.876   2.952  13.819 -0.1387 -0.0313 -0.0655
27056W        W43530   4.927  15.148   5.426  0.0093 -0.2470  0.0413
27057W        W43531   5.449  16.514   1.448 -0.1320 -0.2484 -0.1468
27058W        W43532   6.686   0.570   1.463  0.1785 -0.2570 -0.1346
27059W        W43533  14.131   5.503   2.727  0.0438  0.0401  0.4842
27060W        W43534  11.403  11.096   2.814  0.4089  0.1129 -0.0663
27061W        W43535  15.427   3.121   5.178 -0.3356 -0.0024 -0.4322
27062W        W43536  11.471   6.266   0.443  0.2860  0.1365 -0.1029
27063W        W43537   1.221  13.466  11.812 -0.1114  0.2294  0.0347
27064W        W43538  12.771  16.156   3.906  0.0718  0.2314 -0.3549
27065W        W43539  10.001   8.449  12.501  0.0597  0.1583 -0.1327
27066W        W43540  18.295   3.822   4.437 -0.4693 -0.0559 -0.1053
27067W        W43541   9.154   6.615  15.383 -0.1001 -0.2397 -0.0065
27068W        W43542   1.981   3.065  11.185 -0.1379 -0.3897  0.1080
27069W        W43543  12.494  12.052   2.071 -0.0465  0.0692 -0.1928
27070W        W43544  13.107   5.611  12.444  0.1244 -0.1578  0.2077
27071W        W43545   1.266  12.605   1.449 -0.0985  0.0539 -0.0975
27072W        W43546  13.710  17.891   1.354 -0.2464 -0.3276 -0.0128
27073W        W43547  11.231   2.480   4.513  0.1100  0.1192  0.0087
27074W        W43548   7.204  17.547  15.072 -0.0893 -0.0526 -0.0163
27075W        W43549   6.912   5.019  11.341 -0.0132  0.0210 -0.2816
27076W        W43550  16.963   8.774  14.931  0.0767 -0.2127 -0.0599
27077W        W43551   3.088  15.992   4.412  0.3974  0.2259 -0.0680
27078W        W43552   5.718   4.636  13.241  0.2603 -0.1338  0.2972
27079W        W43553  15.881  14.599  14.390 -0.2489  0.2033  0.2491
27080W        W43554  16.682  11.291   1.726  0.1020  0.1217  0.0321
27081W        W43555  11.063  13.981  14.911 -0.1018 -0.0591  0.0643
27082W        W43556  15.898  17.287  11.923 -0.0252  0.1132 -0.0262
27083W        W43557  15.196   3.390  12.451 -0.0395  0.1868 -0.0332
27084W        W43558   6.644   0.376   3.223  0.0846 -0.1999  0.3957
27085W        W43559   4.098  12.749   6.092  0.1200  0.0610  0.2300
27086W        W43560  15.450   7.882   5.171 -0.2284  0.3260  0.0120
27087W        W43561   9.711  13.202  11.674  0.0829 -0.1997  0.2617
27088W        W43562  16.207   9.837   2.181 -0.1485 -0.1985  0.1120
27089W        W43563   1.194   4.500   3.072  0.2135 -0.0720 -0.2623
27090W        W43564   8.408   1.877  13.606  0.0902 -0.1156 -0.1198
27091W        W43565   2.165   1.414  13.961 -0.1082  0.2829 -0.1549
27092W        W43566   2.307  18.096   4.040 -0.3445  0.1971 -0.2443
27093W        W43567   7.832  15.038   1.712  0.1341 -0.2197  0.0815
27094W        W43568   5.159  17.879  14.082  0.0867  0.1672 -0.1236
27095W        W43569   1.720   6.144  11.546 -0.1845 -0.0354  0.0200
27096W        W43570   5.174  11.990  15.931  0.2263 -0.0072  0.2470
27097W        W43571  16.860  10.950   0.730 -0.2708  0.1090 -0.1750
27098W        W43572   3.121   5.842   2.445 -0.1377  0.2502  0.2226
27099W        W43573  10.090   4.145  16.152 -0.1278 -0.1372  0.3606
27100W        W43574   3.739   5.051   1.139 -0.2698  0.1773 -0.0570
27101W        W43575   5.229   6.861   4.713  0.1499 -0.2274 -0.4222
27102W        W43576   7.842  17.249  15.512  0.3694  0.0489 -0.1063
27103W        W43577   6.839  15.516   3.604 -0.2413  0.1142 -0.0017
27104W        W43578   9.320   6.601   2.811  0.0960  0.1869 -0.0369
27105W        W43579   0.996   1.387  15.017 -0.0927  0.0747 -0.1493
27106W        W43580  17.588  16.592   9.995  0.1832 -0.2132  0.2572
27107W        W43581   0.043   3.689   2.299 -0.1731  0.0513 -0.0720
27108W        W43582  10.941  16.286   3.768  0.1359 -0.2001 -0.2625
27109W        W43583   3.890  16.997   4.395  0.2329 -0.1538  0.0347
27110W        W43584  15.965   7.963   5.254 -0.0480  0.2083 -0.0087
27111W        W43585  17.172   8.896   4.453  0.1153  0.1023 -0.2008
27112W        W43586   1.876  14.497  14.944 -0.5336  0.1762 -0.0795
27113W        W43587   3.885   5.951  14.439  0.1269  0.0459  0.0294
27114W        W43588  12.505  12.025   0.232 -0.0698 -0.2236  0.0562
27115W        W43589  16.636  15.133   0.808  0.1570  0.0059 -0.1410
27116W        W43590   4.277  10.236   4.062 -0.0797 -0.0693 -0.0114
27117W        W43591  18.066  12.785  13.620  0.1334 -0.2288 -0.0946
27118W        W43592  13.625   3.018   5.115 -0.2092 -0.0248  0.0743
27119W        W43593   5.379  11.886  12.281 -0.2554  0.2710 -0.1079
27120W        W43594   8.068   8.654   2.976  0.1408  0.3485  0.3197
27121W        W43595  15.727   3.063   1.740  0.1516 -0.1186  0.1576
27122W        W43596   6.178  15.478   0.845 -0.1686  0.0173  0.1829
27123W        W43597   9.122  13.689   0.554  0.1214  0.0076 -0.2656
27124W        W43598   1.085   5.038  11.844 -0.3585 -0.0020  0.1308
27125W        W43599   6.991   1.704   0.975 -0.1441 -0.0237  0.1181
27126W        W43600  12.410   5.066   3.909 -0.1119  0.0479 -0.0127
27127W        W43601  15.828  16.513   5.119  0.2872 -0.0868 -0.1137
27128W        W43602   9.283   0.123   3.280 -0.0800  0.3675 -0.0902
27129W        W43603  14.948   7.141   3.395 -0.4080  0.4720 -0.2094
27130W        W43604   7.534  15.594  13.228  0.0855  0.2384  0.1493
27131W        W43605   3.219  14.795   0.957  0.1129 -0.2975 -0.1215
27132W        W43606  12.780   1.207  11.130 -0.0209  0.0727 -0.3357
27133W        W43607  11.993  17.968   3.522  0.1272 -0.1766  0.2151
27134W        W43608  10.953   7.799   2.882 -0.0109 -0.4597 -0.1581
27135W        W43609  13.128  11.542  14.133 -0.1797  0.3131  0.0065
27136W        W43610  11.868   3.745  11.358 -0.1222 -0.0572 -0.1680
27137W        W43611   0.288   4.082  10.812  0.3488  0.1286  0.2227
27138W        W43612  17.346  17.633   0.995 -0.2046 -0.0321  0.4266
27139W        W43613  11.664  11.603   0.459  0.2127  0.1683 -0.3111
27140W        W43614  13.554  14.547  16.137 -0.0109  0.0253 -0.1679
27141W        W43615  14.226  11.067  12.894 -0.5554  0.0006 -0.1015
27142W        W43616   8.397   5.247   3.784  0.0895 -0.1332  0.2122
27143W        W43617   1.293  17.977  14.308  0.1373 -0.2057  0.0182
27144W        W43618  14.087  18.211   0.451 -0.3350 -0.0150  0.4042
27145W        W43619  10.046  10.452  15.640  0.0169 -0.0419  0.1764
27146W        W43620  10.793  17.139   0.113 -0.0294 -0.0960  0.0914
27147W        W43621  17.575  13.720   4.209  0.0969  0.3974  0.0439
27148W        W43622   8.215  16.185   2.706  0.3690  0.0596 -0.0878
27149W        W43623  14.095  17.943   1.685 -0.2258  0.0721 -0.0679
27150W        W43624   3.031   4.290  12.381  0.0036  0.0901  0.3800
27151W        W43625   5.698   4.961  13.792  0.0601  0.0910 -0.2498
27152W        W43626  15.455   1.993   4.603 -0.0981  0.4051 -0.0412
27153W        W43627  16.958  14.715  12.401 -0.0630  0.1455  0.3908
27154W        W43628   4.843   7.974  13.782 -0.0238 -0.0029 -0.0808
27155W        W43629   7.152   4.697   1.850 -0.0832  0.2666  0.0939
27156W        W43630  16.448   0.549  14.020 -0.2540 -0.2363  0.0720
27157W        W43631  12.903   0.085   1.074 -0.1321 -0.1304 -0.0357
27158W        W43632   6.794   9.341  12.496  0.0018 -0.0113  0.4186
27159W        W43633   0.129  15.197  14.382 -0.0313  0.0138 -0.0111
27160W        W43634  16.405  16.061  13.627  0.1827  0.0415  0.0386
27161W        W43635   1.622   0.129   0.861  0.0804  0.2121  0.1566
27162W        W43636  13.267  15.077   3.200 -0.1899  0.2417 -0.3385
27163W        W43637   4.686   4.245   0.477  0.0110  0.1042  0.1172
27164W        W43638   5.075   6.949  15.183  0.1756  0.3677 -0.0208
27165W        W43639   2.313   7.271   3.053  0.0228 -0.1003 -0.0975
27166W        W43640  16.913  14.058   6.105 -0.2467  0.0215 -0.1383
27167W        W43641  17.458  12.589   0.331 -0.1830  0.1254  0.1842
27168W        W43642   9.874   4.512   0.893 -0.1386 -0.0820 -0.3021
27169W        W43643  10.729   4.499  12.268  0.1542  0.2624 -0.0497
27170W        W43644  14.251   8.082   2.987 -0.2378 -0.4839  0.0385
27171W        W43645   5.742  17.413  13.326 -0.0042 -0.2087  0.0088
27172W        W43646  11.181   0.976   3.273 -0.2356 -0.2550  0.1985
27173W        W43647  10.046  11.257   3.059 -0.2077 -0.1994 -0.0243
27174W        W43648  12.887   4.071   1.903  0.3952 -0.0532  0.0485
27175W        W43649   7.359   5.037   0.158  0.1885  0.1247  0.1404
27176W        W43650   4.365   3.575  15.444 -0.0194  0.1951 -0.3428
27177W        W43651   3.333   8.672  11.356 -0.0275  0.1151  0.0125
27178W        W43652   2.310   5.369  14.463 -0.0335 -0.0558  0.1396
27179W        W43653  12.069   5.564   2.488 -0.1301  0.0251 -0.2417
27180W        W43654   5.852   6.778   5.095  0.0936  0.0786  0.2607
27181W        W43655   4.657   2.792  13.146 -0.2415 -0.0505 -0.0826
27182W        W43656  11.340  14.213   5.459  0.2440  0.2541  0.1320
27183W        W43657   7.026   5.512   1.191 -0.2902  0.0218  0.1319
27184W        W43658   8.088  12.465   4.877 -0.1126 -0.1367 -0.0789
27185W        W43659  16.020   4.035  15.318  0.2560 -0.0356 -0.1008
27186W        W43660  17.159  13.776  12.845 -0.1549  0.2722 -0.1886
27187W        W43661  14.045  10.750   1.766  0.2793  0.1853  0.1015
27188W        W43662   5.339  13.174  13.878 -0.2673 -0.1834 -0.1313
27189W        W43663  13.378   0.104  15.510 -0.0486 -0.0966  0.0842
27190W        W43664   0.023  15.508   1.022  0.1954 -0.2883  0.1759
27191W        W43665  14.363   1.142  11.099  0.0739 -0.0698 -0.0309
27192W        W43666  13.638   5.868   2.247  0.0357 -0.3575  0.0614
27193W        W43667  10.924   5.260   2.568  0.1600 -0.3050  0.1826
27194W        W43668   6.405   6.633  15.894  0.2093 -0.0327 -0.3017
27195W        W43669   0.646  10.592  14.480 -0.0668  0.0978 -0.1294
27196W        W43670   2.129   2.008   1.140  0.3466 -0.0001  0.1417
27197W        W43671   6.160  13.801  15.482  0.1260  0.2794 -0.0257
27198W        W43672  11.379  12.723  15.561 -0.0969 -0.0860 -0.0906
27199W        W43673   1.552  16.105  15.965  0.0743  0.1326  0.3657
27200W        W43674   1.936  13.993  13.576 -0.0615 -0.0520  0.0242
27201W        W43675   8.364   2.391  12.147 -0.0591  0.1363  0.0653
27202W        W43676  13.546  14.006  16.112  0.1615 -0.2446  0.1052
27203W        W43677   0.357  10.035  14.915  0.3936 -0.0219  0.0882
27204W        W43678   8.859  13.714  11.554 -0.2154 -0.0662 -0.1039
27205W        W43679  16.831   1.843   0.690  0.1013  0.1312  0.1061
27206W        W43680   9.664  16.163  14.087 -0.0157 -0.4064 -0.0026
27207W        W43681   6.302   6.994   0.043  0.1134  0.1226 -0.2110
27208W        W43682  12.655  10.573   0.251  0.2124 -0.1559  0.0148
27209W        W43683   9.372  13.957  12.043  0.2360  0.2685  0.2016
27210W        W43684   8.420   9.364   3.418  0.1601  0.3161  0.3444
27211W        W43685   4.549  10.320  12.264 -0.0824  0.4396  0.1529
27212W        W43686  12.913   9.640  14.959 -0.0278  0.0635 -0.1730
27213W        W43687   6.932   7.096  14.613 -0.2383  0.1998 -0.0024
27214W        W43688  10.750   8.825  13.989  0.0389  0.3354 -0.1121
27215W        W43689  11.178   5.528   3.532 -0.0896  0.1526 -0.0996
27216W        W43690   6.576   6.570  13.860 -0.1001  0.2202  0.1320
27217W        W43691   4.667  15.743  15.166  0.3541  0.0573  0.1006
27218W        W43692   8.465   1.345  14.564  0.1341  0.3275 -0.0729
27219W        W43693   7.516   1.355   2.684 -0.0361 -0.2377  0.3019
27220W        W43694   5.492   6.156   2.622  0.3996 -0.2488  0.2028
27221W        W43695   8.562   6.058   4.925 -0.1615 -0.0935 -0.0519
27222W        W43696  12.533  17.959   1.742  0.0149  0.0009  0.0461
27223W        W43697   9.434   0.920   1.895  0.1010  0.0400 -0.1281
27224W        W43698  16.367   4.515   4.901  0.0174 -0.2567  0.0225
27225W        W43699   9.885  10.398  12.343  0.2252  0.0408  0.0275
27226W        W43700   8.372  17.115  14.238 -0.2785 -0.0791 -0.4641
27227W        W43701  10.588   3.428   2.222 -0.0471 -0.0872  0.0963
27228W        W43702   3.960   6.453  16.110 -0.0524  0.0185  0.1905
27229W        W43703   3.056  16.122   4.914  0.1418  0.1276  0.2399
27230W        W43704   2.569   6.687   2.653  0.3083  0.2093 -0.1165
27231W        W43705   5.053  17.014  13.885  0.1803 -0.0081 -0.0602
27232W        W43706   9.405  13.666   5.765 -0.0207 -0.0400 -0.0716
27233W        W43707  16.269   6.907  12.473  0.0323  0.0297  0.2263
27234W        W43708   9.174   2.265  10.663 -0.3720 -0.2338 -0.0247
27235W        W43709  16.250   2.965  15.515 -0.0173  0.2367 -0.5037
27236W        W43710   6.398  12.159   1.073 -0.1659  0.1207  0.1039
27237W        W43711   5.107  16.025   3.670 -0.0493  0.1049  0.0864
27238W        W43712  18.259  16.364  11.287  0.2073 -0.0151  0.1550
27239W        W43713   3.761   6.386  13.086 -0.0681 -0.0283 -0.0422
27240W        W43714   6.750  12.075  14.416  0.0816  0.2003  0.2836
27241W        W43715   7.288  17.520   1.287 -0.2384 -0.0463  0.3291
27242W        W43716  15.117  11.434   4.649  0.1222  0.1282  0.1039
27243W        W43717   6.368  14.748   1.025  0.0489 -0.0435 -0.0800
27244W        W43718   8.657   7.500  11.733 -0.0215  0.0443  0.2234
27245W        W43719   8.795   5.962  13.199  0.2205  0.0868 -0.2818
27246W        W43720  10.265  10.614   0.474 -0.1784 -0.3273 -0.1863
27247W        W43721   2.608  13.196  14.010 -0.1868  0.2288  0.1257
27248W        W43722   8.692   4.848   0.679  0.3584 -0.1710  0.0568
27249W        W43723   6.491   5.853  16.261 -0.2272  0.0029 -0.2287
27250W        W43724   9.861   4.782   5.411  0.0013  0.1260  0.2201
27251W        W43725   2.205  15.011   0.784  0.2392 -0.0657  0.1078
27252W        W43726   7.720   1.105   3.581  0.0164  0.1778 -0.1864
27253W        W43727   6.506  12.100  12.735  0.0952  0.2001 -0.0494
27254W        W43728  17.879   8.772   1.971 -0.0481  0.1987  0.0074
27255W        W43729   9.598   6.925  14.826 -0.1503  0.1048 -0.3926
27256W        W43730  15.074   6.692   4.220  0.2237  0.0823 -0.0276
27257W        W43731  13.307   9.714   1.625 -0.2005  0.2061 -0.0646
27258W        W43732   1.224  11.208   4.641 -0.0109 -0.1540 -0.2936
27259W        W43733   3.740  15.804   0.277 -0.3531 -0.3170  0.0872
27260W        W43734   8.973  15.283   2.295  0.0943  0.0186 -0.2107
27261W        W43735  16.613   4.891  16.060 -0.0639  0.1945  0.2890
27262W        W43736  10.778  18.047   2.049 -0.0350  0.0422 -0.0751
27263W        W43737  16.057  11.095  14.397 -0.2031  0.1136  0.1429
27264W        W43738   1.546  14.769  11.122 -0.0607 -0.2230  0.1741
27265W        W43739   7.270  11.370   4.637  0.1862 -0.1302  0.1645
27266W        W43740   5.318   6.372  11.649 -0.0378  0.1792 -0.0102
27267W        W43741   3.261  16.928  11.634 -0.0548  0.1232 -0.0685
27268W        W43742   4.179  14.339  14.956 -0.1835  0.1793  0.2091
27269W        W43743   6.265   4.490  15.074 -0.1737  0.2945  0.2824
27270W        W43744  17.398  16.087  11.338  0.2519 -0.2737 -0.3506
27271W        W43745   5.274   8.494  13.127 -0.1057 -0.1889  0.0703
27272W        W43746   4.804   0.098   0.289 -0.0513 -0.1454  0.1430
27273W        W43747  14.173   2.852  11.330 -0.2666  0.0186 -0.0557
27274W        W43748  13.897   6.592   5.256  0.2546  0.2084  0.3547
27275W        W43749  10.064   3.359  14.269  0.0854  0.3603  0.1979
27276W        W43750   8.723   2.833  14.949 -0.1326  0.2883 -0.3618
27277W        W43751  14.933   9.651   4.185  0.1358 -0.0699 -0.3289
27278W        W43752   4.611  18.303  16.202  0.0122  0.0346 -0.2283
27279W        W43753  15.722  15.217  12.725  0.0571  0.3255 -0.3163
27280W        W43754   0.815   9.337  15.482 -0.0721  0.2748 -0.2636
27281W        W43755   3.654   8.446   4.480 -0.0053 -0.3110  0.1156
27282W        W43756  16.891   5.922   2.154 -0.0475 -0.0113 -0.2414
27283W        W43757  17.087  11.669   1.770 -0.1109  0.1660 -0.1258
27284W        W43758   8.695   0.651  13.955  0.2801  0.1441 -0.0380
27285W        W43759  12.193   7.714   3.446 -0.0123 -0.0250  0.0698
27286W        W43760   3.696   9.101  11.689 -0.0482 -0.1287 -0.0470
27287W        W43761   5.103  12.615   0.785 -0.2214  0.0330 -0.1833
27288W        W43762   7.524   5.612   3.796 -0.0855  0.1086 -0.0195
27289W        W43763   4.816   4.466  13.517  0.1677 -0.1045 -0.2874
27290W        W43764   1.850   7.064   3.897  0.0632 -0.0612 -0.1113
27291W        W43765   3.179   5.648   5.499  0.2538  0.2868 -0.0723
27292W        W43766   2.736  14.003  12.927 -0.1523 -0.2172  0.2519
27293W        W43767   7.723   3.961  12.020  0.0020 -0.3143 -0.2569
27294W        W43768   9.150   1.505   0.902  0.0475  0.0426  0.0941
27295W        W43769   5.471  18.189  12.719  0.3387 -0.1295 -0.0862
27296W        W43770   4.732   8.223  15.590  0.0219 -0.2316  0.1452
27297W        W43771   3.522   8.789   4.821  0.0333 -0.0496  0.0522
27298W        W43772  11.453   9.526   5.692 -0.0419  0.3772 -0.0219
27299W        W43773   2.242   2.402  15.230 -0.3362  0.2153 -0.0831
27300W        W43774   8.386  11.631   3.965  0.0595 -0.0214  0.1649
27301W        W43775   7.573  14.956  16.014  0.0837 -0.0994  0.5720
27302W        W43776  15.265  11.322   3.986 -0.0558 -0.2087  0.0553
27303W        W43777  13.623   9.097   5.785  0.0584 -0.0243 -0.1047
27304W        W43778   3.339   1.821   0.078 -0.0805  0.2093 -0.0272
27305W        W43779  14.430   7.778  11.342 -0.0183  0.0363  0.1752
27306W        W43780  11.873  15.995  13.600 -0.0896  0.2728 -0.2281
27307W        W43781   5.064   3.700   3.798  0.2521  0.1662 -0.0619
27308W        W43782   3.414  14.195  11.256 -0.1399  0.1323  0.1282
27309W        W43783  13.676  15.142  15.594 -0.1112  0.2568  0.0423
27310W        W43784   4.620   7.176   0.658  0.0339 -0.1559  0.2522
27311W        W43785  12.687   6.381  14.580 -0.0776 -0.4243 -0.0430
27312W        W43786  15.327  14.074   5.542 -0.2808 -0.1827 -0.1208
27313W        W43787   6.316  12.215  15.227  0.2285 -0.0840 -0.0964
27314W        W43788   2.759  15.525   3.629  0.2672 -0.1309 -0.2312
27315W        W43789   0.286   9.278   5.388 -0.3071  0.0887  0.0591
27316W        W43790  11.398   0.361  11.768  0.1083  0.0827  0.2417
27317W        W43791   5.490  11.711   3.276 -0.1558  0.2811 -0.3644
27318W        W43792  13.947  16.365   2.283  0.1154 -0.1110  0.0554
27319W        W43793   1.057  17.489   4.394  0.3819 -0.2503  0.2931
27320W        W43794  15.701  13.152   2.602 -0.1634 -0.2397  0.2055
27321W        W43795  11.541  10.807  15.098 -0.0316 -0.2073 -0.0960
27322W        W43796  10.889   8.715  13.495 -0.0629 -0.0341  0.0673
27323W        W43797  16.978  13.247  13.024  0.2678 -0.0372  0.0991
27324W        W43798   4.610   8.232   0.064  0.0757 -0.0686 -0.0968
27325W        W43799   2.587  13.848   5.492 -0.3120  0.1287 -0.0591
27326W        W43800   4.149   8.325   4.626 -0.1818  0.2177  0.2462
27327W        W43801  14.840  13.971   1.299  0.4615 -0.2777 -0.0998
27328W        W43802   7.826   9.426  12.351 -0.1730 -0.1229 -0.1689
27329W        W43803  16.656   8.171  12.220 -0.2034  0.0463  0.0283
27330W        W43804   1.680  12.014   0.762  0.3033 -0.2417 -0.1616
27331W        W43805   0.261   2.191   5.723  0.0656  0.0950 -0.0391
27332W        W43806   1.131   7.774  15.985  0.2501  0.1265 -0.2058
27333W        W43807   4.801   8.624   5.413  0.4390  0.1334  0.0173
27334W        W43808  17.072   0.374   2.598 -0.3017 -0.1740 -0.1817
27335W        W43809  10.413   1.247   0.595  0.1751  0.1435  0.0045
27336W        W43810   3.313  16.685  12.838  0.1958 -0.3047  0.0436
27337W        W43811  14.808   2.645   3.397  0.0437  0.3168 -0.0766
27338W        W43812   2.749   0.710  11.171 -0.2566  0.0636 -0.0508
27339W        W43813   9.390   2.989   1.389 -0.1081 -0.1142 -0.0512
27340W        W43814  13.933   2.585  14.847  0.3150  0.0475  0.1696
27341W        W43815  17.154  12.350  15.156  0.0031 -0.0131  0.0991
27342W        W43816  10.511   8.275   0.936 -0.1941  0.2711  0.1637
27343W        W43817   9.042  12.161  12.107  0.0250  0.0286 -0.2116
27344W        W43818  14.815   5.867   4.669 -0.0324 -0.0127 -0.2507
27345W        W43819  13.580  10.290  15.029 -0.4833  0.0090 -0.1844
27346W        W43820   7.176  15.999  14.832  0.1283 -0.1375  0.5105
27347W        W43821   4.953  17.930  12.012  0.1516 -0.2523  0.0624
27348W        W43822  12.647   3.832  13.607 -0.1983 -0.1988 -0.0037
27349W        W43823  10.961   4.323   3.029 -0.3067 -0.0211  0.0082
27350W        W43824   3.354   2.491   1.570  0.0064  0.1018 -0.1506
27351W        W43825  13.671   9.312  13.887 -0.1026  0.2269  0.0590
27352W        W43826   0.240   5.707   0.358 -0.0752 -0.2032  0.0048
27353W        W43827   3.729  16.047   2.058  0.3567  0.0492 -0.0004
27354W        W43828   6.664  10.617   0.171 -0.2363 -0.1998  0.4923
27355W        W43829   6.468   8.430  14.274 -0.1065 -0.0279 -0.3167
27356W        W43830  13.509  13.076   1.202  0.0949 -0.0090 -0.1370
27357W        W43831   2.912   9.426   5.001  0.1547  0.5051  0.0285
27358W        W43832  10.333   9.971   1.175 -0.2246 -0.0160  0.0179
27359W        W43833   9.859  11.452   2.012 -0.0581  0.4589 -0.0721
27360W        W43834   0.951   7.795  15.067  0.4617  0.1477  0.1494
27361W        W43835  17.223  11.167   1.068 -0.0245  0.0371  0.2377
27362W        W43836  16.882   1.643  13.517 -0.0845  0.1625 -0.0901
27363W        W43837   1.188  16.198  12.863 -0.2114 -0.0315 -0.0956
27364W        W43838   4.731   4.807   2.809  0.0491  0.0276  0.3045
27365W        W43839  17.541   1.618  12.572 -0.1483  0.1149  0.1748
27366W        W43840   6.651   0.147   3.698  0.1328  0.1887  0.4933
27367W        W43841   3.942   8.142   1.536 -0.0200  0.3003  0.1275
27368W        W43842   6.267   5.599  12.506  0.2256  0.0896 -0.1754
27369W        W43843  15.474   9.355   0.721  0.2096 -0.0803  0.1660
27370W        W43844   3.348   4.708   3.250 -0.1629 -0.1005 -0.0353
27371W        W43845  13.713   0.224  15.873 -0.1069 -0.0359 -0.0342
27372W        W43846   8.605  10.144   5.214 -0.4361 -0.1464  0.2013
27373W        W43847   0.690  13.687  13.041  0.0875 -0.1128  0.1343
27374W        W43848  11.641  14.476   1.914  0.2364 -0.0807 -0.3049
27375W        W43849  17.540  12.814  14.620  0.2357  0.2160 -0.2449
27376W        W43850  11.895   3.682  16.044 -0.2418  0.1864  0.1817
27377W        W43851   2.122  17.366   2.956  0.1512  0.0233 -0.1317
27378W        W43852   7.055   8.648   1.733  0.0519 -0.0151  0.3175
27379W        W43853  10.412   7.311   2.555 -0.2689 -0.2299 -0.1362
27380W        W43854  12.376   3.836   3.663 -0.0634  0.3948 -0.3139
27381W        W43855  11.994   4.869   3.485  0.1460 -0.1218  0.0283
27382W        W43856   5.425   9.624  14.545  0.0157 -0.3837  0.1281
27383W        W43857   8.534   7.005  15.689  0.0877 -0.1054 -0.0356
27384W        W43858   8.765   3.905  15.541  0.0721  0.2292  0.2151
27385W        W43859  12.218   4.774  13.485 -0.3268 -0.3908 -0.1250
27386W        W43860   1.108  13.011  16.237 -0.0849  0.2513  0.1312
27387W        W43861   0.011   3.310   0.658 -0.2130  0.1362  0.1974
27388W        W43862   5.566   3.675  12.669  0.2522 -0.2526 -0.1490
27389W        W43863   5.898   6.849  16.064  0.2806 -0.3299 -0.0414
27390W        W43864  15.031   4.848   4.280 -0.2076  0.1110  0.1893
27391W        W43865   2.152   8.670  12.459  0.2266  0.1037  0.1888
27392W        W43866  10.141  12.239   2.439  0.2163  0.2363  0.1946
27393W        W43867  10.940   3.363   3.119 -0.1300 -0.5119 -0.3039
27394W        W43868  14.263   8.613  12.750  0.2446  0.1642  0.0407
27395W        W43869   3.500  13.730  11.496  0.0408 -0.0054 -0.0370
27396W        W43870   0.667   9.084   0.229  0.2113 -0.0613  0.3080
27397W        W43871   0.312  11.322   1.473  0.1364  0.0560  0.0966
27398W        W43872   0.757  11.615   4.240 -0.0744 -0.0820  0.0067
27399W        W43873   7.332  12.249  14.999 -0.0108  0.0726 -0.0036
27400W        W43874   0.632   4.945  10.679 -0.0994 -0.4928  0.2996
27401W        W43875   3.538  12.470  12.973  0.2730 -0.1116 -0.0325
27402W        W43876   5.495  11.097   5.215  0.0753  0.2336 -0.1791
27403W        W43877   1.734  14.296  10.989  0.0905 -0.3754 -0.0207
27404W        W43878  11.484  16.595  12.168  0.0739 -0.0397 -0.1783
27405W        W43879   5.173  14.339  14.413  0.1814  0.0567  0.1703
27406W        W43880   4.438  13.682  11.407  0.4904 -0.0003  0.1374
27407W        W43881  12.029   3.654   1.507  0.0303 -0.0629  0.1763
27408W        W43882   0.721   3.182  12.902  0.2868  0.0506 -0.1097
27409W        W43883  16.945   4.488  13.364  0.2740  0.0348  0.1443
27410W        W43884  13.063   6.683   2.561 -0.1153  0.0174 -0.1180
27411W        W43885   0.851   9.506   1.916 -0.0227  0.2839 -0.0349
27412W        W43886   2.589  16.760  13.759  0.0833  0.1056 -0.0526
27413W        W43887   0.823  14.967  14.241 -0.1024 -0.1548  0.0698
27414W        W43888   0.064   1.830  12.657 -0.1936 -0.1068  0.2165
27415W        W43889   0.814  16.853   5.430  0.0463  0.0697  0.3953
27416W        W43890   6.819  10.017   2.050  0.1247 -0.4281  0.1476
27417W        W43891   8.883   2.305  14.888 -0.0765 -0.0431 -0.0979
27418W        W43892   0.920   9.137   0.988  0.0002 -0.0665 -0.0232
27419W        W43893   6.683  16.951  12.631  0.0224  0.0800 -0.0369
27420W        W43894   4.627   6.188  14.784  0.1694 -0.2312 -0.0107
27421W        W43895   1.240  16.575  15.879  0.1510 -0.1651  0.0317
27422W        W43896  13.926   5.540  15.231 -0.2510 -0.0437  0.0248
27423W        W43897  14.367   0.039   3.193 -0.1119 -0.3256 -0.0783
27424W        W43898   5.492   6.279   0.810 -0.3768  0.3211 -0.0525
27425W        W43899   2.081   5.185  12.987  0.1117  0.1536 -0.1294
27426W        W43900   6.817  12.649   2.711 -0.1551  0.3411 -0.1843
27427W        W43901   4.517  12.539  12.065  0.1087 -0.0475  0.0267
27428W        W43902  14.118  17.690  15.969  0.2305 -0.0627  0.0772
27429W        W43903  14.675  12.264  11.600 -0.1690 -0.0230 -0.2862
27430W        W43904   9.617  15.113   0.437  0.0735 -0.2484  0.4394
27431W        W43905   6.736  11.768   4.726  0.2840  0.1957  0.0282
27432W        W43906  13.652   0.351   5.331  0.1049 -0.0224 -0.1389
27433W        W43907   5.312  16.067   0.993  0.2587  0.0425  0.2159
27434W        W43908   8.338   4.065  12.964  0.1892 -0.0664  0.2194
27435W        W43909  16.350  15.476  15.721  0.0718  0.0172  0.1849
27436W        W43910  14.033   8.194  13.026 -0.2393 -0.1243 -0.0556
27437W        W43911  12.460   4.676   1.887 -0.3031 -0.0427 -0.2451
27438W        W43912   9.253   3.183  12.335  0.0147  0.4261  0.1998
27439W        W43913  16.243   4.028   1.615  0.1956 -0.0197  0.2446
27440W        W43914   4.852   0.397   2.763  0.1868 -0.1915 -0.0060
27441W        W43915  17.023   4.606  15.750 -0.1389 -0.1292 -0.1881
27442W        W43916   4.613  10.111  13.226  0.2829  0.0660  0.3169
27443W        W43917   6.439  13.935  11.837  0.1362 -0.2085 -0.2094
27444W        W43918  13.613  11.657  14.381 -0.1009 -0.3038  0.1786
27445W        W43919  11.490   6.432   4.826  0.0597  0.1317  0.2744
27446W        W43920   4.468  18.230   4.268 -0.2151 -0.1055 -0.2014
27447W        W43921   3.270  15.526  15.906 -0.0767 -0.1166 -0.1378
27448W        W43922   2.155   7.651   5.575  0.1394 -0.3698  0.1503
27449W        W43923   1.033   7.287   2.157 -0.3947  0.1580  0.0780
27450W        W43924  10.884  10.886  15.873  0.0469  0.1204 -0.2974
27451W        W43925   5.934  11.700   6.191  0.2399  0.2791 -0.1158
27452W        W43926  11.318  12.776  13.033  0.0567  0.1792  0.1356
27453W        W43927   7.398  17.669  14.031 -0.2801  0.4717 -0.0773
27454W        W43928   6.081   0.355   1.043 -0.2904  0.3130 -0.0357
27455W        W43929   9.783   5.531   1.031  0.1077  0.1875  0.1396
27456W        W43930   3.981  10.040   2.816 -0.1213 -0.2859  0.1460
27457W        W43931   5.494   6.165   3.523 -0.1884 -0.0565  0.1428
27458W        W43932   0.888  14.765  14.715 -0.1768 -0.2039  0.1496
27459W        W43933   5.056  14.366  13.501  0.0350 -0.0887 -0.0756
27460W        W43934   8.946   1.941   2.711 -0.2043 -0.3404  0.2189
27461W        W43935  10.904   9.217  13.676 -0.0016 -0.0305  0.0279
27462W        W43936  11.309   8.770  12.446  0.2890 -0.2953  0.0095
27463W        W43937   3.234  13.606   1.797  0.1413  0.4041 -0.0280
27464W        W43938   2.497  16.783  12.188 -0.1618  0.1321  0.1169
27465W        W43939   0.434   6.415  15.475 -0.1047  0.0426  0.1187
27466W        W43940   5.505  14.628  15.638  0.2473  0.0475  0.3327
27467W        W43941  16.212   6.596  11.447 -0.0619  0.0973  0.3670
27468W        W43942  10.439  14.779   4.548 -0.0883 -0.2880 -0.1305
27469W        W43943   3.409   3.653   1.206 -0.1194  0.1566  0.2506
27470W        W43944   8.080   2.386   1.395 -0.0275  0.2340  0.2433
27471W        W43945  16.167  11.537   4.150  0.1082 -0.2910  0.1849
27472W        W43946  14.553  17.627  16.257 -0.1905  0.0442 -0.1333
27473W        W43947  11.515   4.906  15.673  0.3878  0.2111 -0.1199
27474W        W43948   1.512   0.597  14.495  0.2412  0.1019  0.0906
27475W        W43949   6.251   2.380  11.148  0.0514 -0.0958  0.2243
27476W        W43950   5.188   2.647   4.096 -0.0993  0.2479  0.0089
27477W        W43951  17.597  16.975   0.558  0.1698  0.0566  0.0194
27478W        W43952  13.407   0.142  14.964 -0.0702 -0.2638  0.1098
27479W        W43953  16.015   0.190  13.993 -0.0265 -0.1942  0.1762
27480W        W43954   1.216   5.907  12.247  0.1059  0.1050 -0.0305
27481W        W43955   6.086   1.570  12.538  0.0746 -0.1241  0.1478
27482W        W43956   1.368   0.053   3.929  0.0366 -0.1130 -0.0719
27483W        W43957  11.718   7.982   6.189 -0.0087 -0.0449  0.0100
27484W        W43958   1.609   9.123  14.140  0.2358 -0.1022 -0.4110
27485W        W43959   6.332  16.237  11.385 -0.2420  0.0373  0.2099
27486W        W43960  15.091   2.353   3.070  0.0551  0.0422  0.0012
27487W        W43961   0.207  13.637   3.614  0.1798  0.0336 -0.2536
27488W        W43962  16.962  14.044   0.895 -0.0399  0.0471 -0.2308
27489W        W43963  17.669   5.532  11.868  0.1586  0.0883  0.1915
27490W        W43964  17.310  14.154   0.022 -0.1519  0.0771  0.1194
27491W        W43965   7.187   5.112   4.500  0.0079 -0.0930  0.0386
27492W        W43966   6.496   1.936  13.392  0.3692  0.0771  0.0630
27493W        W43967  13.062   4.523  14.873 -0.1957  0.1809  0.1478
27494W        W43968   4.177   0.174  15.424  0.0492  0.1354  0.3661
27495W        W43969  15.356  10.294   1.844  0.0703  0.0828 -0.1619
27496W        W43970   3.255  14.309  13.665  0.3164  0.0657 -0.2644
27497W        W43971  15.888   2.334  16.252  0.1628 -0.0536 -0.1587
27498W        W43972  17.769   0.378  13.334 -0.0267 -0.0355  0.3561
27499W        W43973   8.375  15.675  15.047 -0.0928  0.0089  0.0907
27500W        W43974   1.567   9.029   4.691 -0.0878  0.1086 -0.0995
27501W        W43975   2.605   5.884   4.232 -0.1542 -0.0746  0.4407
27502W        W43976   2.884   9.287  15.506  0.1922 -0.3094 -0.1483
27503W        W43977  15.400   8.875   3.742  0.0011  0.0196  0.2259
27504W        W43978   6.112   0.671   1.981  0.3619 -0.0303  0.2217
27505W        W43979   5.881   4.414   5.232 -0.0330  0.1799 -0.0228
27506W        W43980  17.552  11.342  11.479 -0.2021  0.2142  0.0351
27507W        W43981  12.728  15.378   3.161  0.1762  0.2638 -0.0444
27508W        W43982   5.445   1.252  15.236  0.0017 -0.0013 -0.0277
27509W        W43983   6.210   5.361   0.142  0.2728 -0.1248  0.0117
27510W        W43984  11.502   4.170  11.497 -0.2910  0.2240 -0.1283
27511W        W43985   4.038   1.049  12.268  0.3002 -0.0893 -0.2162
27512W        W43986   3.985   4.260   6.162 -0.0716 -0.5724  0.0311
27513W        W43987   8.360   7.844   0.244 -0.0209  0.0316  0.0730
27514W        W43988  10.386  15.723  12.433  0.2919  0.2118  0.1779
27515W        W43989   6.329   7.919   6.319 -0.2819  0.0559  0.0613
27516W        W43990  11.671  16.190  11.290  0.0693 -0.3066  0.2479
27517W        W43991   1.831   4.972   2.043 -0.2119  0.3020  0.2125
27518W        W43992   4.248  12.281   0.215  0.2817 -0.0119 -0.3464
27519W        W43993   7.794   0.724   4.521 -0.1279 -0.0726  0.0901
27520W        W43994  12.042   6.668   2.677  0.1184  0.1141 -0.4191
27521W        W43995   5.597   7.878  15.521  0.0730 -0.1065 -0.0302
27522W        W43996   6.041  17.416  14.230  0.0427 -0.1546 -0.0070
27523W        W43997   9.113  12.702  14.419  0.1478  0.3658 -0.0063
27524W        W43998  12.858  17.155   1.518  0.2986 -0.2266  0.1619
27525W        W43999  14.991   3.463  13.774  0.2333  0.2069 -0.1935
27526W        W44000  10.269   5.470   1.983  0.1878  0.2914 -0.0015
27527W        W44001  11.651  13.304  15.136 -0.1353  0.0481  0.1340
27528W        W44002  11.479  10.221  13.334  0.1357 -0.0484 -0.1542
27529W        W44003   9.933  10.454   0.784 -0.1266 -0.0866  0.0637
27530W        W44004   0.635   8.753   3.959 -0.1286 -0.0755 -0.0850
27531W        W44005   4.000  13.950   3.299  0.2098  0.2272 -0.2146
27532W        W44006  15.405  10.823   1.615 -0.0518  0.3486 -0.2335
27533W        W44007   3.643   1.147   4.315  0.0028  0.0073 -0.0201
27534W        W44008   8.665  12.092  15.222  0.0788  0.2870  0.0196
27535W        W44009   5.189   7.637   1.075 -0.1657 -0.1653 -0.0834
27536W        W44010   6.320  17.821   0.099 -0.3306  0.0976  0.0771
27537W        W44011   4.844   5.832  13.209 -0.0258  0.1668  0.0061
27538W        W44012   3.282   3.933   5.782  0.0732  0.4053 -0.0936
27539W        W44013   1.518  14.628   5.166  0.1306 -0.0598 -0.1860
27540W        W44014  15.375   9.965   2.300 -0.1334  0.1290  0.0682
27541W        W44015   4.416  12.451   2.173  0.0318  0.1129 -0.1861
27542W        W44016  14.684  12.026   2.954 -0.3793  0.0070  0.0879
27543W        W44017  10.197   7.955   0.291 -0.3165  0.0174 -0.4496
27544W        W44018  15.616  13.831   3.550 -0.0907 -0.0448 -0.2388
27545W        W44019  17.709  16.319   4.434  0.1200 -0.4194 -0.0957
27546W        W44020   3.240   8.816   4.393  0.1552 -0.1223  0.1710
27547W        W44021  16.484  10.474   3.023  0.0857  0.0116  0.0213
27548W        W44022  10.958   7.120  11.762 -0.1169  0.0591  0.0063
27549W        W44023   2.065   7.965  11.156  0.0587 -0.2210 -0.1496
27550W        W44024  15.657  10.100   4.621 -0.3386  0.1462 -0.0782
27551W        W44025  13.283  16.461   2.517 -0.2072 -0.0621  0.3304
27552W        W44026  14.786  16.178  11.694 -0.0289 -0.0126 -0.0593
27553W        W44027   2.184   1.564  12.324  0.2140  0.0202  0.1515
27554W        W44028  10.129   4.231   4.072 -0.3438  0.2205  0.0304
27555W        W44029   3.279  18.120   2.747 -0.0750 -0.0654 -0.0224
27556W        W44030  10.498   2.484   1.603 -0.0649 -0.1277 -0.1810
27557W        W44031  15.643   2.503   4.625 -0.1208  0.2128 -0.0549
27558W        W44032  17.858  15.456  16.076  0.0130  0.0811  0.2522
27559W        W44033  12.439   9.845  12.606 -0.2530 -0.1217  0.2699
27560W        W44034  12.494   1.750  13.071 -0.2631  0.0285 -0.0900
27561W        W44035  10.294   6.218   1.625  0.2605  0.1855  0.2055
27562W        W44036   9.141  13.834  13.370  0.0950  0.0528  0.0043
27563W        W44037   7.773   8.133   1.517 -0.4965 -0.0422  0.0684
27564W        W44038  10.324  10.011  15.233  0.1544 -0.0112  0.1062
27565W        W44039   2.982  14.857   3.338  0.2065 -0.0494 -0.0413
27566W        W44040  15.370  15.707   2.992 -0.1470 -0.2760  0.1268
27567W        W44041  17.838   3.456  12.409 -0.0412  0.0138 -0.1266
27568W        W44042   8.129   3.329  11.742  0.0767  0.0777 -0.0257
27569W        W44043   5.498   9.031   2.833  0.1209 -0.0976  0.1440
27570W        W44044  17.767   3.437   1.512 -0.1238  0.1049  0.0209
27571W        W44045  14.833  12.772  11.425  0.0391 -0.3590 -0.1940
27572W        W44046   9.908   7.319  12.368  0.0311 -0.0722 -0.0323
27573W        W44047  11.992   3.917  13.383  0.1240  0.2786 -0.2220
27574W        W44048  13.529   9.555  11.645 -0.2663 -0.2679  0.0971
27575W        W44049   8.621  12.588  15.238  0.0026  0.0331 -0.0133
27576W        W44050  10.701   6.340  15.222 -0.0120  0.0513  0.1628
27577W        W44051  15.622  11.122  12.058 -0.0672 -0.3060  0.1738
27578W        W44052   1.138   9.118   1.980  0.0284 -0.1009  0.2802
27579W        W44053  16.280  16.170   5.047  0.0143 -0.2994  0.1293
27580W        W44054   2.529  18.257   3.649 -0.3450  0.1709  0.0464
27581W        W44055   5.510   2.803   2.646  0.0417  0.0354 -0.1415
27582W        W44056   8.726   6.492   2.154 -0.0452 -0.0159  0.2476
27583W        W44057   2.779   5.534  12.694 -0.1765  0.1039 -0.0977
27584W        W44058   6.762  11.509   0.003 -0.1572  0.3531 -0.2127
27585W        W44059   2.494  14.450  12.038 -0.3199  0.0687  0.1077
27586W        W44060  11.813   1.710  11.884  0.1928  0.0987 -0.3170
27587W        W44061  12.859  13.286   2.960 -0.0231  0.1576 -0.2561
27588W        W44062  13.587   9.542   4.539 -0.2142 -0.2388  0.0774
27589W        W44063  12.470  14.441   4.145 -0.0473 -0.2024  0.1771
27590W        W44064  14.316   2.884  14.539  0.0586  0.1540 -0.1879
27591W        W44065  14.659  16.333   3.066 -0.0065  0.0985  0.1344
27592W        W44066   4.916   7.183   2.605 -0.2770  0.0507  0.3151
27593W        W44067   9.518   3.484  14.160 -0.1800  0.1302 -0.1012
27594W        W44068   2.459   3.280  12.688 -0.0388 -0.0377 -0.0269
27595W        W44069   5.585   2.475   1.017 -0.2306  0.1039 -0.0707
27596W        W44070  14.848   9.089  12.675  0.2248  0.1460  0.0154
27597W        W44071   2.771  11.857   4.227  0.0373  0.2017  0.1708
27598W        W44072  13.407  10.864  11.228  0.1086 -0.0413  0.0056
27599W        W44073   2.363   0.648   0.920  0.0907 -0.0477 -0.2958
27600W        W44074   2.285  10.159   3.496 -0.0847  0.0133  0.4121
27601W        W44075   4.825  12.738   1.315 -0.4367 -0.0472 -0.1010
27602W        W44076  15.985  16.348   1.259  0.0908  0.3524  0.0350
27603W        W44077   5.771   1.991   1.409  0.1557  0.2453 -0.2998
27604W        W44078  12.038  11.230   1.456 -0.1064 -0.2013 -0.0407
27605W        W44079  15.323  17.266   2.947 -0.2142 -0.1771 -0.3278
27606W        W44080   1.945   0.121   4.102 -0.2129  0.0298  0.1349
27607W        W44081   4.465  12.799  11.021 -0.0089  0.1282 -0.1256
27608W        W44082  16.158   7.171   0.485 -0.1115  0.0410  0.1790
27609W        W44083   6.088   4.574   3.846  0.1994 -0.1268  0.0373
27610W        W44084  13.641  11.134   4.774 -0.1879 -0.2287 -0.0973
27611W        W44085   5.526   3.927   1.643  0.1988 -0.1362  0.2019
27612W        W44086  13.759  17.997  16.179  0.0670 -0.4705  0.0725
27613W        W44087  15.912  10.865   1.538  0.1337  0.1903  0.3676
27614W        W44088   9.265   8.104   3.573  0.0268 -0.0803  0.2217
27615W        W44089   5.712   3.927   4.978 -0.2049 -0.2650 -0.2085
27616W        W44090   0.281   7.015  12.345 -0.1309  0.0529  0.1230
27617W        W44091  14.245   2.465  12.651  0.1211 -0.1824 -0.0583
27618W        W44092  15.288  12.768   2.419 -0.0266  0.0632 -0.0761
27619W        W44093   3.353   3.477   5.899 -0.3587  0.0432 -0.0786
27620W        W44094  11.324  16.900  12.996 -0.0515  0.0636  0.1847
27621W        W44095  13.602   8.819  10.519 -0.0967  0.0036  0.1430
27622W        W44096  15.143  16.154  16.072 -0.3118 -0.0830  0.0233
27623W        W44097  16.254   0.753  11.789  0.3379 -0.0093 -0.0079
27624W        W44098   6.457   4.078  13.446 -0.0039  0.1624 -0.0115
27625W        W44099  11.466  17.065   1.279 -0.0352  0.0286  0.1350
27626W        W44100  10.737  12.110   3.219  0.0103  0.0882  0.1050
27627W        W44101  10.964  11.970  15.065 -0.3229  0.4337 -0.2557
27628W        W44102   4.808   9.473   4.055  0.1125  0.2490  0.0264
27629W        W44103   1.518  12.324   4.073 -0.1651  0.1644 -0.1849
27630W        W44104   6.704   0.650   4.849  0.2644  0.3055 -0.2190
27631W        W44105   4.386   4.462  13.934 -0.3841  0.2072  0.0245
27632W        W44106   1.373   0.367  11.961 -0.0378 -0.1869 -0.1878
27633W        W44107  11.845  12.298  14.227 -0.1087  0.0669 -0.1495
27634W        W44108  14.328  10.424  13.143  0.1337  0.1279  0.1357
27635W        W44109  10.776   2.589   3.624 -0.0249 -0.0006  0.0024
27636W        W44110   5.879  17.164  13.812  0.1435 -0.0698 -0.0953
27637W        W44111  13.802   6.039   2.659 -0.2244  0.2337  0.2055
27638W        W44112   0.038   9.257  11.843  0.1686  0.0916 -0.0334
27639W        W44113  15.140   2.943  13.560 -0.3195 -0.3080 -0.3009
27640W        W44114   1.063  10.114  14.609 -0.1639 -0.0866  0.1108
27641W        W44115   5.664  16.249  12.075  0.3486  0.1708 -0.0375
27642W        W44116   1.201  17.344   3.045  0.3799  0.0653 -0.0411
27643W        W44117   4.417   3.100  16.235 -0.1580 -0.0293  0.3071
27644W        W44118   9.697   2.992   4.757 -0.0592 -0.0437  0.0268
27645W        W44119   7.525   4.040  14.925  0.0374  0.1393  0.0529
27646W        W44120  13.564   3.499   3.017  0.0837  0.2684 -0.0829
27647W        W44121   1.023   6.529   1.771  0.2188 -0.0937  0.0390
27648W        W44122   8.434   0.071  16.299 -0.1908 -0.1901 -0.2477
27649W        W44123  12.201   5.590  12.911 -0.1807 -0.1442 -0.3360
27650W        W44124   0.749   8.738  16.203 -0.0286 -0.0576 -0.2526
27651W        W44125  15.449  12.209   5.314  0.1125  0.2968  0.2290
27652W        W44126  14.568  16.727  13.475 -0.2363  0.1740  0.2613
27653W        W44127   5.084  10.452   1.410  0.3103  0.0652 -0.0431
27654W        W44128   2.894  11.215   3.336  0.1622  0.0448 -0.0931
27655W        W44129  15.536   6.421   4.127 -0.3336 -0.3911  0.2055
27656W        W44130  14.459   6.076  14.587  0.2869 -0.0253 -0.1338
27657W        W44131  12.118  14.262  12.245  0.2171  0.2283  0.1944
27658W        W44132  13.836   4.588  14.962 -0.0718  0.2713 -0.3713
27659W        W44133  12.628   8.776   4.798  0.1541  0.0347  0.1603
27660W        W44134  11.766  15.951   3.809  0.1530 -0.0228  0.2197
27661W        W44135   0.468  14.715  14.964 -0.1294 -0.3335 -0.1896
27662W        W44136   4.385  16.074   3.170  0.0563 -0.0547  0.1636
27663W        W44137  12.237   6.848   0.272 -0.0576  0.0773 -0.1217
27664W        W44138   1.468  12.143  14.774 -0.0665 -0.1068  0.0865
27665W        W44139  11.691  15.296  14.716  0.3924  0.0507  0.0353
27666W        W44140  14.618   2.928  12.949 -0.2072  0.1692  0.0529
27667W        W44141  12.706  11.130  12.618  0.0803 -0.0100 -0.3473
27668W        W44142  11.241  14.760   1.771 -0.1038  0.3390  0.0268
27669W        W44143  17.624   8.518   5.133 -0.0101 -0.1330 -0.1253
27670W        W44144  12.406   1.707   4.277 -0.0398 -0.2421  0.3880
27671W        W44145  13.068   9.454  12.927 -0.0480 -0.0820 -0.0430
27672W        W44146   5.153  16.057  15.171  0.0302  0.2495 -0.2068
27673W        W44147  10.911  15.745  13.220 -0.0178  0.0956  0.0242
27674W        W44148  13.344  15.996   3.364  0.0164  0.2985 -0.1973
27675W        W44149  12.550  12.901   2.947  0.1900  0.0059  0.0440
27676W        W44150   3.934  12.787  15.399  0.1410  0.0176  0.0318
27677W        W44151   0.985  15.082   4.122  0.0663  0.0107 -0.1679
27678W        W44152   8.066   3.384  16.180 -0.1689  0.2130  0.2561
27679W        W44153   5.368   4.865  11.500  0.0423  0.2276 -0.2798
27680W        W44154   3.010   1.598  11.083  0.1647  0.2387  0.2363
27681W        W44155  10.392  13.726   5.624  0.2522 -0.0717  0.0207
27682W        W44156   9.616  16.747   4.756  0.3244 -0.2064  0.0747
27683W        W44157  16.753  15.254   3.202  0.3183 -0.0758  0.1719
27684W        W44158   5.882   7.636  15.218 -0.4234  0.2414  0.1921
27685W        W44159   9.095   9.011   4.391 -0.0108  0.0032 -0.2609
27686W        W44160  11.165   3.554   2.442 -0.1354  0.0576  0.1856
27687W        W44161  15.602   7.911  15.763 -0.0410  0.1721 -0.0792
27688W        W44162   4.300   7.298   5.834 -0.5017  0.1116 -0.2909
27689W        W44163  15.341  17.593  14.957 -0.0694 -0.0602  0.2573
27690W        W44164  10.303   1.039   3.446 -0.2611  0.0712  0.1287
27691W        W44165  16.614  12.230  15.043 -0.2965 -0.2240  0.0729
27692W        W44166  12.287   1.144  14.649 -0.1346 -0.0317 -0.0043
27693W        W44167   4.834  16.061   1.151  0.0255  0.0453  0.0766
27694W        W44168  15.133  12.727   0.060 -0.2056  0.1227  0.0855
27695W        W44169  12.552   9.429  13.750  0.2030  0.1616 -0.1680
27696W        W44170  15.666   6.949  14.224  0.0914  0.2138  0.0706
27697W        W44171  18.100  15.104  15.235 -0.0485 -0.0529 -0.4676
27698W        W44172  14.524  10.446   1.349  0.0447  0.2389 -0.2538
27699W        W44173  12.161   7.184  13.288 -0.1823  0.2274  0.0860
27700W        W44174   0.029  14.564   4.816 -0.4270 -0.3289  0.1318
27701W        W44175   7.056  16.929   0.478 -0.2461  0.2896  0.0941
27702W        W44176   0.925  15.945   2.636  0.0329  0.0252 -0.0907
27703W        W44177   7.903  15.708   2.756 -0.3028 -0.1273  0.0856
27704W        W44178   1.139   9.981  11.166 -0.0563 -0.0387  0.1453
27705W        W44179   6.662  14.149  13.494 -0.2257 -0.2257 -0.0674
27706W        W44180  11.799   6.797   4.790  0.0895  0.3204  0.2697
27707W        W44181   5.761   0.426   4.813 -0.4329  0.0916  0.0021
27708W        W44182  13.840  14.399   2.661  0.2831 -0.4618  0.0837
27709W        W44183  15.346   0.035   3.072  0.0184  0.0826 -0.1015
27710W        W44184   0.426   1.758   2.545  0.0733 -0.1009  0.1671
27711W        W44185  15.464  15.107   3.990 -0.1157 -0.2426  0.0173
27712W        W44186   0.884  16.303  14.651  0.1511 -0.0487 -0.4629
27713W        W44187   1.231  14.780  15.677  0.1772 -0.1929  0.1546
27714W        W44188   0.764   0.617  15.518  0.1602  0.1057  0.0363
27715W        W44189   3.779   7.564   1.550 -0.2260 -0.3263 -0.2553
27716W        W44190  10.766  14.660   0.877  0.4977  0.2311  0.0198
27717W        W44191   7.997   4.780  13.454 -0.0491 -0.3978 -0.2742
27718W        W44192   8.028   8.677  13.512  0.0166 -0.0099 -0.3479
27719W        W44193   9.524  10.064   3.952 -0.1292  0.0057 -0.1962
27720W        W44194   4.415  11.692   0.326 -0.2785 -0.1222 -0.1662
27721W        W44195   0.820   5.749   4.396 -0.3844  0.4127  0.1672
27722W        W44196   6.782   1.478  13.363 -0.2375  0.0953 -0.1645
27723W        W44197   3.118   5.678  11.073  0.0863  0.1000  0.0425
27724W        W44198  12.002  17.665   2.129  0.1152  0.1513  0.1501
27725W        W44199  10.327   7.978  13.538  0.0750 -0.1023  0.3861
27726W        W44200  14.372   3.469   3.713 -0.0155 -0.0846  0.1298
27727W        W44201   0.861  10.812   4.545  0.1558 -0.2801 -0.4357
27728W        W44202   0.538   5.663  15.106 -0.1075  0.0878  0.0691
27729W        W44203  17.491  13.482  13.526  0.2209  0.1728 -0.1473
27730W        W44204  17.042  17.724   2.781  0.0852 -0.1892 -0.0687
27731W        W44205  13.680   4.961  11.519 -0.2721  0.3651  0.3014
27732W        W44206  18.042   0.290  14.382 -0.2036 -0.0059 -0.0699
27733W        W44207   1.565   6.307   4.630  0.0552  0.1267 -0.2564
27734W        W44208   5.827   5.860  16.304  0.1449 -0.0044 -0.2504
27735W        W44209   4.794   6.347  13.153 -0.1556 -0.2686  0.1376
27736W        W44210  14.897  16.953  11.927 -0.0166 -0.0863  0.2949
27737W        W44211  12.422  16.855   4.678  0.0984  0.0268 -0.0793
27738W        W44212  11.263  14.954  14.590  0.1932 -0.2254 -0.0143
27739W        W44213   8.627   3.016  13.181 -0.2939  0.2190  0.1466
27740W        W44214   4.482  12.742  15.921  0.1229 -0.1375  0.0253
27741W        W44215   7.006  17.479   4.593  0.1901 -0.0698 -0.0327
27742W        W44216   9.363  13.332  14.890  0.0150  0.3353  0.2214
27743W        W44217   1.754   8.222   1.512  0.0845  0.2440 -0.1938
27744W        W44218   8.606  12.997   2.165  0.0534  0.2438  0.1255
27745W        W44219   6.209   5.106   3.773  0.0868  0.1117  0.2065
27746W        W44220   7.447  13.638  13.542 -0.1243 -0.2577  0.1534
27747W        W44221   6.735   3.594   1.383  0.3402 -0.2894 -0.1345
27748W        W44222   4.135  11.503  12.763 -0.2997 -0.2294 -0.1454
27749W        W44223   9.934  17.608   4.122  0.2474 -0.0801  0.2979
27750W        W44224   9.343   2.084  13.927  0.0262 -0.1038 -0.3004
27751W        W44225  17.336  14.602  12.996 -0.2837  0.0208  0.1948
27752W        W44226  12.537   8.041  11.855 -0.0980 -0.0549 -0.0845
27753W        W44227  11.378   3.542   4.042 -0.0918  0.4450 -0.4142
27754W        W44228  17.125   0.943  11.562 -0.1765 -0.2498  0.2174
27755W        W44229  12.272   0.215  12.267 -0.1312  0.1703 -0.1324
27756W        W44230   9.654  16.405   4.400 -0.0227 -0.0859 -0.0954
27757W        W44231  13.564  17.590   0.276 -0.1774  0.1586  0.0376
27758W        W44232   2.285   6.305   2.379  0.2849  0.0332  0.4124
27759W        W44233   0.205  16.527   2.050 -0.0475  0.0617 -0.0355
27760W        W44234  17.015  18.069   1.071 -0.0921 -0.0190  0.0710
27761W        W44235   1.348   4.050  13.042 -0.1195 -0.1781  0.0557
27762W        W44236  13.235  13.440   4.281 -0.0094  0.0269  0.1095
27763W        W44237  13.519  17.617   4.939 -0.2566  0.0061 -0.3397
27764W        W44238  10.947  17.795   3.694 -0.0068 -0.1175 -0.0208
27765W        W44239   7.381  13.885  14.180 -0.0275 -0.0795 -0.0002
27766W        W44240  14.933  15.235  15.878 -0.1582  0.4131  0.0897
27767W        W44241  10.425  18.083   2.874  0.1443  0.0035  0.3133
27768W        W44242  12.153  10.745  14.934  0.1349  0.1114 -0.0228
27769W        W44243   1.863   6.670  12.558  0.0283 -0.0668 -0.0908
27770W        W44244  17.193   7.736  15.224  0.3576 -0.1577  0.1249
27771W        W44245   0.980  17.459   1.607  0.1521  0.1488  0.0669
27772W        W44246  15.700   0.595   0.698 -0.0593 -0.0955 -0.0033
27773W        W44247   7.308   1.491  13.500 -0.0610 -0.4253  0.1335
27774W        W44248  15.849   7.735  13.710  0.0489 -0.2964  0.2398
27775W        W44249  13.368  14.704  12.943  0.3860 -0.0995 -0.1193
27776W        W44250   2.773  14.222   4.675  0.0620 -0.1458  0.0401
27777W        W44251  11.207  17.074   0.869 -0.0202 -0.0838 -0.1569
27778W        W44252  17.678   8.911  14.791  0.0874  0.2026  0.1367
27779W        W44253   3.524   9.767  13.877 -0.1128 -0.3117  0.2012
27780W        W44254  15.732   6.253   3.632 -0.0223 -0.0214  0.0967
27781W        W44255  18.183  17.393   9.751  0.1046  0.0584 -0.0056
27782W        W44256   4.308   4.148  13.481 -0.3237  0.1031  0.0672
27783W        W44257   5.991   0.939  15.562 -0.0581  0.0425 -0.0307
27784W        W44258   7.293   4.728  12.217  0.0998  0.1486 -0.1910
27785W        W44259  17.748  10.968  14.793  0.0167  0.1919  0.1414
27786W        W44260   4.959   0.608   4.300 -0.2483 -0.1752  0.1230
27787W        W44261   0.803   5.353  12.111 -0.0122 -0.3524 -0.1222
27788W        W44262   7.220   8.828  15.534  0.1276  0.1009  0.0041
27789W        W44263  16.638   1.814   5.012 -0.1644 -0.0327  0.1090
27790W        W44264   4.287   1.626   4.491 -0.0095 -0.1518 -0.0668
27791W        W44265   1.953  12.183  13.271  0.1000  0.2072 -0.1727
27792W        W44266  15.629  15.967   5.587 -0.1620  0.0314 -0.1598
27793W        W44267   9.035  10.254   5.447  0.3534 -0.0217  0.0403
27794W        W44268   8.361   5.439   5.808 -0.0230 -0.2527 -0.0863
27795W        W44269   2.952   6.698   1.875 -0.0630 -0.1232  0.3582
27796W        W44270  13.145   8.237   1.029  0.2708  0.0520 -0.0228
27797W        W44271  12.389   3.737   2.030 -0.1128  0.0378 -0.2541
27798W        W44272   0.647  16.647  15.022 -0.0123 -0.1284 -0.0350
27799W        W44273   0.662  10.978  13.311  0.0420 -0.0764  0.0806
27800W        W44274  11.892   7.769   2.048 -0.3324  0.2106 -0.1392
27801W        W44275   9.304   2.897  12.805 -0.4044  0.0224  0.0074
27802W        W44276  17.397   3.996   2.227 -0.1928 -0.2143 -0.1690
27803W        W44277   8.763  10.557   5.727  0.1087  0.2295 -0.1066
27804W        W44278   3.751  13.665  15.895 -0.1004 -0.2087  0.0173
27805W        W44279  14.514   5.450   5.347  0.3043 -0.1757  0.1582
27806W        W44280  17.271  14.143  11.274  0.0443 -0.1149 -0.1369
27807W        W44281   3.495   1.455  15.844 -0.0527 -0.1944  0.2075
27808W        W44282   6.597  16.406   3.080 -0.0107  0.0994  0.1070
27809W        W44283   5.358  16.648  12.319 -0.0344  0.1173 -0.2200
27810W        W44284   8.390   2.278   0.567 -0.1560  0.0027 -0.2595
27811W        W44285  17.689   6.310   0.141 -0.1545  0.3619 -0.0954
27812W        W44286  11.926  16.244  16.006 -0.0256 -0.1254 -0.1633
27813W        W44287   3.002  11.266  12.142 -0.0681  0.3603 -0.0307
27814W        W44288   4.723   9.449  15.683  0.0355 -0.0578 -0.2455
27815W        W44289   8.782   0.697   0.501 -0.1326  0.1434 -0.1246
27816W        W44290   8.208  13.775   2.473 -0.0556 -0.2439 -0.3838
27817W        W44291  11.082   9.949  14.736 -0.0489 -0.0734 -0.1177
27818W        W44292   5.344  11.546   0.387 -0.2610  0.1480 -0.0431
27819W        W44293  15.137   3.102   4.534  0.0885 -0.1339  0.0074
27820W        W44294   3.781  15.774   5.169 -0.0832 -0.0472 -0.0205
27821W        W44295   4.823  10.883  15.011 -0.0474 -0.2129  0.2374
27822W        W44296  13.512  11.798  15.731  0.0546  0.0074 -0.1986
27823W        W44297  15.952  16.466   4.367 -0.2555  0.1204 -0.0817
27824W        W44298   5.275  16.306   3.208  0.0157 -0.1272  0.0524
27825W        W44299   5.602  15.954   2.297 -0.1272 -0.1058 -0.2590
27826W        W44300   5.239   4.684  13.653  0.1458  0.0550 -0.2793
27827W        W44301  12.370  15.253  13.624  0.2741  0.0886 -0.0788
27828W        W44302  12.678   9.689  12.207 -0.1041 -0.1481  0.0787
27829W        W44303   2.522   5.789  14.226 -0.0953  0.1283 -0.1218
27830W        W44304  14.583   0.593  11.043 -0.0581  0.0812  0.0052
27831W        W44305  12.138  17.102   0.663 -0.0639 -0.2475 -0.0511
27832W        W44306   2.268   2.253  13.512 -0.2235  0.0895  0.1133
27833W        W44307   6.357   3.095   1.414 -0.1735  0.1277 -0.1057
27834W        W44308  12.450  11.717   4.993  0.1981 -0.0663  0.0388
27835W        W44309  16.753   1.768   1.199  0.1920  0.0625  0.0550
27836W        W44310  15.999   9.145  13.472 -0.2816 -0.0103 -0.0441
27837W        W44311   8.583  11.093  15.569 -0.0546 -0.1232 -0.0652
27838W        W44312   7.962  12.728   5.645 -0.0598  0.0098  0.0167
27839W        W44313   8.830   3.782  12.200 -0.2733  0.0798  0.2278
27840W        W44314  13.824   6.605  15.553 -0.0190  0.0651 -0.1236
27841W        W44315   5.254   9.237   1.359  0.1565  0.0038  0.1870
27842W        W44316  13.969   6.080   1.529 -0.0659  0.0908  0.1955
27843W        W44317  13.357  12.861  13.783 -0.0006  0.2301 -0.0648
27844W        W44318  17.087  11.424   3.733  0.1835  0.2088 -0.0845
27845W        W44319   2.354   4.407  16.286 -0.1922 -0.2247 -0.1615
27846W        W44320   2.495   7.675  13.389  0.4910  0.1980 -0.1121
27847W        W44321  17.051   6.889  13.805 -0.2042 -0.2577  0.2510
27848W        W44322   3.194   7.254  14.831  0.1780  0.1024 -0.0778
27849W        W44323  10.598   0.682  14.859  0.0370  0.1344 -0.0915
27850W        W44324   2.663  17.361  14.463 -0.0559  0.3172  0.2214
27851W        W44325  14.829   5.220  12.712 -0.0786  0.2769 -0.2252
27852W        W44326  17.443  13.019  12.561 -0.1223  0.1344  0.2561
27853W        W44327  10.179  15.034  13.103  0.0278 -0.0022  0.1237
27854W        W44328   0.057  12.370   2.119  0.0036  0.1354 -0.2312
27855W        W44329   3.633   6.141  11.733 -0.0474  0.1520 -0.1130
27856W        W44330   2.778   7.521   3.102  0.2595 -0.0863 -0.1050
27857W        W44331  11.164   1.740   5.529 -0.0070  0.2004  0.0158
27858W        W44332   6.525  17.377  15.157 -0.0646  0.0401 -0.0700
27859W        W44333  17.739  11.300  15.713 -0.2229  0.0251 -0.0560
27860W        W44334   1.889  17.321  12.782 -0.0443 -0.1191  0.1729
27861W        W44335   6.088   6.447   0.890  0.0174 -0.0734  0.1497
27862W        W44336  18.008   3.659   1.907 -0.1019 -0.2640 -0.1588
27863W        W44337  16.488   0.499   2.947  0.2359  0.2130 -0.0490
27864W        W44338  13.014  14.690  16.109  0.0644 -0.0652  0.0495
27865W        W44339  15.561  10.637   3.318 -0.1250 -0.2280 -0.3220
27866W        W44340   1.068   3.727  13.965  0.0912  0.0484  0.1587
27867W        W44341   6.347  16.324  12.294 -0.1279 -0.2106 -0.1725
27868W        W44342   3.414   7.276   0.079 -0.2695  0.0841  0.0152
27869W        W44343  11.069   2.130  12.802 -0.0582  0.2732  0.2289
27870W        W44344  13.135  12.679   3.747 -0.0885  0.3440  0.3907
27871W        W44345   1.385  10.595  15.628  0.0939 -0.0065 -0.2056
27872W        W44346   1.083   0.888   2.539  0.0980  0.1407  0.1059
27873W        W44347  10.419  11.517  15.628 -0.0853  0.1339 -0.1808
27874W        W44348   4.014   3.635   2.007 -0.0499 -0.0399 -0.1857
27875W        W44349   7.478  15.149   3.404  0.0858  0.0648  0.3284
27876W        W44350  18.032  11.118  14.371 -0.2227 -0.1707 -0.2367
27877W        W44351   5.088  13.360   1.268  0.0104  0.0458  0.1156
27878W        W44352  11.702  17.333   4.076  0.0818 -0.1630  0.2415
27879W        W44353   9.177  13.816   3.889 -0.1888 -0.2968 -0.0896
27880W        W44354   6.972   4.297   4.845 -0.2351  0.0390 -0.0535
27881W        W44355  17.167  16.910  15.419  0.1562  0.2663 -0.2301
27882W        W44356   3.987   7.065  14.183  0.1912  0.3384  0.0269
27883W        W44357  15.568  17.789   4.217 -0.0388 -0.0768 -0.4199
27884W        W44358   5.882  11.744  12.309 -0.0106 -0.1937  0.4016
27885W        W44359   6.550  13.220  14.756  0.1513  0.0735  0.2512
27886W        W44360  10.597  11.357  12.082 -0.1516 -0.0122 -0.2360
27887W        W44361   7.937   2.970   0.137  0.0443 -0.1209  0.0794
27888W        W44362  11.558  17.100  16.313 -0.0082 -0.3997 -0.0217
27889W        W44363   1.739   9.890   0.489  0.3828 -0.1335  0.1582
27890W        W44364  14.739  10.074   4.996  0.1987  0.0171 -0.1400
27891W        W44365   0.785  12.132  11.004  0.1184  0.0734 -0.0562
27892W        W44366  17.705   2.299  11.384 -0.0638 -0.3140  0.1604
27893W        W44367   6.388   4.692   1.842  0.2184 -0.0117  0.0428
27894W        W44368   2.433   5.298   3.303 -0.4248 -0.1478  0.1611
27895W        W44369  14.023   8.326   1.400 -0.0571 -0.2573 -0.2241
27896W        W44370  11.907   4.374  13.654 -0.0939 -0.0330 -0.1754
27897W        W44371   3.704   3.464  12.333  0.1646  0.0059  0.0104
27898W        W44372   1.904   9.108   5.162  0.1349 -0.0183 -0.0969
27899W        W44373  15.147   7.064   0.873  0.0057  0.2329  0.0912
27900W        W44374   0.443  12.613  11.901 -0.2090  0.2237  0.4918
27901W        W44375   4.796  13.806   3.674 -0.0691  0.0567 -0.4614
27902W        W44376  15.449  11.118   4.464  0.1055 -0.1802 -0.0579
27903W        W44377  10.874   7.288   1.297  0.1469 -0.1688  0.0582
27904W        W44378   5.437  12.155   4.881 -0.0218  0.3584 -0.0620
27905W        W44379   0.600   1.560  12.815 -0.0465 -0.0409  0.3258
27906W        W44380  12.370  11.981  12.691  0.1607  0.0035  0.0442
27907W        W44381   5.410   5.145   5.155  0.1409 -0.2562  0.2908
27908W        W44382  15.749   8.283  14.462 -0.1280 -0.0513  0.1543
27909W        W44383   3.399   0.263   5.392  0.0843  0.1517  0.2538
27910W        W44384   5.431   8.160   0.482  0.2234 -0.1069  0.1189
27911W        W44385  15.364  15.138   4.520 -0.0096  0.2189 -0.0409
27912W        W44386   9.490   9.216  13.304  0.0054 -0.0514 -0.1863
27913W        W44387   0.754   6.311  12.982 -0.0710 -0.2602 -0.0055
27914W        W44388   2.298  11.610   1.985  0.0218  0.1672 -0.0809
27915W        W44389   8.276   7.029   0.713 -0.0782  0.0694  0.0171
27916W        W44390  11.349   9.942   3.622  0.1720  0.0180 -0.0803
27917W        W44391   4.749   1.030  12.171  0.2346 -0.0131 -0.1302
27918W        W44392   4.031   0.295   3.737 -0.1807 -0.3546  0.2293
27919W        W44393   6.298  16.636  12.688 -0.0351  0.0130  0.0822
27920W        W44394   2.992   8.717  13.668  0.0810  0.0221 -0.0790
27921W        W44395  15.132  16.930  15.894 -0.1661  0.1695 -0.2139
27922W        W44396   3.593   4.062   2.785 -0.1613  0.0555  0.0387
27923W        W44397   1.863   1.220   1.522 -0.1233 -0.1202  0.2442
27924W        W44398  13.152  14.290   6.089 -0.2717  0.1046 -0.3582
27925W        W44399  17.691  12.805  13.295 -0.1340  0.1053  0.4549
27926W        W44400   2.775   7.058   4.256  0.1448 -0.0613  0.1001
27927W        W44401   9.616   1.154  14.776  0.1591 -0.2599 -0.1396
27928W        W44402  15.108   3.112  15.029  0.0846 -0.3763 -0.0270
27929W        W44403   4.195  16.297   1.864 -0.0971 -0.0822  0.2373
27930W        W44404  15.015  11.562  15.325 -0.0644 -0.2950  0.0361
27931W        W44405  15.592   8.082   3.266 -0.0640  0.3452  0.2362
27932W        W44406  15.130  15.662   2.215 -0.0039 -0.0328 -0.0871
27933W        W44407   2.203  12.516   2.539 -0.1115  0.0391  0.0404
27934W        W44408   9.229  16.900   5.006  0.0024  0.1840 -0.2754
27935W        W44409   7.997   8.868  15.335 -0.0061  0.0241 -0.3233
27936W        W44410   9.494   2.913  13.284  0.0218 -0.4820 -0.0791
27937W        W44411   1.020  16.954  15.139 -0.2802  0.4508  0.0085
27938W        W44412   5.005  10.463   0.094  0.2014  0.1499  0.0228
27939W        W44413  10.562   9.999  13.738  0.2088  0.0009  0.1258
27940W        W44414   7.965   8.825   4.000 -0.1059  0.1002 -0.0007
27941W        W44415   9.930   6.066   1.933 -0.0045  0.0909  0.2236
27942W        W44416   6.063  15.786  14.992  0.0710  0.1770 -0.2145
27943W        W44417   0.788   4.801  11.454  0.4437  0.0460 -0.1238
27944W        W44418  13.181   4.396   2.834 -0.1444 -0.0130  0.0237
27945W        W44419  12.208   2.923   3.873  0.0477  0.1558 -0.0899
27946W        W44420   8.047  16.455   3.137  0.2468  0.1447  0.3572
27947W        W44421  13.799   0.441  13.102 -0.1413  0.0736 -0.1537
27948W        W44422  15.397   5.124  15.885  0.1925  0.1116  0.2175
27949W        W44423   3.466  15.124   1.957 -0.2686  0.1605  0.0587
27950W        W44424   2.376  15.002   0.220  0.1108 -0.4570  0.0904
27951W        W44425  11.557   0.065  14.035 -0.0456  0.1520 -0.0283
27952W        W44426   5.770   5.285  13.341 -0.1825  0.2318  0.0524
27953W        W44427  13.317   7.920  14.831 -0.4908  0.0743  0.3347
27954W        W44428   4.035   2.102   5.216  0.1368 -0.3172  0.1726
27955W        W44429   2.514   6.011   4.683 -0.2980  0.0163 -0.2651
27956W        W44430   0.369  13.612  12.654  0.2196  0.2341  0.0248
27957W        W44431   3.105  14.591   3.947  0.0013 -0.0627 -0.0572
27958W        W44432   9.905  10.789   5.032 -0.0509 -0.3856  0.2044
27959W        W44433  15.161  14.368   0.901  0.0696 -0.0190  0.1671
27960W        W44434  10.941  15.773   4.158  0.2721 -0.2362 -0.0281
27961W        W44435   6.261   1.346  11.316 -0.2083 -0.0392  0.1165
27962W        W44436   9.515  16.588   0.558  0.2923 -0.1032  0.0008
27963W        W44437   9.817   3.702  12.936  0.0889 -0.0929  0.4007
27964W        W44438  15.757   4.915  13.104  0.1283 -0.2381  0.2313
27965W        W44439   8.066   7.273   2.365  0.1284 -0.0134 -0.3921
27966W        W44440  16.320  15.601  13.425  0.0158  0.1618  0.1713
27967W        W44441  11.667  18.132   4.455  0.1183 -0.2103  0.0175
27968W        W44442   1.682   1.959   1.947  0.0119  0.1070 -0.5849
27969W        W44443   1.774  16.747  11.464  0.2117 -0.0114 -0.0316
27970W        W44444  14.810   6.724  15.858  0.0646  0.1067  0.1375
27971W        W44445  13.448   9.336  12.303 -0.1834  0.1494  0.0930
27972W        W44446   0.444   3.022   4.450 -0.1252  0.0499  0.0546
27973W        W44447  15.979   2.592   5.448  0.0303  0.1957 -0.2357
27974W        W44448   1.330   6.027   4.277  0.0297  0.0970 -0.1357
27975W        W44449   6.688  16.051  12.087 -0.2013 -0.1115  0.1213
27976W        W44450  16.951  15.040   1.614 -0.0049  0.0757  0.0320
27977W        W44451   9.041   6.957  13.902  0.0299 -0.1303 -0.1611
27978W        W44452  17.720  16.738  12.577  0.2637 -0.2449  0.0670
27979W        W44453   3.615  11.401   1.638  0.0033  0.0071  0.2210
27980W        W44454   1.182  18.013   4.456 -0.2679  0.0840  0.1506
27981W        W44455  16.556  11.057  14.493  0.1500 -0.0665  0.0251
27982W        W44456  15.557   3.946   5.030 -0.0825 -0.2066  0.0708
27983W        W44457   2.552  10.510  12.380 -0.0509  0.0739  0.1173
27984W        W44458  13.818  10.292  15.836 -0.0912  0.1350  0.0853
27985W        W44459  14.522   0.549  12.468  0.1236  0.0108  0.3237
27986W        W44460  17.126   6.373  15.019  0.2364  0.1912 -0.1909
27987W        W44461   4.258   2.133  15.609 -0.1180  0.1639  0.0728
27988W        W44462  10.135   0.141   3.047 -0.2492 -0.0263 -0.2705
27989W        W44463   1.657  15.752   2.084 -0.1909  0.0942  0.1261
27990W        W44464   6.939   8.032   2.369  0.1012 -0.0143  0.0062
27991W        W44465   4.178   8.836   3.762 -0.0148  0.0218 -0.2371
27992W        W44466   2.357   6.316   5.713 -0.0131 -0.2100 -0.0234
27993W        W44467  13.710   7.691  15.810  0.0897 -0.2681 -0.1441
27994W        W44468  12.709   5.092  10.659 -0.1489 -0.2398  0.0035
27995W        W44469   9.501   6.419  12.684  0.0448  0.1739  0.2340
27996W        W44470   5.592  17.793  12.971  0.0078  0.0895  0.0680
27997W        W44471   7.247  13.498  14.510  0.0057 -0.3793 -0.1649
27998W        W44472  12.638   6.057   4.041 -0.2867 -0.1118 -0.1257
27999W        W44473   3.297  11.971  14.440  0.0883  0.4196  0.2358
28000W        W44474  14.858  10.842   5.511 -0.1072  0.1175 -0.1774
28001W        W44475  11.050   6.893   3.753  0.1634 -0.1905  0.2567
28002W        W44476   4.566  15.519  15.670 -0.1089 -0.1150  0.0512
28003W        W44477   8.294   9.733   3.078 -0.0742 -0.3461  0.3694
28004W        W44478   0.459  10.918  15.436  0.0203 -0.1468  0.0805
28005W        W44479   6.736  16.056  16.072 -0.1569 -0.0646 -0.5114
28006W        W44480  14.248   0.567   1.766 -0.1111 -0.0711  0.1858
28007W        W44481   0.664  14.020   5.880  0.1578 -0.1286 -0.0064
28008W        W44482  16.599  17.413   2.788  0.0616 -0.3613  0.1436
28009W        W44483  12.578   3.251   3.665 -0.2657 -0.0656  0.0027
28010W        W44484   1.269   0.541  15.487 -0.1329  0.0297  0.2888
28011W        W44485   6.424  13.650   1.841  0.1629  0.3111 -0.1616
28012W        W44486   7.122   1.041  14.678 -0.0099 -0.0448 -0.0444
28013W        W44487   9.269  13.939   4.446  0.0380 -0.0499  0.0785
28014W        W44488   8.569  11.372  11.782 -0.1338  0.0878 -0.2687
28015W        W44489  12.066   3.813  12.080 -0.0936 -0.2543  0.2153
28016W        W44490   4.022  13.740   3.864 -0.0059  0.0606 -0.1709
28017W        W44491  15.171  18.087   0.543 -0.3714  0.1916  0.2403
28018W        W44492  16.522  13.448  12.370  0.3006 -0.1991 -0.3586
28019W        W44493   7.983   9.742  12.058  0.1508 -0.1241 -0.0648
28020W        W44494   9.653  16.615   3.262  0.2133 -0.0057  0.1408
28021W        W44495   1.796   8.675   1.283  0.1776  0.1127  0.1214
28022W        W44496  10.748   8.643   4.213  0.0351  0.1577 -0.1909
28023W        W44497   5.962  12.912   3.521 -0.1741 -0.2008  0.1108
28024W        W44498   6.946   8.125   3.893  0.0892 -0.0697  0.2238
28025W        W44499   0.338  15.180   0.109 -0.3949  0.0004  0.1546
28026W        W44500  16.460   2.743  11.418 -0.2361 -0.0738 -0.0496
28027W        W44501  11.746  13.154   1.362  0.1714 -0.0528 -0.2875
28028W        W44502   9.078   3.185   0.038  0.1081 -0.0518  0.1942
28029W        W44503   2.018  12.474   0.717  0.0437 -0.0815  0.0717
28030W        W44504  16.939   1.841  13.957  0.1239 -0.0526  0.4557
28031W        W44505   8.395   0.529  15.473  0.1323  0.2099  0.1061
28032W        W44506   9.298   1.422   3.376  0.1656 -0.2680  0.1557
28033W        W44507   6.243   9.337  13.207  0.0171 -0.1349  0.0004
28034W        W44508   7.929   7.974   3.702 -0.1758 -0.3305  0.1389
28035W        W44509  16.337   0.958  11.350 -0.0901  0.0575  0.4339
28036W        W44510  13.625   8.784   0.301 -0.1121  0.2621  0.0905
28037W        W44511   6.419  15.413   4.114  0.2116 -0.0728  0.0648
28038W        W44512  16.591   9.076  12.886  0.2076 -0.2013  0.0643
28039W        W44513  12.465  14.887   4.440 -0.1999 -0.0007  0.0205
28040W        W44514  11.446  12.182   6.530 -0.0225  0.2591  0.1290
28041W        W44515   8.897   2.417  11.099  0.0444 -0.0212  0.1097
28042W        W44516  14.583   0.507  13.795  0.2067  0.0065  0.1008
28043W        W44517  11.339   1.186  13.649 -0.1060  0.1100 -0.3982
28044W        W44518   2.427   4.502   4.421  0.0764  0.0010 -0.1409
28045W        W44519  10.204   0.940   4.835 -0.1245 -0.0553 -0.0311
28046W        W44520  10.085   7.825  13.955  0.0025  0.1816  0.0268
28047W        W44521  12.968  10.608   4.117 -0.1045 -0.0660 -0.0627
28048W        W44522   1.857  12.140   3.457 -0.2955  0.0452 -0.2052
28049W        W44523   7.688  16.168   4.852 -0.5582 -0.1036 -0.0501
28050W        W44524   5.681  11.271   3.463 -0.0712 -0.2831 -0.4242
28051W        W44525   4.080   0.276  11.941  0.5658  0.0266 -0.1485
28052W        W44526   3.014   7.873   0.898  0.1537 -0.1572  0.1255
28053W        W44527   3.544   8.224  12.075  0.1988 -0.1726  0.1952
28054W        W44528   9.046   6.764  14.936 -0.4116 -0.0331 -0.0227
28055W        W44529   2.995  18.008  13.268  0.1765  0.0137  0.0185
28056W        W44530   4.123  16.765  12.603 -0.0932  0.0744  0.2326
28057W        W44531   2.790  15.004   1.136  0.0213 -0.0591  0.1174
28058W        W44532  10.603   5.282  14.100 -0.1997  0.1404 -0.2368
28059W        W44533  15.519   6.217   4.539  0.0372 -0.2367  0.2571
28060W        W44534  11.160  11.547  15.415 -0.2096 -0.1048 -0.2472
28061W        W44535   3.684  16.983  11.393  0.2934 -0.1675 -0.0837
28062W        W44536   9.600  16.440   0.083 -0.0536  0.3371  0.0101
28063W        W44537   3.440  16.344   6.084  0.1942 -0.0651  0.1599
28064W        W44538   7.408   0.170   4.890 -0.2855  0.1139 -0.0158
28065W        W44539   8.800  13.674   2.594 -0.0821 -0.1418 -0.1144
28066W        W44540  10.080  12.955  12.023 -0.1175  0.2782  0.0670
28067W        W44541   6.147  13.419   1.451  0.0359 -0.2359 -0.0754
28068W        W44542   8.490   8.856   3.243 -0.0629  0.1900  0.1204
28069W        W44543  12.981   4.790   0.686  0.1140  0.1755 -0.0041
28070W        W44544   9.761   0.199   4.433 -0.1289  0.3799  0.0044
28071W        W44545  14.475   8.431  13.837  0.1482  0.0574 -0.1200
28072W        W44546   9.086  11.984  11.630  0.2707 -0.0062 -0.1778
28073W        W44547   3.992  10.420  14.519  0.0863  0.2215  0.1310
28074W        W44548   6.195  11.622  15.115 -0.0469  0.0368 -0.0868
28075W        W44549  13.124   6.723   1.394  0.2860  0.2442  0.0328
28076W        W44550   3.768   9.138  15.038 -0.0613  0.1196  0.0619
28077W        W44551  10.749  16.261   2.875  0.1547  0.0459 -0.2582
28078W        W44552  10.058  15.440   0.733 -0.0137  0.0839 -0.1156
28079W        W44553  17.037  15.215   5.094  0.0192 -0.2065  0.0303
28080W        W44554  13.486   7.008   2.763  0.2294 -0.3094 -0.1239
28081W        W44555   3.134   3.307  13.932 -0.3677 -0.0242  0.1702
28082W        W44556  13.450  13.592   2.329  0.0353 -0.1152  0.4395
28083W        W44557   7.935   1.630  10.508  0.1361  0.2572  0.2451
28084W        W44558   7.782  13.723   4.050 -0.2283  0.0499  0.0393
28085W        W44559   6.821   6.912  14.172 -0.2801  0.0101  0.1303
28086W        W44560   4.465   3.178   4.397 -0.0841 -0.4207 -0.0112
28087W        W44561   7.958   7.632   5.596  0.2261 -0.1554 -0.1908
28088W        W44562  14.323   5.009   2.883 -0.2310 -0.1899 -0.2726
28089W        W44563   8.609  11.693   1.044 -0.1152  0.1004 -0.0938
28090W        W44564  12.740  18.136   4.707 -0.1092  0.1250  0.0233
28091W        W44565  12.227   9.096  15.039  0.0191 -0.1671  0.5281
28092W        W44566  17.538  16.124   0.121  0.4134  0.2003 -0.3002
28093W        W44567   7.882   8.659  12.099  0.0160 -0.1521  0.0614
28094W        W44568   6.739  12.685   3.859 -0.1764 -0.0735  0.0303
28095W        W44569   3.534   5.364  15.052 -0.0139 -0.0704  0.0971
28096W        W44570   9.289   1.632   5.795  0.0420  0.0728  0.0421
28097W        W44571  17.309  16.913  12.331  0.0065  0.0388 -0.0997
28098W        W44572   0.102  11.118  13.960  0.1419  0.0564  0.0568
28099W        W44573  11.766  18.274  12.467 -0.1999  0.0995  0.0470
28100W        W44574   0.357  12.093  14.079  0.0005  0.0440  0.2066
28101W        W44575  16.076  12.837  13.802 -0.1666  0.1561  0.0756
28102W        W44576   8.709   0.469   0.006 -0.2036 -0.0482  0.0672
28103W        W44577   6.114   4.848  12.077  0.0157 -0.1222  0.1177
28104W        W44578   4.819  17.413  15.196 -0.2070  0.2844 -0.4946
28105W        W44579  13.514   5.447  12.786 -0.3092  0.2649  0.2496
28106W        W44580  14.804  13.114  12.260 -0.0737  0.0654  0.1267
28107W        W44581  16.045  15.027   1.334 -0.2204 -0.0583  0.0380
28108W        W44582  18.017  16.262  14.240 -0.0710 -0.2530  0.1664
28109W        W44583  18.013   1.515  15.799 -0.0003  0.1395  0.1599
28110W        W44584  11.288   8.917  13.936 -0.0456  0.0885 -0.0033
28111W        W44585  12.016  11.143  12.693  0.1430  0.2115  0.1785
28112W        W44586   8.890   0.822  11.036 -0.0372 -0.1426  0.0896
28113W        W44587  14.769  12.098   0.738  0.1207  0.2950 -0.2312
28114W        W44588  10.071  10.557  10.813  0.0244 -0.0915  0.2353
28115W        W44589  15.021   5.483  13.103  0.1894 -0.2917 -0.0605
28116W        W44590   7.464  14.226  15.079 -0.0663 -0.1137  0.1168
28117W        W44591  11.132   9.051   3.149 -0.2522 -0.1970  0.1252
28118W        W44592   9.212  12.169  13.123  0.1773 -0.0973  0.1796
28119W        W44593   9.992  14.399   1.089  0.0612  0.0908 -0.2812
28120W        W44594  13.271  17.743  15.894 -0.1107  0.1399 -0.1852
28121W        W44595  11.227   9.204   2.648 -0.0663 -0.0077  0.1157
28122W        W44596   3.814   0.382  13.213  0.1109  0.1938  0.2569
28123W        W44597   0.130   7.293  14.606  0.2206 -0.0409 -0.0034
28124W        W44598  14.086   1.981  14.136  0.1177 -0.1969 -0.0984
28125W        W44599  18.309  15.496   0.004 -0.1951 -0.1074 -0.0893
28126W        W44600  15.938  18.267   0.066 -0.2155  0.0755 -0.1568
28127W        W44601  10.796  15.275   3.157 -0.0214  0.1552 -0.4590
28128W        W44602  10.060   0.668  16.212 -0.0044 -0.2175  0.0874
28129W        W44603  11.732   9.526  13.329  0.3077  0.2001 -0.2566
28130W        W44604   6.995   4.165  15.951 -0.0668  0.0341 -0.0390
28131W        W44605   4.429  18.088  14.554 -0.0509  0.0824  0.2907
28132W        W44606  12.224   6.055  14.646 -0.1150 -0.2054 -0.1829
28133W        W44607   7.004   6.302   4.459  0.0676  0.0365 -0.2688
28134W        W44608   3.862  10.005   5.890  0.2355  0.0862 -0.1820
28135W        W44609   4.636   7.190  16.098 -0.1009 -0.0777  0.0886
28136W        W44610   1.566  16.349   0.926 -0.0587 -0.0190  0.0498
28137W        W44611  10.731  17.082   2.381 -0.0665 -0.0019  0.2308
28138W        W44612  13.366   7.744   1.862 -0.1953  0.1256 -0.1168
28139W        W44613  14.240  12.778  16.289  0.4030 -0.0686 -0.2226
28140W        W44614   3.912  14.487   4.413  0.2662  0.0920  0.3791
28141W        W44615  12.002   2.118   4.566 -0.2273  0.2963 -0.1176
28142W        W44616  15.198  11.481   0.946  0.2231  0.4695 -0.0340
28143W        W44617   8.450  16.425   1.220  0.1889 -0.0627 -0.1270
28144W        W44618   1.415   1.161  13.476 -0.1803 -0.0976 -0.0219
28145W        W44619   3.907   9.731   0.592  0.1684 -0.3420  0.1199
28146W        W44620   9.932   2.710   5.081 -0.1946  0.2149  0.0554
28147W        W44621   6.690   8.766  15.687 -0.0004 -0.2972 -0.2916
28148W        W44622   1.081   8.200  11.507  0.0300 -0.1608  0.1934
28149W        W44623   6.849  12.644  13.500 -0.2673  0.0337 -0.0728
28150W        W44624   2.056  12.260   1.557 -0.0696  0.1797  0.0951
28151W        W44625   3.688  15.995   4.411 -0.1677  0.1064  0.1145
28152W        W44626  11.046   9.844  15.671  0.2177  0.1959  0.0190
28153W        W44627  15.167  14.954   0.107  0.2359  0.0778  0.1013
28154W        W44628   1.214   9.728  12.480  0.2149  0.0165  0.2013
28155W        W44629  11.169  16.574  14.988 -0.0336  0.1098  0.0980
28156W        W44630   6.801   7.081  15.096  0.0796 -0.1386 -0.0188
28157W        W44631   1.050   8.973   4.578 -0.2416 -0.3736 -0.0392
28158W        W44632  16.697  13.982   1.975 -0.2919  0.2153  0.1915
28159W        W44633   4.784  15.201  14.974 -0.2622 -0.2251 -0.2294
28160W        W44634   2.440   7.045  13.411  0.0972  0.0722 -0.1838
28161W        W44635   5.179   3.542  11.952 -0.2015  0.1277 -0.0325
28162W        W44636   0.205  11.219  15.731 -0.1606  0.0705 -0.0952
28163W        W44637   1.435   2.943   5.545 -0.1694  0.1396 -0.2852
28164W        W44638   5.654  17.344  14.701  0.1997  0.2510  0.1013
28165W        W44639   7.416  17.303   3.595 -0.0637 -0.0595  0.2639
28166W        W44640   6.111   2.294  13.363 -0.1376 -0.3541  0.0769
28167W        W44641   8.754  16.739   0.998  0.0053 -0.0554 -0.3470
28168W        W44642   5.017   3.858  15.078  0.0490 -0.0958  0.0193
28169W        W44643  16.610  12.165   5.040  0.0469  0.3462  0.1476
28170W        W44644  17.243  16.220   4.761 -0.2851  0.0757  0.0639
28171W        W44645  13.115   0.432   6.012  0.1439 -0.0436  0.1234
28172W        W44646  15.767  14.656   0.966  0.0694 -0.0682  0.3696
28173W        W44647   7.440   7.985   3.690  0.0635  0.0239  0.1853
28174W        W44648  12.176   8.457   4.777 -0.4104 -0.1896  0.1095
28175W        W44649   3.624  14.933   1.175 -0.3953 -0.2481 -0.1657
28176W        W44650  10.941   2.616  12.998  0.0718  0.3090 -0.1777
28177W        W44651  12.997  18.253  15.147 -0.3154 -0.1811 -0.0455
28178W        W44652   1.554   5.812   2.933  0.4171 -0.0920  0.1250
28179W        W44653   7.582   2.709   2.944  0.1509  0.0409  0.2020
28180W        W44654  10.436  16.226   0.428  0.1178  0.0827  0.2931
28181W        W44655  15.942   1.715   0.535  0.0802 -0.0256  0.0891
28182W        W44656   2.955  13.874  13.380  0.0364 -0.1559  0.2279
28183W        W44657  11.805  11.004   6.104 -0.1852 -0.1222  0.1209
28184W        W44658   7.460   7.620   5.750  0.1996  0.3791 -0.2251
28185W        W44659   5.776   1.452  16.220 -0.0213  0.2327 -0.1610
28186W        W44660   8.508  14.588  16.050 -0.1819  0.0743  0.4346
28187W        W44661  16.421   1.765   5.442 -0.0554 -0.0384 -0.0401
28188W        W44662  15.081   0.550  14.888  0.1881  0.2339 -0.1989
28189W        W44663   3.937   5.662  14.005  0.0043 -0.2293 -0.2146
28190W        W44664  17.163  16.007   6.182  0.0558 -0.0373 -0.1252
28191W        W44665   1.516  12.982   3.508 -0.1812 -0.3041  0.7108
28192W        W44666   6.002   5.751  13.507  0.2478 -0.1259 -0.1953
28193W        W44667   0.797  11.767  13.904  0.0634 -0.1101  0.1095
28194W        W44668   6.939   2.220   0.809  0.1386 -0.1868  0.0699
28195W        W44669  15.398   2.610   5.336  0.3596 -0.0788 -0.0067
28196W        W44670  14.463  12.827  15.843 -0.1221  0.1280  0.0245
28197W        W44671   7.095   8.097   1.551 -0.1983 -0.2192 -0.0644
28198W        W44672   8.528  10.199   1.313 -0.4129 -0.0293  0.1161
28199W        W44673   0.389   3.224  13.842  0.4225 -0.1439 -0.7805
28200W        W44674  11.783   1.173   4.418  0.1185  0.1025 -0.0908
28201W        W44675   2.710  10.998  11.773 -0.0343 -0.2118 -0.0124
28202W        W44676   6.186  16.928  14.116 -0.1454  0.1145 -0.1947
28203W        W44677  17.824   4.527   2.626  0.0780 -0.3330  0.3176
28204W        W44678   1.665   2.559   3.850  0.0613  0.0635  0.0320
28205W        W44679   4.127  10.879   1.037 -0.1489  0.1768 -0.0044
28206W        W44680  17.968  14.391  16.219 -0.0449  0.0918 -0.0673
28207W        W44681   8.115  13.215   5.561  0.0407  0.0428 -0.3445
28208W        W44682   4.648  16.691  11.254  0.1902 -0.2601 -0.1341
28209W        W44683  16.386  10.753  15.431 -0.0361  0.3312 -0.4006
28210W        W44684  10.974   6.203  14.779  0.4121  0.1649 -0.0078
28211W        W44685   3.058   3.397  15.270  0.0045 -0.5508  0.0724
28212W        W44686  12.621   8.692   1.032  0.4030 -0.1338 -0.0415
28213W        W44687   6.158   5.940   4.720  0.0031  0.0655 -0.1336
28214W        W44688  13.095  16.413  11.562  0.2671  0.2200 -0.0438
28215W        W44689   0.803   3.131  15.152 -0.0496 -0.0680 -0.2365
28216W        W44690   3.926   4.362  14.064  0.3287 -0.0918 -0.1367
28217W        W44691  12.480   0.080   2.517  0.0580  0.0478 -0.0649
28218W        W44692   7.846   6.726   0.882 -0.1850  0.1081  0.2104
28219W        W44693   1.415  12.051   3.272 -0.0462 -0.2273 -0.1792
28220W        W44694  14.867   1.434  14.574 -0.0317 -0.3721 -0.2061
28221W        W44695   6.226   6.794   4.711  0.2551 -0.0910  0.0365
28222W        W44696   9.664  16.417   3.849  0.0840  0.0440 -0.2851
28223W        W44697   6.849   9.776   5.230  0.1265 -0.1825 -0.3249
28224W        W44698   1.811   6.965  15.938  0.3286  0.0717 -0.0961
28225W        W44699   8.958   1.392   2.104  0.0922 -0.1649  0.0554
28226W        W44700   6.886  17.395  11.391 -0.2277  0.1913  0.1302
28227W        W44701   3.413   2.271  12.190 -0.1051 -0.0086 -0.2099
28228W        W44702  16.042  11.220   4.928 -0.3309  0.0038 -0.2032
28229W        W44703   4.949   0.870   2.609  0.1272  0.0610  0.0306
28230W        W44704  16.048  15.233   0.238  0.1341 -0.1844 -0.2686
28231W        W44705  12.155  14.269  12.822  0.4870 -0.0546 -0.0703
28232W        W44706   8.835  10.022   4.723 -0.0428  0.2643 -0.0365
28233W        W44707  15.399  10.492   1.009  0.1561  0.2318 -0.2369
28234W        W44708  17.276   6.570   2.481 -0.0405 -0.2419  0.3232
28235W        W44709   8.021   0.942  16.187  0.1530  0.2078  0.2516
28236W        W44710   7.454  16.302   0.899  0.3177 -0.1635 -0.1777
28237W        W44711  11.760  11.841   3.335 -0.1072 -0.0283  0.0891
28238W        W44712  17.602   2.898   5.067 -0.2722  0.0806 -0.3353
28239W        W44713  12.727  16.863  14.161  0.2371  0.0293  0.1976
28240W        W44714   8.072  16.465  13.841 -0.0197  0.0836  0.2184
28241W        W44715   5.018  15.561   3.552  0.0393 -0.1218  0.0517
28242W        W44716   7.277   7.511   6.232 -0.0884  0.0213 -0.0633
28243W        W44717  15.488   2.226  14.114  0.2662  0.0097 -0.3020
28244W        W44718  11.648   0.504  13.198  0.1610  0.2900  0.0024
28245W        W44719  12.195   8.123  16.281 -0.1110 -0.2046  0.0014
28246W        W44720  13.336  10.362   2.395  0.0558 -0.2245  0.0875
28247W        W44721  10.682   9.706  16.057  0.0568 -0.2289 -0.0969
28248W        W44722  17.317  12.160  11.534 -0.3300 -0.0068 -0.2317
28249W        W44723   5.490  13.613   6.024  0.1457  0.0715  0.2336
28250W        W44724   8.406   2.762   0.662 -0.0468  0.1225 -0.1081
28251W        W44725  16.175   0.777   0.912  0.0829 -0.1410  0.1027
28252W        W44726  13.845   2.567  15.339  0.1885  0.2152  0.0544
28253W        W44727   9.258   1.556   1.462  0.1843 -0.0842 -0.4016
28254W        W44728   3.415   0.483   4.921 -0.1500 -0.0253  0.1204
28255W        W44729   7.514   6.396   1.649  0.1328  0.2279  0.0084
28256W        W44730   9.419   4.498  11.691  0.0534 -0.0786  0.4642
28257W        W44731  14.665   1.784   4.148  0.1867 -0.4513  0.1153
28258W        W44732   6.838  12.200   0.543 -0.0509 -0.1091 -0.2332
28259W        W44733  17.691  15.012   2.057 -0.0394  0.0502 -0.0782
28260W        W44734   3.442  10.543   6.053  0.1265  0.0914 -0.0747
28261W        W44735  13.134   1.395  11.500  0.0080  0.3774 -0.2677
28262W        W44736   6.971   0.337  15.709 -0.2615  0.3206  0.1110
28263W        W44737   9.261   7.077   2.695  0.3009 -0.1829  0.1619
28264W        W44738   2.225   0.703  15.867  0.4214  0.1682 -0.2057
28265W        W44739  13.390   6.770   2.123  0.0300  0.2334  0.1161
28266W        W44740   4.855  13.945  14.276 -0.0724 -0.3770 -0.1385
28267W        W44741  10.604   2.620  14.604  0.1539  0.0489 -0.0386
28268W        W44742   9.836   7.493   3.633 -0.0078  0.3051 -0.1864
28269W        W44743   6.558  12.038  16.143  0.1044  0.0933 -0.0314
28270W        W44744   4.778   8.922  15.717 -0.0675 -0.1125 -0.1138
28271W        W44745  14.133   3.734   0.271 -0.1900 -0.0336  0.2077
28272W        W44746  16.077   8.471   0.597  0.2367  0.2767 -0.2790
28273W        W44747   8.875  11.262  14.656 -0.2191 -0.3137 -0.1944
28274W        W44748  11.077   4.854   5.712  0.1553  0.0107 -0.1566
28275W        W44749   1.345   6.255  11.935  0.1006 -0.0009  0.1016
28276W        W44750   9.029   2.674  14.611  0.0354 -0.0234 -0.2632
28277W        W44751  12.179  14.111   0.016  0.0716  0.0442  0.1081
28278W        W44752  15.239   1.119   1.634  0.0833  0.1424 -0.2847
28279W        W44753  15.261  10.661  11.389  0.0721 -0.2967  0.0592
28280W        W44754  11.848  13.482   0.706  0.3975  0.0675  0.1854
28281W        W44755  11.742  18.072   0.575 -0.0219 -0.1018  0.0201
28282W        W44756   2.151  18.272  12.398 -0.2255 -0.2453 -0.0364
28283W        W44757   1.406   4.095  14.125  0.0469  0.1129  0.1462
28284W        W44758   4.440  10.540   5.917 -0.2249 -0.0729 -0.0955
28285W        W44759  10.702  11.749  13.557  0.0418  0.3824 -0.0293
28286W        W44760   8.667   4.170   1.244 -0.0825 -0.0178  0.1440
28287W        W44761  11.033   1.026   4.839 -0.0544  0.1548 -0.1851
28288W        W44762  18.178  10.726   2.714 -0.1391  0.2797 -0.0260
28289W        W44763   7.380   2.861  16.196  0.1200 -0.2097 -0.2636
28290W        W44764   4.078   9.827   3.581  0.1542  0.1456  0.1245
28291W        W44765  13.087   8.670  13.983 -0.2662  0.0814  0.3269
28292W        W44766   3.251   8.536   1.983 -0.1195 -0.1932  0.2355
28293W        W44767   7.604   7.637  14.616 -0.0495 -0.2135 -0.0148
28294W        W44768   1.859   1.025  13.615  0.1427 -0.2846  0.3607
28295W        W44769   9.757  11.025   2.487 -0.1139 -0.0348 -0.1145
28296W        W44770   6.625   8.135   5.948 -0.1107 -0.0829 -0.0420
28297W        W44771   2.494   2.859   1.643  0.0280 -0.1534 -0.2410
28298W        W44772  13.117   1.413   5.125  0.0130  0.0853  0.2746
28299W        W44773   9.623  17.309   1.137  0.2151  0.3076  0.0936
28300W        W44774   6.117  15.980   2.229 -0.0221  0.0282 -0.0450
28301W        W44775   4.525   4.583  15.407 -0.0650  0.3181 -0.0641
28302W        W44776  11.998   8.212  15.353  0.2858  0.0524  0.2104
28303W        W44777  12.394   9.221  12.135 -0.3052 -0.2298 -0.1894
28304W        W44778  11.955   5.001  15.493 -0.2623 -0.3816  0.1608
28305W        W44779   5.227  17.757   1.123 -0.2362  0.0696 -0.0075
28306W        W44780   5.092  17.536  12.741 -0.1949 -0.2230  0.0595
28307W        W44781   3.528   9.060   5.682  0.0134 -0.1422  0.3260
28308W        W44782   9.414   7.493  15.514  0.0857  0.1022  0.0402
28309W        W44783   4.075   4.125  16.268 -0.0003 -0.0409  0.2190
28310W        W44784  13.327  10.614   2.903 -0.3918 -0.5665  0.1876
28311W        W44785   1.028  10.782  11.434 -0.0511  0.1416  0.1155
28312W        W44786   6.514  10.760   1.907 -0.0289  0.2247  0.1532
28313W        W44787   6.113   3.329   4.478  0.1151  0.1786  0.1786
28314W        W44788   0.728  15.482  12.406 -0.0015 -0.1285 -0.2160
28315W        W44789   0.754   1.629   3.426 -0.0551  0.2327 -0.1957
28316W        W44790   2.752   7.081  11.498  0.1275  0.3225 -0.0683
28317W        W44791   4.676  16.839   4.350 -0.1700  0.2613  0.2481
28318W        W44792   8.354   5.363   2.072 -0.3409  0.0486 -0.1467
28319W        W44793  13.522  15.627   5.221  0.0219 -0.0494 -0.0702
28320W        W44794   2.092   5.895   1.779 -0.3028  0.1495 -0.4462
28321W        W44795   1.365   8.212   4.212  0.0225 -0.0172 -0.1662
28322W        W44796   8.366   3.862  13.406  0.1934 -0.0350  0.0333
28323W        W44797   6.729   4.519   1.038  0.0181 -0.0348  0.0452
28324W        W44798   1.749   7.235  14.255  0.1980 -0.1976  0.1686
28325W        W44799   7.169   0.742   1.306  0.3407 -0.0751 -0.1107
28326W        W44800  13.479   0.987   1.056 -0.0308  0.0845 -0.1194
28327W        W44801  16.429   4.947   2.195  0.2716 -0.0923  0.2969
28328W        W44802  17.424  16.306  15.117  0.0950 -0.0026 -0.1536
28329W        W44803   4.622   0.905  13.633  0.0981 -0.0718 -0.3579
28330W        W44804   5.179  18.021  11.321  0.0456  0.1618  0.0196
28331W        W44805  11.496  16.154  13.965  0.0519  0.0022 -0.1580
28332W        W44806   7.651  14.901   5.266 -0.0317 -0.0223 -0.3896
28333W        W44807   4.361   5.702  14.464  0.0217  0.3514 -0.0078
28334W        W44808   0.018   8.748  15.707 -0.1686 -0.3882 -0.0159
28335W        W44809  16.729   0.740   2.567  0.0289  0.0746 -0.5456
28336W        W44810   0.019  16.397  14.648  0.0486  0.1930 -0.2044
28337W        W44811   6.029   8.462  13.977 -0.3758 -0.1944 -0.1819
28338W        W44812   1.429   6.971  13.430  0.1527 -0.2080  0.0962
28339W        W44813  16.955  17.685  15.044 -0.2063 -0.0574 -0.1906
28340W        W44814  17.941   5.338   5.589  0.1301  0.1360  0.4009
28341W        W44815   5.021  11.495   1.772  0.0606  0.0925 -0.0786
28342W        W44816   2.885  14.854  13.223  0.2595  0.1191  0.2330
28343W        W44817  11.369  12.915   1.721 -0.0402  0.1175  0.0410
28344W        W44818   4.607  13.894  12.229  0.6424 -0.2204  0.0366
28345W        W44819  12.919  14.954  12.837  0.2209 -0.1161  0.1190
28346W        W44820   8.749  13.275  14.097 -0.3974 -0.0631  0.2066
28347W        W44821  16.386   1.496  12.378 -0.2226 -0.2156 -0.1509
28348W        W44822   5.709   2.540  14.929  0.1349  0.0057  0.0018
28349W        W44823   8.597  17.966   5.650 -0.0873  0.0227 -0.3092
28350W        W44824   0.205   9.988  15.841 -0.0858  0.1353 -0.0548
28351W        W44825   3.639  13.598  14.643  0.0304  0.2510  0.1438
28352W        W44826   2.318  12.809   2.952  0.3134 -0.1157 -0.2613
28353W        W44827   6.282   5.142   4.931  0.0222 -0.0114 -0.0449
28354W        W44828   1.167  14.302   2.905  0.0242 -0.1104  0.0884
28355W        W44829   4.175  17.670  13.342  0.2133  0.1755  0.1473
28356W        W44830   7.203   8.453   1.138  0.1580 -0.1899 -0.0083
28357W        W44831   7.040   1.629  15.711 -0.1438 -0.0293  0.1109
28358W        W44832  11.473   0.874  14.602 -0.0342 -0.2476  0.2779
28359W        W44833   8.582   1.220  12.875 -0.0317 -0.2377  0.1197
28360W        W44834   1.977  15.085  12.253  0.0022 -0.1288 -0.2749
28361W        W44835   8.251   8.057   2.828  0.0985 -0.1186 -0.2967
28362W        W44836  10.000   4.912   4.684 -0.2326  0.0283  0.0253
28363W        W44837  14.282  15.789  15.394 -0.0911 -0.0364  0.0414
28364W        W44838   7.161  13.441   3.005  0.2864  0.3630  0.0047
28365W        W44839   1.112  15.794   5.166 -0.1585 -0.0735 -0.0393
28366W        W44840  11.986   7.625   1.562 -0.1298 -0.0301  0.2985
28367W        W44841  17.500   9.602   0.155  0.0531  0.2869  0.4220
28368W        W44842  17.388  11.702  12.738  0.3209 -0.0468  0.0201
28369W        W44843  14.581   3.511  11.759 -0.1343 -0.1525  0.2878
28370W        W44844   0.387  16.958   2.234 -0.0064  0.3067  0.3521
28371W        W44845  16.296   5.626  12.477 -0.5088 -0.2175 -0.0100
28372W        W44846   6.771   2.582   5.235 -0.2308 -0.2012  0.2282
28373W        W44847   3.663   9.277   0.737 -0.0398 -0.1650 -0.2271
28374W        W44848   9.266   5.704   4.926  0.0046 -0.0009 -0.0356
28375W        W44849   7.685   9.722   1.208 -0.0106  0.1209  0.0434
28376W        W44850   3.548   2.756  12.157  0.4419 -0.0289 -0.1989
28377W        W44851  10.506   3.812  15.961  0.2321  0.3225  0.0892
28378W        W44852   0.782   1.961   2.262  0.0664  0.2296 -0.2148
28379W        W44853  15.225   4.032   1.284 -0.0603  0.0830 -0.0472
28380W        W44854  13.341   4.754  13.908 -0.0540  0.3394 -0.0058
28381W        W44855   8.850   0.257  12.235 -0.0146  0.0272  0.2606
28382W        W44856  13.698   7.299   3.154 -0.1592  0.0163  0.0348
28383W        W44857  11.778   5.392  13.223 -0.1103  0.1623 -0.3599
28384W        W44858   5.535  14.576   5.051  0.0605  0.2538  0.1479
28385W        W44859  12.180  18.284  12.750  0.0704  0.1286 -0.0135
28386W        W44860  13.870  15.629   0.284 -0.0141 -0.0742  0.0701
28387W        W44861  12.015  11.583   3.751 -0.2053  0.3341 -0.0223
28388W        W44862   7.009  10.360   5.158  0.2181  0.1710  0.1089
28389W        W44863   7.099  16.811  13.078 -0.2300 -0.0550 -0.0564
28390W        W44864   1.812   7.186   2.995 -0.0848 -0.0370 -0.1412
28391W        W44865   6.469  10.028   1.433 -0.4039 -0.1450 -0.1432
28392W        W44866  10.424   6.309  12.729  0.3726 -0.0475  0.0355
28393W        W44867  14.075   5.784  12.040 -0.1133 -0.2028 -0.1517
28394W        W44868   0.124   8.896   4.125  0.0618  0.1593  0.1320
28395W        W44869   7.001   9.527  16.135  0.1678  0.1264  0.0435
28396W        W44870  11.128   5.251  12.677 -0.1915  0.3805 -0.0088
28397W        W44871  11.886   1.741  13.084 -0.3063  0.2216  0.1461
28398W        W44872   4.738   2.042  12.959  0.0362 -0.0092 -0.0621
28399W        W44873  14.096   9.689   0.377 -0.3866  0.2937 -0.0284
28400W        W44874  13.559  13.341   5.573 -0.3485 -0.2055 -0.0110
28401W        W44875  12.943  17.505   2.614  0.0657 -0.2874  0.1418
28402W        W44876   6.634   0.705   2.012  0.1132 -0.4101  0.3293
28403W        W44877   1.483  10.312  11.290  0.0890  0.0260  0.0142
28404W        W44878  12.941   8.130  11.500  0.0894 -0.0147  0.0092
28405W        W44879  17.962   5.707  15.017 -0.0745  0.1289 -0.3453
28406W        W44880   4.042   2.826  13.817  0.3749  0.0343  0.0334
28407W        W44881   8.523  17.864  13.264 -0.0172 -0.0387 -0.3497
28408W        W44882   9.566  16.831   1.609 -0.1951  0.2015 -0.0453
28409W        W44883  17.246  11.301  12.476 -0.1174 -0.1508  0.0348
28410W        W44884   1.936  16.305  16.276  0.0661  0.2824  0.0116
28411W        W44885   7.628   5.064   1.273 -0.3863  0.0255  0.1710
28412W        W44886  16.191   7.966  12.541 -0.2165  0.0545  0.0962
28413W        W44887   5.927   9.687  11.518 -0.0712  0.1177  0.0856
28414W        W44888   5.688   1.105   1.842  0.3054 -0.3113 -0.0694
28415W        W44889   5.208  16.430   1.958  0.2007 -0.1226 -0.0527
28416W        W44890   0.900   8.368   2.506  0.1141 -0.0461 -0.0830
28417W        W44891  11.752   3.124   5.764  0.1788 -0.1496 -0.0213
28418W        W44892  15.227   3.619   5.252 -0.3136 -0.1283  0.1282
28419W        W44893  16.206  12.752   4.820  0.1115 -0.1445  0.1207
28420W        W44894   6.000  17.491  12.915 -0.0060 -0.0087  0.1278
28421W        W44895   1.718   4.488   2.188 -0.4700 -0.2776 -0.0445
28422W        W44896   6.363  18.253  11.255 -0.2440  0.3296 -0.0724
28423W        W44897   1.045   1.654   2.543 -0.2182 -0.0979 -0.0399
28424W        W44898  13.945   4.498   4.967  0.0574  0.2676 -0.0511
28425W        W44899  17.577  14.094   0.856 -0.0769 -0.1484 -0.2437
28426W        W44900   6.475   9.432   1.345  0.1367 -0.2468  0.0197
28427W        W44901   4.177   0.158   2.736 -0.3315  0.1529  0.2614
28428W        W44902   4.266  10.849   4.424  0.4625 -0.0753 -0.0139
28429W        W44903   0.076  10.108  15.340 -0.1453 -0.1833 -0.2597
28430W        W44904  11.141  15.960   0.713  0.2253 -0.3508  0.0574
28431W        W44905  10.616  18.299  13.085  0.2305 -0.0483 -0.2453
28432W        W44906   8.195   9.288  14.308  0.1607 -0.1577 -0.0695
28433W        W44907   5.514  10.358  13.315 -0.0823  0.0972  0.0592
28434W        W44908   6.448   3.935   1.672 -0.0668  0.0487  0.3594
28435W        W44909   8.850  12.996  13.630 -0.0250 -0.2843 -0.1698
28436W        W44910  15.979  11.541  15.711  0.0588 -0.3000 -0.0852
28437W        W44911   5.848   4.422  12.136  0.1694  0.3425 -0.0060
28438W        W44912   5.837  17.636   0.770  0.3425 -0.3289  0.0017
28439W        W44913   9.779  10.742   0.397  0.0538 -0.1999 -0.0358
28440W        W44914  15.284  11.979   0.921 -0.2504 -0.1767  0.1493
28441W        W44915   8.752  16.162  11.678  0.0025 -0.2124 -0.0452
28442W        W44916   1.014  10.397  14.136  0.2066 -0.0387 -0.0403
28443W        W44917   5.457   2.277  14.157  0.0739 -0.0890  0.1808
28444W        W44918  13.520   1.514   0.959 -0.1760 -0.1908  0.3294
28445W        W44919  11.722   5.739  16.108 -0.0846 -0.1400  0.0393
28446W        W44920   0.836  11.494   2.696 -0.0203 -0.2477 -0.2394
28447W        W44921   6.951   5.463   4.989  0.1506  0.2279 -0.2516
28448W        W44922   2.666  16.257  11.921  0.1527  0.3708  0.2491
28449W        W44923  10.346  15.765   5.487 -0.0122 -0.0451 -0.2412
28450W        W44924   7.271   1.768   3.931 -0.0150 -0.1771  0.1679
28451W        W44925   6.897   8.249  14.133  0.3550 -0.2214  0.2406
28452W        W44926   8.597  15.447  14.568  0.0472 -0.2742  0.1692
28453W        W44927   5.346   4.313   0.711  0.1872  0.4394 -0.1683
28454W        W44928  12.432  14.039  15.536 -0.0503  0.0076  0.0804
28455W        W44929  10.023   7.222   2.960 -0.1711  0.0741 -0.1688
28456W        W44930   8.150  14.793   2.515  0.1990  0.3935  0.0009
28457W        W44931   2.885   4.752  12.270  0.0838 -0.1258  0.2481
28458W        W44932   1.033   1.520   3.852  0.0237  0.1732 -0.2996
28459W        W44933   1.922   2.955   0.502 -0.2503  0.0776  0.3567
28460W        W44934  15.603   5.086  13.567 -0.3072 -0.1429 -0.0744
28461W        W44935  13.018   9.345   2.348 -0.1619 -0.0222  0.0945
28462W        W44936  13.807   7.387   1.561  0.0060 -0.1259  0.2233
28463W        W44937  17.518  13.272   3.752 -0.2866 -0.0813 -0.1489
28464W        W44938  10.997   7.070  13.832 -0.1227 -0.0142  0.2147
28465W        W44939   9.137  10.759  11.013 -0.3168  0.2342 -0.0160
28466W        W44940  17.230   4.177   1.218 -0.1039 -0.1241 -0.1490
28467W        W44941  17.259  14.092  13.719 -0.1251 -0.2296  0.0856
28468W        W44942   4.807   4.254  14.770  0.0858 -0.0204 -0.2684
28469W        W44943   1.787   6.561   3.097  0.4424  0.0524  0.0390
28470W        W44944  13.466   9.821  13.242  0.0550  0.1141  0.2517
28471W        W44945  11.298   4.808  13.879 -0.1758 -0.4141 -0.3607
28472W        W44946   1.722   8.961  16.272  0.0588  0.0033 -0.0782
28473W        W44947   6.559  16.754   3.426  0.1451 -0.1974  0.3263
28474W        W44948   6.479  15.592   2.141  0.1420 -0.0431  0.0145
28475W        W44949  12.923   9.669   1.961  0.4121  0.0435 -0.0806
28476W        W44950   7.487   1.572  16.181 -0.2239 -0.1057 -0.1942
28477W        W44951   9.374   2.367   1.954  0.2430  0.2369  0.0341
28478W        W44952  18.189   9.803   4.116 -0.1151  0.1978  0.4947
28479W        W44953  12.025   3.535  15.552 -0.0180  0.1758  0.0583
28480W        W44954  10.398  16.315  15.354  0.0229 -0.0787  0.0922
28481W        W44955   7.077  12.427  12.143 -0.2048 -0.1451 -0.1812
28482W        W44956   7.784   0.625   3.412 -0.1410  0.2696  0.1666
28483W        W44957   0.273  14.380   2.859 -0.0058 -0.2960 -0.2018
28484W        W44958  16.657  17.825   5.977  0.0229 -0.1454 -0.1708
28485W        W44959   8.301  15.538  12.765  0.1581 -0.0990 -0.2316
28486W        W44960   6.467  14.260  10.866  0.1250  0.1226  0.1266
28487W        W44961  16.428  15.893  12.237 -0.0576 -0.2028  0.1742
28488W        W44962   7.529  16.809   1.789  0.0335  0.3994 -0.1425
28489W        W44963   9.931  10.249   1.307  0.1626  0.1541  0.3020
28490W        W44964  16.308   7.497  15.959  0.0025  0.0823 -0.3224
28491W        W44965  12.716   7.337  14.020 -0.1802  0.2252 -0.0160
28492W        W44966   6.222  14.985   0.633 -0.1874  0.2660  0.0200
28493W        W44967   8.487   7.580  15.740  0.1421 -0.0225  0.2397
28494W        W44968   6.451   8.903   1.295 -0.1702  0.2895 -0.1166
28495W        W44969   2.109   9.790  15.518 -0.1866  0.0481 -0.2780
28496W        W44970  16.797  13.858  11.073  0.3265  0.0633  0.2344
28497W        W44971  12.169   1.560  15.480 -0.0717  0.3799 -0.0605
28498W        W44972   8.378   5.040  12.719 -0.2694  0.1462 -0.0465
28499W        W44973  12.941  15.764  12.204 -0.1632  0.1460  0.0117
28500W        W44974  14.498  13.605  14.007  0.1740  0.0929 -0.1168
28501W        W44975  14.089  14.818  14.416  0.0401  0.3291 -0.3293
28502W        W44976   2.694   8.084  11.511 -0.0341 -0.3216  0.1687
28503W        W44977  14.599  13.563  12.657  0.1870 -0.0731 -0.0946
28504W        W44978   1.889  13.850   0.814  0.0095  0.1735 -0.1683
28505W        W44979  10.942  15.135  13.412  0.0706  0.1874 -0.0203
28506W        W44980  16.577   8.742   4.407 -0.0702 -0.0526  0.1727
28507W        W44981  15.188  17.591   2.523  0.1886  0.0700 -0.1324
28508W        W44982  17.913  18.195   3.672  0.0863 -0.2262 -0.0311
28509W        W44983   4.572   6.746   4.222 -0.3896  0.0376  0.1345
28510W        W44984  15.339   6.031   3.888 -0.1275  0.2223 -0.0614
28511W        W44985   4.614   9.619  14.952  0.0073 -0.0138 -0.0230
28512W        W44986  14.697  15.295  12.966  0.2532  0.2091 -0.1893
28513W        W44987  12.862   2.619  12.827  0.2614  0.0568 -0.1619
28514W        W44988   6.624  17.800  11.198  0.0262  0.0403  0.2052
28515W        W44989  14.596  10.270  15.034 -0.1423  0.1743 -0.2402
28516W        W44990   6.652  12.980  13.820 -0.1820 -0.1430 -0.1634
28517W        W44991   6.617   0.836  11.376  0.1002  0.0171  0.0985
28518W        W44992   6.797   3.127   0.043 -0.0493  0.1420  0.0363
28519W        W44993   7.835  13.065  13.733 -0.1496 -0.1424  0.0486
28520W        W44994  10.942  13.372   1.266 -0.1871 -0.2123  0.1914
28521W        W44995  10.834   4.605   1.307  0.0187  0.0392  0.0441
28522W        W44996   8.868  11.222   5.062 -0.0558  0.0100 -0.1844
28523W        W44997   7.606   9.349   6.435 -0.1277 -0.2785  0.0140
28524W        W44998   8.163  17.329  11.650 -0.1128  0.1453  0.1316
28525W        W44999   7.977   1.937   0.483 -0.1995 -0.4973  0.0045
28526W        W45000  10.534  16.642   2.621  0.1099  0.0808  0.0100
28527W        W45001  11.121   1.251   1.285 -0.0144 -0.3915  0.0412
28528W        W45002   8.437   6.699  13.809 -0.1519  0.0363  0.1759
28529W        W45003   1.239   1.309  11.675  0.1589  0.0249 -0.0396
28530W        W45004   3.429  14.820  11.522  0.1663 -0.3069 -0.2356
28531W        W45005   2.321   8.232  13.117  0.1245 -0.3638 -0.3787
28532W        W45006   8.415   3.121   0.275  0.1861 -0.2443  0.1504
28533W        W45007  15.880  10.594  12.163 -0.1102 -0.0375  0.1331
28534W        W45008   1.809   7.303  12.774 -0.2102 -0.0641 -0.2526
28535W        W45009   6.089   8.704  15.199 -0.1166  0.4444 -0.2579
28536W        W45010  14.340   9.800  10.753  0.1385 -0.1216 -0.0255
28537W        W45011  11.736  10.975   2.055  0.0773 -0.1761 -0.0891
28538W        W45012   3.866  12.060  14.128  0.2982  0.2020  0.0338
28539W        W45013  18.022   0.472   6.137  0.0483 -0.0005  0.0615
28540W        W45014  13.954  17.354  12.862 -0.0269  0.1723  0.0680
28541W        W45015  15.323   4.180  13.763 -0.2197  0.2076 -0.3599
28542W        W45016  10.717   3.353   1.113 -0.2624  0.2295 -0.2646
28543W        W45017  10.799   5.313  11.215  0.1733  0.2122 -0.0157
28544W        W45018   2.248   3.645  13.767  0.2594 -0.0931 -0.5501
28545W        W45019   7.221  11.624  16.206  0.1915  0.0386  0.2138
28546W        W45020   8.687   5.452  13.171  0.2932 -0.0592  0.2339
28547W        W45021  17.872   0.773  14.227 -0.4237  0.0827  0.0490
28548W        W45022  16.199   8.686  16.118  0.0811 -0.3923  0.0668
28549W        W45023  11.285   0.809  13.279  0.1327 -0.1843  0.1321
28550W        W45024   2.860  15.023   3.887 -0.3403  0.1216 -0.2792
28551W        W45025   6.122   7.073   2.723 -0.2130  0.0182 -0.0195
28552W        W45026  16.593   2.902   1.933 -0.1159 -0.0588  0.0702
28553W        W45027   3.561  13.506   0.500  0.0676 -0.1566  0.0507
28554W        W45028   4.464  14.507   1.639 -0.0364  0.2609 -0.0105
28555W        W45029  12.840   1.650   0.431 -0.0615  0.1071 -0.1651
28556W        W45030  16.609  15.871   4.853  0.1546 -0.1517  0.0064
28557W        W45031   9.559  15.484   1.816 -0.0122 -0.3472  0.1183
28558W        W45032  17.179   5.458   1.416  0.1616  0.3308 -0.0334
28559W        W45033   3.530   2.609  13.497  0.2062 -0.3382 -0.0846
28560W        W45034  12.835   5.949   3.584 -0.4488  0.2101 -0.0368
28561W        W45035  16.239  14.271  11.102 -0.2460 -0.1927 -0.0230
28562W        W45036   3.627   5.559   5.863 -0.0437  0.2073  0.1881
28563W        W45037  10.238   9.282  15.081  0.1693 -0.1112  0.4333
28564W        W45038  11.380   4.327   2.740 -0.0927  0.1036  0.2040
28565W        W45039  10.302  17.060   3.583  0.1215 -0.0330 -0.0989
28566W        W45040   7.715   0.942   2.458 -0.1687  0.1830 -0.1449
28567W        W45041  12.502   9.533  15.314 -0.0529 -0.3658 -0.0010
28568W        W45042  13.923   9.180   0.248  0.1073 -0.0423 -0.0375
28569W        W45043  12.597  17.252   4.376 -0.3108 -0.0129  0.2345
28570W        W45044   5.091   2.339   0.667  0.0770 -0.0505 -0.1331
28571W        W45045  17.538   1.164   0.998  0.2001 -0.0922  0.0159
28572W        W45046   2.788   9.886  14.230  0.2093  0.0605 -0.2686
28573W        W45047   7.431  14.158  10.737 -0.1809 -0.0574 -0.1360
28574W        W45048   4.378  16.655   0.504 -0.3063  0.1674  0.1675
28575W        W45049  10.043  16.883  11.305 -0.2420 -0.1493 -0.0410
28576W        W45050  12.149   9.221   3.367 -0.1753  0.2588  0.0878
28577W        W45051   9.570   8.665  11.776 -0.2234  0.0644  0.0285
28578W        W45052   4.236   5.930   5.305 -0.1120  0.0590  0.1772
28579W        W45053   0.464   0.745   3.129  0.0162  0.0516  0.0911
28580W        W45054   6.465  16.397  13.888 -0.1031  0.0209  0.0602
28581W        W45055   2.495  10.680   0.719  0.2263 -0.1381 -0.2175
28582W        W45056   0.315  10.577  13.082  0.4021 -0.3013  0.0414
28583W        W45057   1.998   6.358   4.950  0.0384 -0.0175 -0.2720
28584W        W45058   2.528  10.280  12.797 -0.3870  0.1640 -0.1411
28585W        W45059   8.856   9.444  12.430  0.2230 -0.0998 -0.0090
28586W        W45060   6.772  11.489  12.471  0.3659  0.1279  0.1630
28587W        W45061   2.598  16.544   3.008  0.0201 -0.2668  0.1460
28588W        W45062  13.332   1.894  11.428 -0.0004  0.0772 -0.2749
28589W        W45063   7.426   2.375  13.149 -0.0848  0.2531  0.0273
28590W        W45064   4.852   0.381   3.780 -0.0978 -0.1791 -0.0741
28591W        W45065  16.779  11.977  14.144 -0.1596 -0.0796  0.0036
28592W        W45066  10.754   9.540  12.788  0.1507 -0.1418  0.0871
28593W        W45067  10.636  16.389  11.569 -0.1566  0.2400 -0.0964
28594W        W45068   4.331   1.693   0.207  0.0787  0.0043  0.2022
28595W        W45069  15.297  11.333  16.217  0.3283 -0.2592 -0.1447
28596W        W45070   4.444   8.467   5.101 -0.0100  0.0220  0.1207
28597W        W45071  12.005  16.428   4.456  0.0448  0.1023  0.1842
28598W        W45072   1.115  16.888   0.292 -0.1918  0.0281  0.0577
28599W        W45073   0.609   0.024   0.112 -0.0552 -0.3667  0.1688
28600W        W45074   4.277   6.586   2.382  0.2079  0.3856 -0.0925
28601W        W45075   3.434  14.156   5.164 -0.0056  0.2089 -0.3297
28602W        W45076   6.884   3.710  14.112  0.0271 -0.2228 -0.1874
28603W        W45077   9.563   2.767   3.214  0.1840  0.0221  0.1664
28604W        W45078   0.565   6.653   5.316 -0.0205  0.0868 -0.1746
28605W        W45079  12.247   8.960  13.729 -0.0322 -0.2706 -0.0020
28606W        W45080  12.561  17.568  12.298  0.0315 -0.0861  0.0060
28607W        W45081   4.523   4.322  11.559  0.0380  0.1389  0.0803
28608W        W45082   3.452   0.301  13.635  0.1147 -0.1067  0.0662
28609W        W45083   9.150  15.390  12.052 -0.0563 -0.0934  0.3774
28610W        W45084  15.228   5.649  14.794 -0.0233 -0.1908  0.0597
28611W        W45085  13.011  14.193  13.443 -0.0856 -0.2281 -0.0932
28612W        W45086  13.767   3.614  16.067  0.1497 -0.0692  0.0772
28613W        W45087   3.438  15.398   0.099 -0.1310  0.0721 -0.0146
28614W        W45088  17.947  14.012   4.365 -0.2081 -0.1146  0.2196
28615W        W45089   6.423   2.185  15.436 -0.1431 -0.1227  0.0585
28616W        W45090  11.918   0.875   3.986 -0.1138  0.2195 -0.1567
28617W        W45091  12.101  15.095   2.488 -0.2180 -0.0437  0.1034
28618W        W45092   1.054  15.815  14.267 -0.1261  0.3393  0.0943
28619W        W45093   6.433   0.775  15.688  0.3629 -0.1491 -0.4246
28620W        W45094  16.608   3.921  14.768 -0.0452  0.1004  0.4170
28621W        W45095   7.477   6.886   3.129  0.1047  0.1084  0.0333
28622W        W45096   6.445   8.799  10.744 -0.0817  0.1786 -0.0205
28623W        W45097  17.151  13.255   3.042 -0.0374  0.1741 -0.1291
28624W        W45098  13.922   5.390   0.334 -0.1251  0.0004  0.2392
28625W        W45099  17.858   3.770   4.732  0.1740  0.0929  0.1396
28626W        W45100  15.192   4.236  16.023  0.2384 -0.1857  0.0733
28627W        W45101   2.619   1.407   5.403  0.0387 -0.1517 -0.1556
28628W        W45102   4.321   1.670  15.976 -0.1851  0.1024  0.2168
28629W        W45103   0.043  14.188  11.077 -0.3311 -0.1816  0.2020
28630W        W45104  16.904  12.444   2.894 -0.1124  0.0062  0.0275
28631W        W45105  15.827  15.976   3.698 -0.2270  0.2249 -0.0442
28632W        W45106   7.489  17.321  15.879  0.3669  0.0511  0.0009
28633W        W45107  10.229   8.411   3.396  0.0387 -0.1992  0.0908
28634W        W45108   6.659   4.680  12.769  0.2509  0.1650 -0.5318
28635W        W45109  15.357   0.799  15.193  0.0035 -0.1712 -0.2200
28636W        W45110   5.114   2.158  16.127  0.1702 -0.1053 -0.0249
28637W        W45111   2.637  12.582  12.880 -0.1986 -0.1658 -0.1256
28638W        W45112  12.322   3.357  11.617 -0.0760  0.0614  0.1160
28639W        W45113  10.434  14.214   4.317  0.0291  0.0162 -0.2726
28640W        W45114   8.048   5.070  16.049 -0.0195  0.0584  0.1183
28641W        W45115   8.936  13.412   2.113 -0.0596 -0.0301  0.0568
28642W        W45116  16.305  15.587  11.358  0.1346  0.1251 -0.1460
28643W        W45117  13.547  10.403  13.392  0.0028  0.0325 -0.1174
28644W        W45118   7.783  17.643  11.437 -0.1542  0.0169 -0.4162
28645W        W45119  11.678  12.421  12.423  0.0756 -0.0009 -0.2370
28646W        W45120   8.299  15.355  13.389 -0.0064 -0.1048  0.1729
28647W        W45121  17.766   6.426  15.382  0.0013 -0.0671 -0.1091
28648W        W45122  16.648  15.843  14.493 -0.1487 -0.0649  0.2032
28649W        W45123   2.930  10.234   4.312  0.0223  0.2021  0.0696
28650W        W45124   4.771   5.984   5.246  0.1625 -0.1074 -0.0647
28651W        W45125  12.735   8.056   0.704  0.1063  0.2623 -0.1391
28652W        W45126  16.038  17.106  12.385 -0.2798  0.2889 -0.5620
28653W        W45127  13.898   7.522   0.706  0.0388  0.2582  0.0886
28654W        W45128  10.892  12.903   1.554 -0.0348 -0.0724  0.1691
28655W        W45129  17.246   5.368  10.984 -0.1336  0.0966  0.3997
28656W        W45130  17.019   5.456   1.934 -0.0492  0.2120 -0.4702
28657W        W45131   9.655  17.865  15.601  0.0932  0.0028 -0.2827
28658W        W45132  11.199   2.339  12.372  0.0626 -0.1179  0.1316
28659W        W45133   6.113  10.595  15.223  0.1080 -0.0141  0.0522
28660W        W45134  14.255  10.025   0.061  0.0421  0.1238 -0.0184
28661W        W45135  12.388   3.944  12.953  0.0675 -0.1801 -0.2195
28662W        W45136  13.658   2.899  11.348  0.0114 -0.1735  0.2639
28663W        W45137   6.333   0.100  12.832  0.0390 -0.0692  0.0119
28664W        W45138  15.438  18.095   0.012 -0.1565  0.2073 -0.0103
28665W        W45139   2.320  10.894  13.404 -0.2551 -0.0155 -0.0350
28666W        W45140   8.702  14.129   2.250 -0.1353  0.1166 -0.1468
28667W        W45141   3.463  10.137  11.381 -0.0435  0.1312  0.0325
28668W        W45142   7.254   7.804  15.587 -0.0356  0.0847 -0.2417
28669W        W45143   7.435   8.260  15.701  0.1684  0.3316  0.1420
28670W        W45144  16.390  13.624  13.718  0.3320  0.0223 -0.1392
28671W        W45145   8.326  10.723   3.843 -0.0652  0.1466 -0.0741
28672W        W45146   2.194   3.534  11.819  0.0955 -0.0408 -0.1284
28673W        W45147  10.639  14.975   2.711  0.0332  0.0823  0.1575
28674W        W45148   5.458   5.971  10.357 -0.3814  0.2515 -0.1103
28675W        W45149   5.003  15.922  14.650  0.0008  0.1774 -0.1050
28676W        W45150  14.244  13.448   5.705 -0.1095 -0.0647 -0.0901
28677W        W45151   1.890   9.315  15.560  0.0467 -0.1380 -0.0082
28678W        W45152   3.267   0.673  15.000 -0.5636  0.1956  0.0192
28679W        W45153  11.622   0.562   1.372 -0.1724  0.2151 -0.2967
28680W        W45154   0.425   0.091  13.456  0.0184 -0.2030 -0.0160
28681W        W45155  14.433  11.561   2.175  0.1385 -0.1504 -0.0115
28682W        W45156  10.607  15.295   1.284  0.0472 -0.2568  0.0353
28683W        W45157   3.351   2.138   1.199 -0.1456 -0.1814 -0.3811
28684W        W45158   6.810  11.661   1.985  0.1903 -0.2820  0.3110
28685W        W45159   9.382  15.687  12.477 -0.1055  0.1574  0.2304
28686W        W45160   1.571   2.174  12.115 -0.2423 -0.2030 -0.1669
28687W        W45161  17.234   1.152   3.958 -0.1257  0.0433  0.0761
28688W        W45162  10.642  11.150   0.438  0.1485 -0.2314  0.0891
28689W        W45163   1.843  16.812   1.637 -0.0036  0.3054 -0.2625
28690W        W45164  13.030   4.445   4.667 -0.2621 -0.1081 -0.0128
28691W        W45165   1.514  14.085   1.456  0.0897  0.1124 -0.3622
28692W        W45166   3.981  14.803  15.740  0.0785 -0.1044 -0.0729
28693W        W45167   1.247   1.651  11.335 -0.0270 -0.2054  0.2734
28694W        W45168   7.604  15.643   0.332  0.2067  0.0668  0.0105
28695W        W45169  12.325  14.902   4.949  0.1181  0.2160  0.0670
28696W        W45170   1.120   0.141   0.338  0.1912  0.1543 -0.1343
28697W        W45171   2.320   9.082  12.248 -0.2358 -0.3742  0.0086
28698W        W45172  11.044  15.444  15.509  0.2973  0.0180 -0.0940
28699W        W45173  13.363   3.998   3.836  0.5879 -0.2757 -0.1393
28700W        W45174  14.248   0.956   1.348 -0.0847  0.5499  0.0494
28701W        W45175   1.017   5.788  15.664 -0.1989  0.2832 -0.0074
28702W        W45176   3.850  16.166  14.881 -0.2796 -0.0321 -0.3028
28703W        W45177   8.389   2.610  13.025  0.0831 -0.1101 -0.2412
28704W        W45178  14.051   2.300   4.759  0.1782  0.0588  0.2959
28705W        W45179  16.017   7.756  12.115 -0.1662 -0.2304 -0.0841
28706W        W45180   1.037  18.144   5.495 -0.1718  0.1226 -0.1381
28707W        W45181  17.609   6.239  12.533 -0.0957 -0.2270  0.1655
28708W        W45182  10.700   4.282  12.761  0.3463  0.3748  0.1282
28709W        W45183  14.758   6.366   2.728  0.1256  0.2600 -0.2267
28710W        W45184  11.528  15.402   3.874  0.0065  0.0223  0.1255
28711W        W45185  13.644  17.215  13.902  0.0497  0.3588 -0.0072
28712W        W45186   5.061   3.830  12.382  0.0363 -0.0836 -0.2768
28713W        W45187   2.038   2.943  13.332 -0.0186  0.1774  0.0057
28714W        W45188  13.595  13.082   1.694 -0.2269 -0.0260  0.2341
28715W        W45189   4.519   1.356  13.459 -0.2326 -0.3374 -0.2002
28716W        W45190  11.665   3.472  13.169  0.0550 -0.0318  0.3373
28717W        W45191  15.650   1.071  12.603 -0.3679 -0.0286  0.1763
28718W        W45192  15.627   9.173   3.252  0.1532  0.0013 -0.0328
28719W        W45193   5.272   3.294   1.545 -0.1692 -0.0110 -0.0748
28720W        W45194  15.065   9.664  12.638 -0.2745 -0.1915  0.0772
28721W        W45195  16.076  11.313  13.566  0.2975 -0.0840  0.2363
28722W        W45196   8.386   5.485  12.311  0.4988  0.1358 -0.0006
28723W        W45197  11.357   6.767   0.245 -0.0939  0.2019  0.3689
28724W        W45198   0.488   2.163  14.570 -0.2757  0.1904 -0.1853
28725W        W45199   7.676  14.500  14.703 -0.4705  0.2930  0.0412
28726W        W45200  12.291  14.852   1.912 -0.2954 -0.0623  0.1147
28727W        W45201   9.798   9.954  16.226 -0.1357  0.0256 -0.1676
28728W        W45202   4.569  17.052   2.380  0.1153 -0.1999  0.0145
28729W        W45203  17.765  15.912   2.572  0.2492 -0.1338  0.1210
28730W        W45204  10.295  14.509   0.142 -0.0274 -0.2362 -0.1373
28731W        W45205   1.157   6.855   4.618 -0.0998 -0.3100 -0.2892
28732W        W45206  11.168   8.280   2.139 -0.3516 -0.1083 -0.0657
28733W        W45207  14.254  16.229  15.688 -0.3082 -0.0268 -0.2835
28734W        W45208  17.185   8.708   3.652 -0.0309  0.2674  0.2344
28735W        W45209   8.122  11.352   3.673  0.0015  0.1099 -0.1494
28736W        W45210   5.574  15.921  14.942  0.1086 -0.2448 -0.1238
28737W        W45211   0.651  15.580   3.314  0.0548 -0.1816 -0.1969
28738W        W45212   5.516  17.681   3.167 -0.0131 -0.0811 -0.1673
28739W        W45213  16.550   4.947   0.297  0.0999 -0.0310 -0.0879
28740W        W45214  15.329  11.478  11.853  0.0990 -0.1336 -0.2083
28741W        W45215   4.202   6.458   0.824  0.0958  0.1659 -0.1253
28742W        W45216  16.736  14.916   4.147  0.2990 -0.0329  0.3142
28743W        W45217   8.030   3.762   1.574 -0.1273  0.3713 -0.1310
28744W        W45218   5.184   6.129  14.222  0.0247 -0.2538 -0.0967
28745W        W45219   7.931  15.992   5.316  0.1251 -0.2172 -0.2394
28746W        W45220   9.583   7.036  12.165 -0.0041  0.3454  0.1929
28747W        W45221   9.258   4.640   4.785  0.0405  0.2223 -0.1195
28748W        W45222  15.842   3.999   2.518  0.3705 -0.0817  0.0647
28749W        W45223   9.389   6.631   3.791 -0.0860  0.0839  0.0411
28750W        W45224   9.451  11.069  14.562 -0.4888 -0.0959 -0.2393
28751W        W45225  12.510  15.100   0.275 -0.0228  0.0955  0.4389
28752W        W45226   1.644   0.094  13.212 -0.0587  0.0561 -0.4470
28753W        W45227  18.129  13.273   2.910  0.1009  0.2203  0.0037
28754W        W45228   3.809  17.087   0.950  0.2526 -0.1598  0.0484
28755W        W45229   7.302   8.989  11.581 -0.0831  0.0738 -0.1714
28756W        W45230  10.454   6.367  11.282 -0.1504 -0.0009 -0.1816
28757W        W45231  13.824  15.231   0.774 -0.0655 -0.3382  0.3153
28758W        W45232   0.451  10.462  15.747  0.0513  0.0524 -0.0006
28759W        W45233  16.323  10.692  14.173  0.3036  0.0307 -0.1227
28760W        W45234  11.172   6.697  12.467  0.1541  0.2601  0.0415
28761W        W45235   8.972   3.833  15.077 -0.1194 -0.0725 -0.1853
28762W        W45236   9.620   2.748  10.153 -0.0242 -0.0372  0.1552
28763W        W45237  13.503   7.939  15.348 -0.2117 -0.0324  0.1446
28764W        W45238   0.614   0.981   0.875  0.1386 -0.0266  0.1613
28765W        W45239   2.543   3.623   2.322 -0.1283 -0.1179  0.0251
28766W        W45240  14.060   2.916   5.493  0.1276 -0.0693 -0.2246
28767W        W45241   0.941  13.691   4.249  0.0167  0.0158  0.1353
28768W        W45242  13.219   2.650   4.778  0.0725  0.0267 -0.1531
28769W        W45243   0.699  16.394   0.160  0.1324 -0.1349 -0.0103
28770W        W45244   9.788  14.510  14.315 -0.1007  0.1243  0.2010
28771W        W45245   9.850   7.129  16.056  0.2767 -0.1512  0.0486
28772W        W45246   9.263   2.032  14.990  0.2906  0.0288  0.0250
28773W        W45247  12.179   7.704   5.469 -0.1090 -0.1235  0.2241
28774W        W45248  14.171   3.905  15.961 -0.1792  0.0596  0.1821
28775W        W45249   5.148  16.855   1.652 -0.0340  0.1206 -0.0597
28776W        W45250   5.155   9.217   4.236  0.0128  0.0440 -0.0346
28777W        W45251  13.763  17.666  13.764  0.1551 -0.1842  0.1359
28778W        W45252   2.687  15.530  15.268  0.0815 -0.1050 -0.0071
28779W        W45253   3.698   8.333   2.133  0.3767  0.1469  0.2832
28780W        W45254   2.229  12.309   0.220  0.0526 -0.0576 -0.1962
28781W        W45255  15.795  17.951   3.726  0.0617 -0.0258  0.1329
28782W        W45256   7.652   4.809   2.482 -0.1392  0.0059 -0.1874
28783W        W45257   0.830   1.060   2.993  0.2618 -0.0128 -0.1299
28784W        W45258  17.108   8.103  14.694 -0.1025  0.3032 -0.1473
28785W        W45259  12.281  13.467   0.438 -0.0727 -0.1086 -0.0045
28786W        W45260   4.983  12.411  14.291 -0.0447  0.1036  0.5551
28787W        W45261  11.156  13.776  11.637 -0.4008  0.1833 -0.2549
28788W        W45262  11.742  11.893   2.177  0.0807  0.5156  0.0996
28789W        W45263  13.933   6.069  13.559 -0.0374  0.0344 -0.1039
28790W        W45264   2.672  18.029   0.331  0.2178  0.0402  0.5413
28791W        W45265   5.626   7.377   4.557 -0.3080 -0.0184  0.0933
28792W        W45266   2.853   7.726  16.319  0.3151  0.0062  0.1818
28793W        W45267   4.571   3.288  12.816 -0.1776  0.0320  0.1881
28794W        W45268   3.899  11.146   2.685  0.0118 -0.1794  0.2211
28795W        W45269  13.396  14.423  13.826  0.0186  0.0223 -0.4085
28796W        W45270   8.167   0.963  12.192  0.0585  0.1539  0.0516
28797W        W45271  17.688  11.575   1.937  0.1030  0.0398 -0.1564
28798W        W45272  12.131   5.850  11.180  0.0753 -0.0034 -0.1565
28799W        W45273  14.827   5.873   5.347  0.2307  0.0547  0.0784
28800W        W45274   3.650  18.007  14.847  0.0060 -0.0611  0.1610
28801W        W45275  16.049  10.365   3.382  0.1792 -0.0796 -0.0192
28802W        W45276  18.271  18.255  14.077 -0.3171 -0.0928  0.1847
28803W        W45277   2.953  14.521   2.972 -0.0307 -0.3422  0.0149
28804W        W45278   5.658  13.482   3.497 -0.0241 -0.2179  0.1086
28805W        W45279   1.826  15.800  15.443 -0.0732 -0.0009 -0.0563
28806W        W45280  16.744   0.303   4.570  0.3129 -0.3226  0.0467
28807W        W45281  14.735   3.514  15.003 -0.2210 -0.2578  0.1822
28808W        W45282  11.233  16.427   1.753 -0.1261  0.1069  0.0251
28809W        W45283   2.455   8.714  12.970  0.0132 -0.3886 -0.1523
28810W        W45284  12.496   2.869  12.522  0.0024 -0.2522 -0.1296
28811W        W45285   1.495  13.036  12.734 -0.2216 -0.0153  0.2212
28812W        W45286  12.904  15.874   3.032  0.0595 -0.1813 -0.0315
28813W        W45287   1.718   3.057  13.878  0.4297  0.0881 -0.2563
28814W        W45288   1.527  12.183  16.108 -0.1564  0.1230 -0.1893
28815W        W45289   1.091  13.914   3.363  0.1057 -0.2994  0.1000
28816W        W45290   4.129   0.899   3.290  0.0036  0.0941 -0.1118
28817W        W45291   3.049   1.902   5.901 -0.0385  0.0397 -0.1436
28818W        W45292  14.045   3.128  12.151  0.2014 -0.2392 -0.0587
28819W        W45293  16.485   1.706  16.168  0.2531  0.2022 -0.0642
28820W        W45294   1.069  16.011  13.844  0.0074 -0.0906  0.0506
28821W        W45295   2.252   2.295   2.952  0.1097  0.1624 -0.3077
28822W        W45296   6.439   6.185  14.636  0.1017 -0.0697 -0.4029
28823W        W45297  18.244   5.417   3.548 -0.1108 -0.0676  0.0193
28824W        W45298   5.805   6.181  15.367 -0.4289  0.1737 -0.1228
28825W        W45299  12.322  12.491   0.327  0.0642 -0.3354 -0.0577
28826W        W45300   2.545   9.876  13.694 -0.0665 -0.0895 -0.1034
28827W        W45301  11.992   6.912   5.305 -0.1228 -0.1624  0.0813
28828W        W45302  17.030   8.330  13.766 -0.0928 -0.1263 -0.0161
28829W        W45303  14.771   2.159  13.558  0.0258 -0.0340 -0.0436
28830W        W45304  14.233   5.557  13.402 -0.0368 -0.0386 -0.1434
28831W        W45305   5.782   8.957   0.658 -0.0829 -0.0898 -0.1632
28832W        W45306  11.108  17.087  16.032 -0.0358  0.0205 -0.0322
28833W        W45307   6.316  18.276  15.160 -0.4068  0.2223  0.1005
28834W        W45308   5.461   2.292   5.545 -0.1120  0.0235 -0.0280
28835W        W45309  17.885   0.433  16.237 -0.2003 -0.0301 -0.0059
28836W        W45310  13.679  16.758   2.292 -0.1595 -0.1719  0.0040
28837W        W45311   2.531  17.669   2.869  0.3981  0.1493  0.0771
28838W        W45312   1.233   3.148  12.732  0.2867  0.1156 -0.0272
28839W        W45313   8.838  17.238   3.997 -0.2955  0.1687  0.1369
28840W        W45314  12.901  16.347   2.762  0.1455  0.1309  0.0236
28841W        W45315   9.735   2.667   1.825 -0.0321 -0.3150  0.1348
28842W        W45316   6.032   6.960   1.042  0.0769 -0.3605  0.2062
28843W        W45317  14.419  16.646  11.685 -0.0594 -0.1143  0.2122
28844W        W45318   7.759  10.827  15.814 -0.0103 -0.1202 -0.2953
28845W        W45319   6.000  15.121   4.292 -0.1336 -0.0970 -0.0548
28846W        W45320  10.067   4.756   2.380 -0.0423 -0.2970 -0.0918
28847W        W45321   1.464   9.094   3.449  0.0802 -0.3237 -0.0391
28848W        W45322  13.474   3.515  13.430 -0.0054  0.2027 -0.0656
28849W        W45323   4.474   9.125   4.267 -0.0832  0.0186  0.0724
28850W        W45324   4.777   3.859  15.845 -0.2270 -0.2277 -0.0865
28851W        W45325  11.593   1.611  13.582 -0.1449 -0.1091  0.2224
28852W        W45326  13.597   8.594  12.158  0.1552  0.1062 -0.2235
28853W        W45327   6.947   9.522  11.964  0.1184  0.0333 -0.1610
28854W        W45328   0.412  10.727  14.032 -0.0618  0.0812 -0.1178
28855W        W45329   6.402  12.738   3.440  0.1064  0.4465 -0.1330
28856W        W45330   4.451  16.994  15.961  0.1170  0.3402  0.0772
28857W        W45331  13.147  15.239  12.253 -0.0113 -0.0289 -0.1493
28858W        W45332  18.152  10.304   4.289 -0.0226 -0.0005  0.0119
28859W        W45333   4.287  16.784   4.740  0.0802  0.1077  0.0820
28860W        W45334   9.316   7.229  12.963 -0.5412  0.0909 -0.2519
28861W        W45335  15.968  10.468  13.406 -0.0409  0.1142  0.2344
28862W        W45336   7.236   1.394   0.261 -0.1584 -0.0121  0.1810
28863W        W45337  12.701   1.070   2.149 -0.0854 -0.1306 -0.1310
28864W        W45338   2.536  18.236  13.600  0.0706 -0.2903  0.1329
28865W        W45339  17.645   1.224  13.737  0.0254 -0.1588  0.0805
28866W        W45340  13.003  12.335   5.712  0.0171 -0.1260  0.0656
28867W        W45341   3.830  14.701  14.811 -0.1164 -0.3187  0.3309
28868W        W45342   5.784   2.645   4.905  0.2484 -0.2415 -0.0577
28869W        W45343  10.694  17.606   2.687  0.3876 -0.2300 -0.1871
28870W        W45344   2.841   2.504  12.832 -0.2742  0.0374 -0.2225
28871W        W45345  14.329  18.145  14.447 -0.0337 -0.2548  0.0558
28872W        W45346  16.873   3.317  14.895  0.0876 -0.2518  0.0003
28873W        W45347  11.244  17.271   0.319 -0.0494 -0.1576  0.1916
28874W        W45348   7.426  10.358   3.205 -0.1007 -0.1721 -0.0494
28875W        W45349   5.363   5.528  14.676 -0.0238  0.0541  0.1516
28876W        W45350  18.315  11.649   3.414  0.0294  0.0428  0.0384
28877W        W45351  12.891   6.749  16.004 -0.0263 -0.1675 -0.1698
28878W        W45352   3.562  18.189   3.211 -0.2226 -0.0254  0.2000
28879W        W45353   7.498  15.237  12.844  0.1670  0.0544  0.1423
28880W        W45354   0.783   8.517  13.898 -0.2369 -0.3074 -0.0344
28881W        W45355   0.007   6.249   5.529  0.1183  0.1334  0.0532
28882W        W45356   0.551  18.149   3.898  0.3902  0.0577  0.2972
28883W        W45357  17.129   6.635   3.329 -0.2766 -0.1015 -0.1716
28884W        W45358   3.061  12.263   3.016 -0.1854  0.0959  0.1979
28885W        W45359   2.197   7.431   3.920  0.2139  0.0037  0.2358
28886W        W45360  14.626   1.202   0.062 -0.1661  0.1462 -0.2132
28887W        W45361   4.204   9.773   2.423 -0.1808 -0.1543  0.3126
28888W        W45362  13.589   6.573  12.314 -0.2261  0.1425 -0.0231
28889W        W45363   4.077  10.496   4.726 -0.2982  0.1163  0.1226
28890W        W45364   5.171   1.019  16.044  0.1730 -0.1514  0.1006
28891W        W45365   8.252   9.749   4.843 -0.0307  0.1234 -0.1645
28892W        W45366  11.889  16.141  15.048 -0.1673 -0.3550 -0.2424
28893W        W45367  15.998   2.159   4.553 -0.0675 -0.4218 -0.0272
28894W        W45368   9.740   6.228   0.707 -0.0876  0.2182 -0.1635
28895W        W45369  17.002   0.357  16.311 -0.1230 -0.0445 -0.2904
28896W        W45370   2.166  17.054  11.918  0.2375 -0.1339  0.3711
28897W        W45371  17.548   8.655   2.419  0.2346 -0.3312 -0.1187
28898W        W45372   3.261  15.130  11.167  0.1956 -0.0599  0.0796
28899W        W45373   3.999  14.939  14.159  0.1259 -0.0496  0.2483
28900W        W45374   9.804   8.660   0.734 -0.2165 -0.1839 -0.2890
28901W        W45375   7.964   9.273   4.837 -0.2324  0.3143  0.1127
28902W        W45376  11.760   1.762   3.599  0.0042 -0.0334 -0.0616
28903W        W45377  11.593  12.984  11.635  0.1943  0.0782 -0.1661
28904W        W45378  10.957   0.952   4.358 -0.2661 -0.1478 -0.2109
28905W        W45379   3.166  13.890  14.071 -0.1387  0.1755  0.0814
28906W        W45380   7.420  18.235  16.183 -0.1590 -0.0300 -0.1754
28907W        W45381   8.270   1.920   1.434 -0.1078 -0.2402  0.1849
28908W        W45382   4.919   0.980   3.068 -0.0762 -0.2467 -0.3637
28909W        W45383   6.588   5.573  12.911 -0.1813  0.2306 -0.1001
28910W        W45384   6.370  17.213   4.280 -0.2395 -0.3403 -0.0623
28911W        W45385   3.805   2.537   5.062  0.1959 -0.0715 -0.2046
28912W        W45386  14.474  17.330  11.355 -0.6143 -0.0845  0.2604
28913W        W45387   9.767  14.192   4.497  0.1801  0.0316  0.2722
28914W        W45388   6.123  16.784   4.334 -0.1076 -0.1685  0.1443
28915W        W45389   2.164   3.362   1.312  0.4099  0.1858 -0.1731
28916W        W45390  11.710  13.296  13.205  0.0364 -0.0551  0.1505
28917W        W45391  11.290  11.930   3.264 -0.1868  0.2029  0.3969
28918W        W45392   1.012   5.200  11.173  0.1396  0.2486 -0.0443
28919W        W45393   0.083   8.280  15.346  0.2340 -0.0602  0.3762
28920W        W45394   8.677  18.141  12.414  0.0767 -0.3099 -0.0522
28921W        W45395   6.234  10.945  11.919 -0.2011 -0.1283  0.1609
28922W        W45396   7.148  15.606  12.410  0.1352 -0.0444  0.0582
28923W        W45397  13.935   3.791  14.167  0.3999  0.0290  0.0889
28924W        W45398   2.096  11.343  15.810 -0.0756  0.1884  0.1978
28925W        W45399   2.305  11.389  13.145 -0.1681 -0.1073  0.0851
28926W        W45400   7.178   9.047  16.069 -0.3522 -0.2964 -0.0690
28927W        W45401  13.588   4.687   4.122 -0.1442  0.0302  0.1482
28928W        W45402   3.673   6.526   3.079 -0.2512  0.3219 -0.1506
28929W        W45403   2.056  16.046   2.283  0.0673 -0.1714  0.0383
28930W        W45404   6.881  14.806  14.517  0.4023 -0.0700  0.0075
28931W        W45405  13.333   5.408   0.271 -0.1173 -0.3167 -0.2082
28932W        W45406   7.957   3.093   6.056  0.1243 -0.2587 -0.1605
28933W        W45407  14.523  17.485  14.086 -0.2519 -0.0340  0.0744
28934W        W45408  16.517   1.582   2.157 -0.0087 -0.1221  0.1081
28935W        W45409  12.536  10.569   1.908  0.0802 -0.1743  0.2434
28936W        W45410  17.509  16.404   2.444  0.1788 -0.3862  0.0205
28937W        W45411   3.824  15.251   0.429 -0.0229  0.0201 -0.0410
28938W        W45412  15.261  10.197   4.950 -0.0019 -0.0157 -0.0503
28939W        W45413   4.526   9.164   0.222  0.0224 -0.2901  0.2808
28940W        W45414   0.165   3.781   0.960  0.0257 -0.2188 -0.0579
28941W        W45415  17.867   7.644   0.023  0.1515 -0.1957  0.4320
28942W        W45416   0.967  16.369   4.646  0.1467  0.1028  0.1847
28943W        W45417  17.532  17.867  11.318 -0.0421  0.1408  0.1837
28944W        W45418   4.926   8.721   4.923 -0.2214  0.0302 -0.2220
28945W        W45419  13.836  10.911   3.371 -0.1500 -0.0321 -0.0191
28946W        W45420  15.597   8.868  15.019  0.4463  0.0407 -0.0226
28947W        W45421   4.020   5.801  11.349 -0.2583  0.2352  0.0021
28948W        W45422   0.773   0.197  14.652  0.0852 -0.0484 -0.0920
28949W        W45423   3.545  10.460  14.660  0.0712  0.3208  0.0188
28950W        W45424  10.972   9.596   3.763  0.0851 -0.1142 -0.0167
28951W        W45425  10.351   9.676   2.456 -0.3530  0.1050 -0.1475
28952W        W45426  18.083  17.631  13.784  0.1314  0.1182 -0.0759
28953W        W45427   9.464  12.106  12.583 -0.0236  0.0927 -0.0851
28954W        W45428  13.585  15.590  13.054  0.2139 -0.0866 -0.0974
28955W        W45429   1.010   7.638  14.523 -0.4486 -0.0984  0.1493
28956W        W45430  12.104   0.410  15.710 -0.0562 -0.0132 -0.3898
28957W        W45431  13.741   9.458   5.059 -0.2139  0.2750  0.4172
28958W        W45432  15.638  17.534   2.687  0.1806 -0.1654  0.1511
28959W        W45433  14.233   4.381  16.064  0.2860 -0.2889  0.1285
28960W        W45434  15.004   3.370  16.203 -0.3281  0.1820 -0.0449
28961W        W45435   0.949   6.318   3.764 -0.1826 -0.0373  0.1362
28962W        W45436  10.067  10.307  14.585 -0.1022  0.0652  0.3210
28963W        W45437  14.244   2.889  15.729  0.0862  0.2309  0.1703
28964W        W45438  17.035   9.401  14.581 -0.2724 -0.0369  0.0855
28965W        W45439  13.117  17.173  12.485  0.4210  0.0752  0.2295
28966W        W45440   2.239   8.788   1.102  0.2927 -0.3282  0.1307
28967W        W45441   1.348   1.437  15.428 -0.0881  0.3732  0.0068
28968W        W45442   7.025   4.939   1.214 -0.0029 -0.0675  0.1497
28969W        W45443  12.180   0.409   1.460 -0.0482  0.2699  0.0842
28970W        W45444   3.189   5.978  15.821  0.2184 -0.3209  0.1520
28971W        W45445   7.211   3.909   5.166 -0.1559 -0.1621  0.0543
28972W        W45446  15.592   5.877  11.080 -0.1248 -0.0417 -0.1432
28973W        W45447  10.540   1.799  12.772  0.0168  0.2808  0.1685
28974W        W45448   3.748   9.770   2.216  0.2634 -0.2669  0.1894
28975W        W45449  15.754  16.139  15.831 -0.3059  0.0740  0.0872
28976W        W45450   1.240  14.996   2.874 -0.0558 -0.1860  0.0809
28977W        W45451   7.684  11.043   4.250  0.0185  0.0388 -0.0246
28978W        W45452  11.143  11.201  15.023  0.1117 -0.0451 -0.1709
28979W        W45453  16.306   7.137   3.083  0.1017  0.2699 -0.2233
28980W        W45454   5.238   9.817   4.372 -0.2813  0.0149  0.1476
28981W        W45455   6.000   7.859   3.190 -0.2476  0.2089 -0.3128
28982W        W45456   4.341   4.032   3.254 -0.3873  0.0968  0.3876
28983W        W45457   0.218   5.917   0.920  0.0160  0.1832  0.1388
28984W        W45458  11.953   2.936  12.551 -0.4281  0.0066  0.0325
28985W        W45459  14.198  17.299   1.053 -0.0944  0.2085  0.0837
28986W        W45460  14.794   9.322  14.050 -0.3844  0.0255 -0.1720
28987W        W45461   2.208   6.247  11.743 -0.1341 -0.1608 -0.0113
28988W        W45462   4.716   7.532  11.667 -0.0120 -0.1542  0.1958
28989W        W45463  15.572  10.152  15.550 -0.0148  0.0270  0.0080
28990W        W45464   8.700   6.895  14.386 -0.0858 -0.0178 -0.0754
28991W        W45465  12.003  12.458  14.732  0.0996 -0.1799 -0.0440
28992W        W45466  13.749  16.069  12.185  0.0318 -0.1145  0.1700
28993W        W45467   2.658   3.244  12.175 -0.0266  0.0999 -0.3000
28994W        W45468  10.709  15.090  15.296  0.3254 -0.3277  0.0164
28995W        W45469  14.881  16.622   4.905  0.0767 -0.3171 -0.0786
28996W        W45470  10.545   2.956   1.402  0.1535 -0.2806  0.0162
28997W        W45471  16.408  13.941  12.136  0.3698 -0.0043 -0.1346
28998W        W45472   4.843   7.817   1.353  0.0931 -0.0479 -0.0684
28999W        W45473   8.540   4.501   0.356  0.2292  0.1227  0.4133
29000W        W45474   3.802  17.349   0.046 -0.0645  0.0495 -0.1416
29001W        W45475   5.412   8.699  10.498  0.0558  0.2495 -0.3920
29002W        W45476   3.090   5.018  11.826  0.0695 -0.1972 -0.0360
29003W        W45477  14.522   7.711   2.129 -0.0990  0.0107  0.0869
29004W        W45478  15.047   9.558  14.375 -0.0661  0.2490  0.1800
29005W        W45479  13.949   9.570   2.843 -0.1873 -0.1023  0.0784
29006W        W45480   4.443  10.471  14.723 -0.1497 -0.0694 -0.0235
29007W        W45481   7.443   1.949  13.375 -0.1063  0.0693 -0.0771
29008W        W45482  11.680   9.049   3.304  0.2078 -0.1416 -0.3140
29009W        W45483  16.166   1.127  12.634 -0.0776 -0.0740 -0.0291
29010W        W45484  16.223   5.762   2.812 -0.2730 -0.0985  0.1712
29011W        W45485   8.814   8.388   3.428 -0.1138  0.2246  0.0764
29012W        W45486   3.986   4.395  11.354 -0.1724  0.0480 -0.0632
29013W        W45487  14.119   6.537   1.389 -0.0982  0.0446 -0.0569
29014W        W45488   9.046   4.819   5.807 -0.1287  0.2526 -0.1574
29015W        W45489  12.867  11.963  14.315 -0.1974  0.2845  0.3651
29016W        W45490   2.700  17.978   3.195 -0.0609 -0.3622  0.0054
29017W        W45491  12.557   1.079   4.870  0.0999  0.1215  0.2640
29018W        W45492  10.357   8.898   3.917 -0.2159 -0.0623 -0.0375
29019W        W45493  17.067   0.753   4.332 -0.0202  0.0420  0.1883
29020W        W45494   0.291  17.619  13.871  0.2689  0.1490  0.1006
29021W        W45495   3.999   3.222  15.325  0.0798 -0.1449  0.0222
29022W        W45496  16.358  15.500   3.026  0.2230 -0.1411 -0.3235
29023W        W45497   8.275   7.925  13.352  0.0572 -0.5689 -0.1045
29024W        W45498   2.365  12.876  13.677  0.2952 -0.2083  0.3168
29025W        W45499   6.874   8.035   4.465  0.3064  0.0009  0.0572
29026W        W45500  10.527   1.160  15.111  0.1143  0.4076  0.1254
29027W        W45501   1.229   2.912   2.962  0.3929 -0.0597  0.1080
29028W        W45502  17.693   9.812   4.563  0.1511 -0.3074  0.1383
29029W        W45503  16.184  18.010  10.768  0.0913  0.2593 -0.1785
29030W        W45504   8.385   2.237  14.941  0.5808 -0.0382 -0.1579
29031W        W45505  15.181   1.144  12.720 -0.0145 -0.0040 -0.0804
29032W        W45506  13.714  17.437  16.141  0.1150  0.0669  0.2898
29033W        W45507  13.015   4.171   0.772  0.0105  0.2414 -0.1685
29034W        W45508   8.253  11.190  13.540 -0.0924 -0.0161  0.1293
29035W        W45509   3.554   8.040   3.468  0.0992  0.0048 -0.3245
29036W        W45510  14.336  13.956   4.432  0.0470  0.0317  0.2585
29037W        W45511  10.803  17.315  11.177  0.2700  0.1882  0.1281
29038W        W45512   8.450  17.275   5.016 -0.1051  0.0083 -0.3103
29039W        W45513   1.483   6.429  14.650  0.3311 -0.0185  0.2668
29040W        W45514   9.767   5.895  13.986  0.0387 -0.0473  0.2779
29041W        W45515  17.411  10.770  11.557 -0.1714 -0.0675  0.0113
29042W        W45516   7.581   3.226  11.533 -0.2765  0.0311  0.5247
29043W        W45517  15.146  12.373  10.670 -0.0275 -0.1331  0.2029
29044W        W45518   1.300   8.229   1.742 -0.0468  0.2995 -0.1294
29045W        W45519   6.112   2.187   4.172 -0.2041 -0.1260 -0.2475
29046W        W45520   1.431  15.731   2.968 -0.2668  0.1456 -0.0010
29047W        W45521  14.522   1.018   6.233 -0.2322 -0.2109 -0.1925
29048W        W45522   0.039  15.089   4.465  0.2647  0.3042  0.0222
29049W        W45523   6.192  14.612  11.902  0.0178 -0.3842 -0.2197
29050W        W45524  11.519   9.728  13.766 -0.0320 -0.0268 -0.2876
29051W        W45525  13.251  10.760   3.374  0.1339 -0.1349  0.0795
29052W        W45526   9.791   4.515  14.574  0.2427  0.0239  0.0277
29053W        W45527   4.797   5.317   5.812  0.1096  0.2201 -0.0108
29054W        W45528   5.091   3.807   1.414 -0.3120 -0.2554  0.1484
29055W        W45529   5.707   0.746   5.204 -0.0516  0.2245 -0.2634
29056W        W45530   1.639   8.024  15.452 -0.0200 -0.0555  0.0787
29057W        W45531   3.616  11.193  12.112 -0.2520 -0.3275 -0.0460
29058W        W45532   2.543  12.813   3.526 -0.3449 -0.2779 -0.1710
29059W        W45533   3.564   1.272  12.438  0.1122  0.0713  0.1243
29060W        W45534   3.190   4.944   2.861  0.1438 -0.1062 -0.0774
29061W        W45535   9.505  12.074   1.897  0.1280 -0.0074  0.0532
29062W        W45536   8.113  13.999   3.674 -0.0493  0.0062  0.0612
29063W        W45537   6.012   4.080  12.428  0.4265 -0.0606 -0.2014
29064W        W45538  17.129  12.094  10.972  0.2851  0.1182  0.1434
29065W        W45539   6.709   7.952  13.452  0.2933 -0.2272 -0.0163
29066W        W45540  15.160   2.625   0.984 -0.0405  0.0920  0.0814
29067W        W45541   1.306   2.439   4.501 -0.0077  0.0768 -0.1944
29068W        W45542   4.123   4.510   3.517 -0.0405  0.1045 -0.1676
29069W        W45543  13.790  15.864   3.063 -0.0338  0.0449 -0.0331
29070W        W45544  14.779  10.685   2.431  0.2113 -0.0033 -0.0708
29071W        W45545   9.059  17.378  14.282 -0.3310  0.2854  0.2154
29072W        W45546   1.257  16.404   3.689 -0.3007  0.0206  0.0570
29073W        W45547   1.515  17.218   0.351 -0.0469 -0.0184  0.1263
29074W        W45548  15.367  14.354  11.255 -0.0710  0.0548  0.0514
29075W        W45549  16.673   4.758   4.161  0.2728  0.1508 -0.0661
29076W        W45550  14.815  17.454   5.274 -0.0361  0.0050 -0.1547
29077W        W45551   1.577   5.903   0.465  0.0646 -0.1444 -0.2604
29078W        W45552  11.470   6.015   3.144 -0.2214 -0.0637 -0.1611
29079W        W45553  14.850   6.229   4.225 -0.2043  0.0668  0.1470
29080W        W45554  15.078  15.464   2.656  0.1511 -0.2008  0.0375
29081W        W45555  16.489  17.610   3.418  0.0229 -0.3048 -0.1352
29082W        W45556  17.440   4.064  14.094  0.0998  0.1095 -0.0581
29083W        W45557  15.035  13.514   6.513 -0.0045 -0.2039 -0.2449
29084W        W45558  11.715  15.776  14.644 -0.0364 -0.0111 -0.1795
29085W        W45559   5.433   6.390   4.764 -0.0262 -0.0433  0.1556
29086W        W45560  15.017   1.028  14.359 -0.2811 -0.2149  0.2417
29087W        W45561  13.879   9.871   3.307  0.2464 -0.0677  0.0107
29088W        W45562  15.386  11.046   0.293  0.1242  0.2951 -0.0777
29089W        W45563  12.593  11.067   0.261 -0.0975 -0.1499  0.3253
29090W        W45564   4.355  14.035  13.407 -0.3598  0.0596 -0.0394
29091W        W45565   2.239   9.171  13.183 -0.3402 -0.3373  0.1495
29092W        W45566  13.201  10.123   1.951 -0.0238  0.0161 -0.0377
29093W        W45567   7.518  12.550  12.324 -0.0070 -0.0640 -0.0356
29094W        W45568   9.542   2.025   4.225  0.0545 -0.1233 -0.0714
29095W        W45569   3.789  15.249  13.729  0.0578 -0.2674  0.0864
29096W        W45570   4.043   9.755   0.094 -0.0098 -0.1178 -0.1678
29097W        W45571   0.462  13.973   0.632  0.0434  0.0073 -0.0293
29098W        W45572   8.745  10.177  16.251  0.0445  0.0823  0.0176
29099W        W45573   6.924   7.712   0.526 -0.1470 -0.1658 -0.1382
29100W        W45574  16.505  12.174  12.288 -0.0747 -0.0108  0.1458
29101W        W45575  11.500  14.511  15.527 -0.1094  0.0939  0.1424
29102W        W45576  17.960   3.054  14.001 -0.0795  0.0850 -0.0481
29103W        W45577   2.005  14.916   1.273  0.1262  0.0885  0.2285
29104W        W45578  14.832  10.649  12.510 -0.1401  0.0660  0.3435
29105W        W45579   0.650  12.833   4.517  0.0069  0.1910  0.0785
29106W        W45580   1.408  10.513  11.721 -0.3611  0.1130 -0.3802
29107W        W45581  13.694  11.971   5.300 -0.1983 -0.2073 -0.3646
29108W        W45582   2.797  15.025   4.433  0.0880 -0.0996 -0.1497
29109W        W45583  14.071  13.708   4.788 -0.1236 -0.1168  0.1061
29110W        W45584   5.735  14.569   3.822  0.1538 -0.2940  0.3677
29111W        W45585  16.401  13.737   1.613  0.2886 -0.0636 -0.3888
29112W        W45586  11.877   8.647  12.597 -0.3644 -0.0016  0.1208
29113W        W45587  13.994  15.149   4.333  0.2761  0.1622 -0.0160
29114W        W45588   7.836  12.336   1.974 -0.2190 -0.1654  0.0635
29115W        W45589  11.027  10.106   1.961 -0.3593 -0.1353 -0.1087
29116W        W45590  14.311   5.086   0.378 -0.1456  0.0166  0.0837
29117W        W45591  14.709   3.302   0.804 -0.1600 -0.0148  0.2323
29118W        W45592  10.869   9.268   1.578  0.0054  0.0765 -0.1160
29119W        W45593  17.546  17.713   1.832  0.2386  0.2107  0.3676
29120W        W45594  11.522   5.713   0.558  0.1837  0.1498  0.2661
29121W        W45595  15.964   9.382   2.848  0.2401 -0.0481 -0.0180
29122W        W45596  11.226  11.611   1.404  0.1254  0.0605 -0.3794
29123W        W45597   8.879   1.524  11.718  0.0941  0.0062  0.0304
29124W        W45598  12.798   9.624   3.327 -0.1673  0.0746  0.0102
29125W        W45599   0.564  11.871   6.188 -0.1042 -0.4565 -0.1093
29126W        W45600   7.067   3.403   1.072  0.0466  0.2063 -0.1727
29127W        W45601   6.843  13.952  12.343 -0.2276 -0.1226  0.1114
29128W        W45602   3.820   7.012   1.632  0.2775  0.0938  0.2496
29129W        W45603   7.536   1.960  11.386  0.1319 -0.1413  0.3340
29130W        W45604   5.075   6.905  15.691  0.0114  0.0019 -0.2414
29131W        W45605  16.227  10.901  11.104  0.1050 -0.0129  0.1115
29132W        W45606   4.478  15.258   0.839  0.3526  0.0417 -0.2874
29133W        W45607  14.683  11.999  12.118  0.0996  0.1177  0.0680
29134W        W45608   7.533   6.129   3.696  0.1833  0.1894 -0.3885
29135W        W45609   5.657  17.657   4.193 -0.0777 -0.0725 -0.3195
29136W        W45610  12.564   8.023   3.267 -0.0415 -0.0865 -0.0835
29137W        W45611  10.097  16.233  12.464 -0.1107  0.3424 -0.0073
29138W        W45612  12.839   5.330   0.309 -0.0116  0.1594 -0.2930
29139W        W45613   0.120  14.265  15.624  0.0114  0.0449 -0.0552
29140W        W45614   4.067  13.948  12.126 -0.0662  0.2251 -0.1681
29141W        W45615   7.609  18.018  12.298  0.1379 -0.2715  0.3930
29142W        W45616  12.845  15.527  13.485 -0.1045 -0.3056 -0.0911
29143W        W45617  15.915   2.551   0.372  0.4095 -0.1361 -0.1420
29144W        W45618   5.020  13.069   1.681  0.1170  0.4132  0.1036
29145W        W45619   8.036   8.492  15.031  0.0017  0.0501  0.1497
29146W        W45620   3.370   5.535   2.771 -0.0606  0.5177 -0.0235
29147W        W45621   6.405   6.868   3.661  0.3117  0.1097  0.0026
29148W        W45622   5.546  11.588   1.869  0.0626 -0.0036 -0.1426
29149W        W45623  15.505   8.619   4.779  0.0966  0.2394  0.0341
29150W        W45624   2.686   3.658  11.716 -0.0334 -0.0443  0.1295
29151W        W45625   8.980  16.347  14.877  0.1213 -0.0262 -0.0807
29152W        W45626   7.114   3.444  12.695 -0.1680 -0.0409  0.3755
29153W        W45627  17.921  10.078  12.254 -0.0253 -0.4188 -0.0647
29154W        W45628   7.452  13.102   0.401 -0.0493  0.0945  0.2046
29155W        W45629   8.545   4.421  13.471  0.0284  0.2517 -0.2138
29156W        W45630   1.629   9.951  12.075 -0.0130  0.2626 -0.1120
29157W        W45631  15.421   4.668  12.891 -0.1321 -0.0687 -0.0176
29158W        W45632   4.161  10.699  14.161  0.0989 -0.0789 -0.4211
29159W        W45633   2.874  11.667   2.393 -0.0486  0.0728  0.2273
29160W        W45634  13.534  18.229   2.346 -0.2370  0.4315 -0.0130
29161W        W45635   4.722  11.943   4.484  0.2700 -0.4671  0.0503
29162W        W45636   4.061   7.708   0.157 -0.0166  0.1816 -0.0136
29163W        W45637  14.799  11.371  16.231  0.0428 -0.1598  0.1846
29164W        W45638   3.548  15.721  14.652  0.0558  0.1650  0.2325
29165W        W45639  17.557  17.722  12.274  0.2059 -0.0460  0.0146
29166W        W45640   7.816   6.049  12.908  0.1944  0.0069  0.0646
29167W        W45641   9.574   4.405   4.073 -0.0971 -0.1007  0.1394
29168W        W45642  12.562   2.703   1.371  0.1244  0.2865 -0.1909
29169W        W45643   0.017   9.428   2.501  0.0437 -0.2286  0.0063
29170W        W45644  15.739   5.879  15.219  0.0120  0.2774  0.3386
29171W        W45645   6.238   0.741  13.815  0.1051  0.3039 -0.0073
29172W        W45646  13.499   6.766   6.414  0.2862  0.2500 -0.0491
29173W        W45647   6.206   8.881   5.713  0.0581  0.0752 -0.2100
29174W        W45648  17.647   5.417  12.357 -0.0016  0.3858 -0.0460
29175W        W45649  15.956  12.487   5.578 -0.1949  0.1824  0.0867
29176W        W45650   1.254  13.225   6.080 -0.0102 -0.0494 -0.3346
29177W        W45651  17.574   6.461   4.855 -0.0383  0.5014  0.0394
29178W        W45652   8.060  16.910   2.847 -0.1130  0.1776  0.0076
29179W        W45653   7.467  12.300   4.488 -0.2213 -0.0170 -0.0908
29180W        W45654  11.505   3.317  12.721  0.0706 -0.0045 -0.0331
29181W        W45655   4.267  10.638   1.462 -0.0655  0.3378 -0.1055
29182W        W45656  17.410   4.632  12.768 -0.0489  0.0196 -0.0179
29183W        W45657   3.446   8.802   0.800 -0.0402  0.2970  0.1857
29184W        W45658  17.549   7.843  14.323 -0.0441  0.1267 -0.2003
29185W        W45659   8.948   9.352   2.206 -0.0613  0.2864 -0.1981
29186W        W45660   7.101  12.893  12.332 -0.1277  0.0328 -0.0105
29187W        W45661  16.047   2.845  16.206 -0.0445  0.3275 -0.0454
29188W        W45662   1.625   4.487   3.600 -0.1452 -0.2654  0.0445
29189W        W45663  17.545  14.479  11.544 -0.2974 -0.1032 -0.3319
29190W        W45664  17.228  11.642   3.290  0.0238  0.3053 -0.4453
29191W        W45665   2.483   0.252  16.012 -0.0666 -0.2239 -0.1003
29192W        W45666  14.657  14.072  14.105 -0.1632  0.1934 -0.3189
29193W        W45667  14.780   4.399   4.282  0.0824 -0.2719 -0.2059
29194W        W45668   9.283  17.754   1.761 -0.1007  0.2685  0.2954
29195W        W45669  17.111  16.364  12.798 -0.1357  0.1521  0.3250
29196W        W45670   2.712   8.429  13.387  0.0974  0.4060 -0.0954
29197W        W45671   4.589  10.319   1.168 -0.1866 -0.1061  0.1079
29198W        W45672   5.493   8.615  11.933 -0.0278  0.0120 -0.3435
29199W        W45673  17.193  14.882   2.085  0.2462 -0.2051 -0.0331
29200W        W45674  17.324  12.816   5.433  0.2344 -0.0418 -0.4081
29201W        W45675   9.280  18.064   1.365  0.1046  0.0133 -0.1268
29202W        W45676  11.126   0.552   4.967  0.2041 -0.2250  0.4570
29203W        W45677   4.509  15.456   4.410  0.0771 -0.0962 -0.0475
29204W        W45678   6.614  15.421  15.781 -0.0331 -0.0036  0.1184
29205W        W45679   4.592   7.771  15.751  0.0251 -0.1536 -0.1160
29206W        W45680   8.212   6.750   3.406  0.2061 -0.0546 -0.1287
29207W        W45681  15.634   8.117   2.501  0.3556 -0.2333  0.0204
29208W        W45682  14.659   6.770   4.700  0.2231 -0.0828 -0.1546
29209W        W45683  13.019   3.833   3.120  0.0213 -0.1881 -0.1679
29210W        W45684  12.342   5.549   3.990  0.3051  0.0090  0.0184
29211W        W45685  16.854   9.098   1.151  0.0358  0.1085 -0.3970
29212W        W45686  13.615   5.509  10.981 -0.2299  0.1418  0.0664
29213W        W45687  10.065  14.057  15.507  0.0886  0.0104  0.3420
29214W        W45688   6.827   6.063   1.391  0.0645 -0.2598  0.3972
29215W        W45689   9.296  11.197  12.664  0.1506 -0.0062 -0.2386
29216W        W45690  16.892   2.268  11.548 -0.0776  0.2793 -0.2705
29217W        W45691   9.743  17.452   0.078 -0.0973  0.0269 -0.0946
29218W        W45692   1.196   2.657  10.818 -0.1199 -0.1210  0.1268
29219W        W45693   6.308   9.673   5.835  0.0160 -0.0606  0.0703
29220W        W45694  16.854   6.280   1.047  0.0933 -0.1572 -0.0287
29221W        W45695  17.905   7.760  13.033  0.2114  0.0151  0.0739
29222W        W45696  13.075   7.635  14.208  0.1846  0.1759  0.0005
29223W        W45697   5.704  14.204   2.113 -0.0319  0.0212  0.2480
29224W        W45698   6.338   7.526  13.549  0.2761 -0.0191 -0.0353
29225W        W45699  12.767   6.459  11.329 -0.1909 -0.0824  0.0541
29226W        W45700   6.250   4.787   4.633 -0.2160  0.0348 -0.3713
29227W        W45701   6.382  14.927   5.350 -0.1470  0.0011 -0.0089
29228W        W45702   0.888  16.427   5.715  0.1651  0.1995  0.2084
29229W        W45703  12.923   2.311   6.099  0.0082 -0.0147 -0.2282
29230W        W45704  10.510  16.777  13.258 -0.1635 -0.1204  0.2485
29231W        W45705  16.024  15.137  14.291  0.1350  0.0082  0.2482
29232W        W45706  10.130   1.810   5.212 -0.1342 -0.4177 -0.3064
29233W        W45707  13.181   2.853  15.553 -0.3364  0.0810 -0.2472
29234W        W45708  10.491   6.851  12.658 -0.5404 -0.2206 -0.2004
29235W        W45709   3.470   2.128   5.882 -0.1333 -0.0602  0.2634
29236W        W45710  10.464  11.576   3.155 -0.0241  0.1966 -0.1452
29237W        W45711   1.530  10.348  13.083  0.3354  0.0797 -0.0667
29238W        W45712   3.149  13.632  16.006  0.2025  0.3606 -0.1189
29239W        W45713   3.004   0.157   0.420 -0.1001  0.2326 -0.2500
29240W        W45714   4.232   3.166   5.423 -0.1157  0.3392 -0.0813
29241W        W45715  10.060   1.460  11.922  0.2229  0.1442  0.1522
29242W        W45716   3.444   8.126  13.073  0.1521 -0.2644  0.1398
29243W        W45717  10.108   3.610   3.512  0.0895  0.1624  0.0009
29244W        W45718   8.895   9.944   0.374 -0.4300 -0.0107 -0.2099
29245W        W45719   7.659  15.846  14.582 -0.1663  0.1880  0.2455
29246W        W45720   4.899   0.823   4.846  0.1280 -0.0039 -0.4120
29247W        W45721   6.295  10.301   0.978 -0.0542  0.2120 -0.1369
29248W        W45722   9.962  12.895  13.445  0.0408 -0.0904 -0.0257
29249W        W45723  12.174  16.520   5.018  0.0533  0.0754  0.1122
29250W        W45724   0.599   2.449  12.416 -0.2988 -0.1126 -0.2068
29251W        W45725   8.752   0.300  11.038  0.0673 -0.1487  0.2431
29252W        W45726   9.017  13.931   5.171 -0.1335 -0.2050 -0.1661
29253W        W45727   3.042  10.266   5.811 -0.0872 -0.0393  0.0721
29254W        W45728  10.141   2.409  14.479 -0.4039  0.1179 -0.0583
29255W        W45729  12.621   2.161   0.370 -0.1762  0.1091 -0.0135
29256W        W45730  13.369  14.603   2.596  0.0612 -0.1968  0.0549
29257W        W45731   6.576  14.573   3.084  0.0764 -0.0155  0.1663
29258W        W45732   9.734   2.339  11.500 -0.0422 -0.1611 -0.3455
29259W        W45733   9.032  17.593   1.382 -0.2272  0.0740 -0.1473
29260W        W45734   5.560  10.464   1.253  0.0198 -0.2415  0.0815
29261W        W45735   2.622  14.529  12.913 -0.2854 -0.0019  0.1093
29262W        W45736  14.333  11.061  13.342 -0.1133  0.1548  0.3226
29263W        W45737  10.352  16.987  14.762 -0.1857 -0.0533  0.2728
29264W        W45738   3.473  14.086   1.682 -0.0943 -0.1111 -0.1143
29265W        W45739   6.385  15.218   2.584  0.0547 -0.0338 -0.1423
29266W        W45740   1.629   4.822  12.453  0.0139  0.2003  0.1056
29267W        W45741  12.287   1.479  14.274  0.0782 -0.1838 -0.1059
29268W        W45742   8.396   1.602   2.768  0.0838 -0.0867 -0.2116
29269W        W45743   5.360   3.682   5.214  0.0547 -0.0896  0.1370
29270W        W45744   0.945  10.280  11.567 -0.3042  0.2003  0.2246
29271W        W45745  12.174  10.609   0.168 -0.3059 -0.2066 -0.1091
29272W        W45746   1.038   9.071  14.790  0.1856  0.0377 -0.1915
29273W        W45747  12.894  17.916   2.076  0.2407  0.0719  0.0194
29274W        W45748   7.456  16.654   5.373 -0.0227 -0.2194 -0.2369
29275W        W45749   1.512  16.642  14.939  0.1346  0.4314  0.0637
29276W        W45750  15.008   8.471  14.479  0.2768  0.1042  0.1287
29277W        W45751  15.840   8.513   0.127 -0.1979 -0.0026 -0.2332
29278W        W45752  10.392   2.266   3.438 -0.1985 -0.2402 -0.3363
29279W        W45753  12.775  14.133   4.630 -0.0411  0.0768  0.1074
29280W        W45754  16.303  18.297  12.224 -0.2969  0.2245  0.1545
29281W        W45755   0.362  16.856   4.521  0.1767  0.0111 -0.3477
29282W        W45756  11.225   7.183  15.893  0.0647 -0.1598  0.0250
29283W        W45757   1.396   8.514  14.361  0.1084 -0.2367 -0.2599
29284W        W45758  12.681  10.399  16.135 -0.0407  0.1429  0.0549
29285W        W45759  13.890  10.996  14.489  0.1504  0.3359  0.2154
29286W        W45760   9.987   2.196   2.682 -0.0699 -0.0856 -0.0306
29287W        W45761  11.252  17.633   4.530 -0.1066 -0.0662 -0.0747
29288W        W45762   3.296  18.068   1.786 -0.0980  0.1326 -0.2036
29289W        W45763  16.312   3.126   0.931  0.0161  0.0659 -0.0517
29290W        W45764   1.746   6.294  12.952 -0.3849 -0.3863  0.3653
29291W        W45765   7.553  16.251   1.633  0.0351 -0.1613  0.0160
29292W        W45766   8.084  14.762  15.942  0.0478 -0.0566 -0.0276
29293W        W45767   7.617   2.448  15.976 -0.4011 -0.2091  0.0892
29294W        W45768  14.887   9.851  13.114  0.1630 -0.3535 -0.1712
29295W        W45769   5.851  11.599  13.168 -0.2882 -0.0003  0.2971
29296W        W45770   1.472  17.861  11.653  0.0181  0.0564 -0.0555
29297W        W45771   7.223   6.451   4.885 -0.1272  0.0369 -0.1550
29298W        W45772   3.464  13.147   4.920 -0.0086  0.0710  0.1149
29299W        W45773  17.883  13.667  14.457 -0.0519  0.0099  0.0234
29300W        W45774  16.728   2.773  11.827 -0.1174  0.2049 -0.2272
29301W        W45775   5.470  11.942   6.189  0.1362 -0.2605  0.1819
29302W        W45776   6.587  17.456  14.311 -0.1559 -0.1258  0.2434
29303W        W45777   2.106   1.776  13.656  0.0135 -0.0678 -0.0397
29304W        W45778  15.105  18.169   4.855 -0.1562 -0.2484  0.0193
29305W        W45779   7.229   6.456   3.186  0.1545  0.3274 -0.2709
29306W        W45780   1.113   8.740   2.891  0.0048 -0.0848 -0.2341
29307W        W45781   4.053   8.481   4.146  0.0703  0.0310 -0.1396
29308W        W45782  11.299   2.198  11.566  0.2660  0.4790  0.2417
29309W        W45783   9.696   1.364   2.432 -0.1868 -0.2370 -0.0823
29310W        W45784   2.535  11.734  11.223 -0.2527  0.0478  0.0512
29311W        W45785  12.163   7.141   1.172 -0.0359  0.2824  0.2026
29312W        W45786   9.076   1.091   3.045 -0.0025  0.4198  0.1204
29313W        W45787   9.069  11.768  15.617 -0.1178  0.0308  0.1445
29314W        W45788  17.262   7.924   1.798  0.2723  0.0016 -0.2019
29315W        W45789  15.952   6.684   4.358 -0.0084  0.1281 -0.0471
29316W        W45790   1.212  11.113  15.555 -0.2533  0.1050 -0.0143
29317W        W45791  14.436  15.711   0.186 -0.1642 -0.3168 -0.2394
29318W        W45792  10.360   6.313   3.915 -0.1743  0.1131 -0.1143
29319W        W45793   4.563  15.291  16.118  0.1265  0.0357 -0.1689
29320W        W45794   6.342   0.346   4.684  0.0998 -0.1011 -0.1078
29321W        W45795  10.959  10.513   2.330  0.1825  0.2811  0.3365
29322W        W45796  11.818  11.998  14.659  0.2864 -0.4029 -0.1250
29323W        W45797   8.247   3.138   1.758 -0.0897 -0.1297 -0.2031
29324W        W45798  12.497   5.833   0.170 -0.2238 -0.0027  0.3478
29325W        W45799   6.782   1.916  10.983  0.0810  0.1569 -0.2817
29326W        W45800  11.881  17.291   1.520 -0.0705  0.0152  0.3269
29327W        W45801   0.695   9.478   0.749  0.0569 -0.1285 -0.0287
29328W        W45802  17.454  15.364   4.465  0.0200 -0.1197 -0.0368
29329W        W45803  16.316   4.474   4.412 -0.1675  0.0576 -0.1258
29330W        W45804   9.347   5.008   0.123 -0.1336  0.2600 -0.1660
29331W        W45805  15.158   3.886   3.650 -0.0695 -0.0232 -0.2087
29332W        W45806   6.652   2.503   3.522 -0.2715  0.1826  0.0934
29333W        W45807  14.424  12.505   2.947 -0.1543  0.4348  0.1842
29334W        W45808   3.627  15.891  11.773  0.0390 -0.2768 -0.1108
29335W        W45809   7.032   4.571  13.539  0.5702  0.0607 -0.0277
29336W        W45810  13.978  13.708  15.832 -0.3445  0.1649 -0.0592
29337W        W45811  12.861   5.290  13.280 -0.0598  0.4219 -0.0515
29338W        W45812  17.023  14.965   1.076  0.0012  0.0180 -0.4144
29339W        W45813   7.230  12.773  13.795  0.2467  0.0908 -0.1759
29340W        W45814  13.681  14.738   2.988 -0.1552 -0.0201 -0.0488
29341W        W45815  13.935  10.405   3.024 -0.0364  0.1240 -0.1213
29342W        W45816  16.901  10.414  13.039  0.2370  0.3735  0.0552
29343W        W45817   3.391  16.067   3.996 -0.2687 -0.1213  0.1533
29344W        W45818   6.330   1.070  13.467  0.4547 -0.1303 -0.2137
29345W        W45819   1.144  12.632   4.234  0.1500  0.2792  0.2695
29346W        W45820   2.045   2.361  11.799 -0.1439 -0.1004  0.0165
29347W        W45821  17.591   1.071   3.612 -0.0671  0.0175  0.1745
29348W        W45822  17.284  11.136   0.565 -0.1098 -0.0745  0.1367
29349W        W45823   2.079   4.632  13.834  0.2083 -0.0146 -0.1113
29350W        W45824   9.620  16.851   4.156  0.1026  0.0110  0.0289
29351W        W45825  10.456  16.635  15.772  0.3286 -0.1631  0.0670
29352W        W45826   5.346  15.292  13.616 -0.0721 -0.1403  0.3233
29353W        W45827   6.150  11.476  13.564  0.0253 -0.0627  0.0051
29354W        W45828  12.095   2.478   4.046 -0.1266  0.1771  0.0724
29355W        W45829  10.183   8.843  11.547 -0.0688  0.1751  0.3432
29356W        W45830  15.077  17.680  15.468  0.3410 -0.1710  0.0259
29357W        W45831   2.208  14.278  12.753  0.2057 -0.2473  0.1651
29358W        W45832   5.282   7.822  12.374 -0.0597 -0.2292  0.1299
29359W        W45833   9.078  10.691   2.977  0.1426  0.0707  0.2047
29360W        W45834  15.632   4.744   3.178 -0.0440  0.2773  0.0138
29361W        W45835  12.485   1.597   2.305  0.0437 -0.1462  0.0141
29362W        W45836  12.935   8.251  14.955 -0.1512 -0.0984 -0.0660
29363W        W45837  13.050  10.573   5.764  0.0393  0.0929 -0.2721
29364W        W45838  12.280   5.368  15.519 -0.0028 -0.0572 -0.0310
29365W        W45839  15.987   7.809  16.225  0.1635 -0.2395 -0.1013
29366W        W45840   8.294  12.684  12.405 -0.1042  0.1936  0.0820
29367W        W45841   3.532  12.279  15.143 -0.2546  0.0572  0.2671
29368W        W45842  12.687  13.345  15.520 -0.0004  0.2186  0.3138
29369W        W45843   5.373  14.002   2.430 -0.0702  0.1568 -0.0093
29370W        W45844  17.014   5.570   4.096  0.2693 -0.2721 -0.0999
29371W        W45845  13.286   6.346   2.886  0.1872 -0.3338  0.1497
29372W        W45846  11.344   1.543   2.676  0.1770 -0.0611  0.5578
29373W        W45847  13.637  11.974  11.313 -0.0591 -0.1376 -0.1535
29374W        W45848   0.624   2.896   1.839  0.0143 -0.1363  0.0590
29375W        W45849  10.180   0.232  15.382  0.0170 -0.1003 -0.0998
29376W        W45850   1.484   9.926   4.108 -0.0905 -0.0019  0.0087
29377W        W45851   4.488   5.571   5.494 -0.0035  0.0718 -0.0983
29378W        W45852  11.500  11.424  15.795 -0.1108 -0.0399 -0.1957
29379W        W45853  14.669   8.608   2.014 -0.3058  0.2807  0.2263
29380W        W45854   0.752   6.606  11.403 -0.1249  0.0257 -0.2140
29381W        W45855  11.886   5.392  15.203  0.3371 -0.2978  0.0097
29382W        W45856  13.809  15.197  14.242 -0.2346 -0.1592 -0.2360
29383W        W45857   1.519   7.173   0.575 -0.1948 -0.1907 -0.0817
29384W        W45858   2.610   2.213   0.896  0.0141 -0.0406 -0.0126
29385W        W45859  16.833  17.677   2.201  0.2538  0.0702 -0.0604
29386W        W45860  16.247   7.015   4.954 -0.0597 -0.3275 -0.0765
29387W        W45861   0.438   4.857   1.608 -0.3122 -0.1687  0.0325
29388W        W45862   5.194  17.739  15.414  0.2711 -0.0570 -0.2558
29389W        W45863   6.836   1.951   4.809 -0.2732  0.0654 -0.0911
29390W        W45864   4.787  14.844  13.720 -0.0788  0.1691 -0.1957
29391W        W45865   7.186  15.820  15.345  0.0691  0.3072  0.1528
29392W        W45866  14.960  12.691  13.095  0.0704 -0.0735  0.1923
29393W        W45867  13.989  15.295  12.454  0.0417  0.2635 -0.2233
29394W        W45868  11.592  16.202   0.730  0.0474 -0.0749 -0.0549
29395W        W45869  12.765   6.540   2.203  0.1186 -0.1357 -0.0710
29396W        W45870   2.533  16.934   3.319 -0.0647  0.0939  0.0297
29397W        W45871  12.367   1.105  13.433  0.1790 -0.0706 -0.2007
29398W        W45872  18.148   0.501   2.596 -0.1003 -0.1479  0.1669
29399W        W45873   8.292   0.498  15.999  0.0904 -0.0203  0.1458
29400W        W45874   9.242  10.558  11.462 -0.2700 -0.1936  0.0273
29401W        W45875   4.173   1.145  13.760  0.3136  0.1757  0.1506
29402W        W45876   7.706  10.689   0.280  0.0791 -0.0487 -0.1016
29403W        W45877  13.468  13.672   1.575 -0.2137 -0.0751 -0.2108
29404W        W45878  11.689   0.943  12.967  0.4167 -0.1868  0.1118
29405W        W45879   9.940   3.058  14.764 -0.2192 -0.1617 -0.2143
29406W        W45880   5.549  12.610  15.074 -0.2331  0.0974 -0.1651
29407W        W45881   1.857  11.652  13.137  0.1030  0.4083  0.2509
29408W        W45882   7.519  18.191  13.420  0.1917  0.3230 -0.1678
29409W        W45883  17.909   4.899   0.217  0.1328  0.0233  0.1229
29410W        W45884   1.062  16.817   2.768 -0.2671  0.0796  0.2613
29411W        W45885   7.417  13.255   4.904 -0.1708 -0.0485 -0.1366
29412W        W45886   8.198  15.748   4.886 -0.1307  0.3663  0.1071
29413W        W45887  10.215  17.800  13.524  0.2835 -0.3204 -0.1417
29414W        W45888   4.034   8.885   5.472 -0.0771 -0.3478 -0.3066
29415W        W45889   8.902   4.030  11.324  0.1710  0.0477  0.1509
29416W        W45890   7.431   5.810  11.515 -0.2048 -0.1780  0.0285
29417W        W45891   5.037  10.189  14.307  0.0045  0.0628 -0.0332
29418W        W45892   0.742   1.096  12.983  0.0878 -0.1382  0.0684
29419W        W45893  10.952   5.704  13.336 -0.3637 -0.1028  0.0469
29420W        W45894   7.121   9.536   4.866 -0.4319  0.0215 -0.0864
29421W        W45895   6.865   0.729  15.972 -0.1493 -0.0800 -0.0511
29422W        W45896  13.794   1.386  13.067  0.2423  0.2994 -0.3028
29423W        W45897   3.973  15.703   3.127 -0.0255  0.0550 -0.4244
29424W        W45898   9.419   0.017  13.105 -0.0802  0.0591 -0.2757
29425W        W45899  17.627  17.649  15.345  0.1029  0.0251 -0.2930
29426W        W45900   7.004  15.466   3.009  0.1955  0.1106 -0.1729
29427W        W45901  18.255   3.558   0.138 -0.1134  0.0577 -0.1278
29428W        W45902  10.051  14.437   3.052  0.2126 -0.1551  0.1617
29429W        W45903   3.560   4.648  13.072 -0.1526 -0.0028  0.0704
29430W        W45904  13.375  17.868   3.777  0.1493 -0.2192 -0.1917
29431W        W45905   0.522  12.010   3.996  0.4578 -0.1226  0.2619
29432W        W45906  16.469  14.454  12.686  0.0832 -0.1244 -0.1346
29433W        W45907   7.790  15.871   1.791 -0.3767 -0.0620 -0.1320
29434W        W45908   4.514   9.460   2.698  0.3629  0.2218  0.0861
29435W        W45909   6.904  13.343  16.106  0.0156 -0.2073 -0.1567
29436W        W45910   8.572  12.140  14.007 -0.0792  0.1337 -0.0517
29437W        W45911   4.940  15.219  11.498  0.1500 -0.2755  0.1590
29438W        W45912   3.872   7.583   3.371  0.0058 -0.0933  0.0591
29439W        W45913   0.678   7.925  11.358  0.0558  0.0738  0.0672
29440W        W45914  16.950   1.239   1.375 -0.2119  0.0663 -0.1785
29441W        W45915   7.436   0.396  13.510 -0.3368  0.2002 -0.3358
29442W        W45916   2.452   6.502   4.796 -0.0771  0.0421 -0.0623
29443W        W45917   1.955   0.528  11.777  0.1001 -0.0903  0.1156
29444W        W45918   8.080   1.222   2.308  0.1013 -0.1313 -0.0549
29445W        W45919  15.699  14.066   5.907 -0.1410 -0.0484  0.0050
29446W        W45920  15.328  11.673   1.741 -0.1157 -0.1935  0.1399
29447W        W45921  10.101   6.467  14.239 -0.1200  0.1156  0.2894
29448W        W45922   6.919   8.184   3.371 -0.0829  0.0143  0.1091
29449W        W45923  14.108   6.201  15.304 -0.1211 -0.0363  0.0556
29450W        W45924   9.288   7.742   1.469  0.0755 -0.1501  0.2407
29451W        W45925   8.551  15.655   0.998 -0.0764  0.0504 -0.2952
29452W        W45926   0.862  14.416  15.826  0.1070 -0.1369  0.0928
29453W        W45927   2.391   1.100   1.373  0.1695 -0.1581  0.1462
29454W        W45928   2.299   6.022  15.075 -0.0532 -0.1324 -0.2601
29455W        W45929   7.518   9.041  12.109  0.2496  0.0484 -0.1150
29456W        W45930  14.486   8.868   5.317  0.1209  0.1102  0.4019
29457W        W45931  11.860  17.490  13.179 -0.0040  0.1504 -0.2802
29458W        W45932   3.042   2.201  11.903  0.0387 -0.0451  0.1831
29459W        W45933   5.982  11.634   3.180 -0.3685  0.3679  0.0855
29460W        W45934   6.321  13.365  13.723  0.2362 -0.3772 -0.0407
29461W        W45935   7.817  15.597  12.737 -0.4725 -0.1740  0.1376
29462W        W45936  11.104  16.357  14.539  0.1762  0.2196 -0.1296
29463W        W45937   7.602  13.971   5.380 -0.3096 -0.0033  0.0180
29464W        W45938   1.159   6.676  12.718 -0.2140 -0.0666 -0.1516
29465W        W45939   2.767   8.752  12.568 -0.4249 -0.0385  0.0744
29466W        W45940  11.567   0.105  13.531  0.0257 -0.0609 -0.2593
29467W        W45941  11.436  13.098   2.732 -0.1958 -0.1842  0.1628
29468W        W45942  11.596   6.938   2.409 -0.0327 -0.0696 -0.2384
29469W        W45943   6.027   5.463  15.176 -0.1174  0.0489  0.0618
29470W        W45944  17.168   5.583  12.006 -0.1259 -0.0640 -0.1265
29471W        W45945   8.441  11.203   0.610 -0.0660  0.0390 -0.0320
29472W        W45946   6.408   5.271   1.825  0.0332 -0.1215  0.2021
29473W        W45947  11.455   7.455   4.118  0.1950  0.0593 -0.1883
29474W        W45948   2.429   9.572  12.152  0.0860 -0.1270  0.2849
29475W        W45949   7.472   8.541   5.550  0.1463 -0.1626  0.0477
29476W        W45950   6.286   0.820  15.186  0.1569  0.1182  0.1643
29477W        W45951   5.454   2.312   2.424 -0.2316  0.3828  0.0600
29478W        W45952  17.793   1.335  11.296  0.2171 -0.0978  0.0776
29479W        W45953  10.335   4.167  12.237 -0.1495 -0.2045 -0.2528
29480W        W45954   4.212   6.684  15.638 -0.0933 -0.2445 -0.0161
29481W        W45955  12.194  15.534  12.887  0.1813 -0.2374  0.0792
29482W        W45956   2.959   8.208   3.297 -0.1626 -0.2095 -0.1307
29483W        W45957  14.373  17.826   2.826  0.1958  0.1025  0.1179
29484W        W45958   6.488  17.307   1.501  0.2045  0.1851  0.1940
29485W        W45959   4.929  16.517  13.742  0.0620 -0.1957 -0.2318
29486W        W45960  10.965  17.511  15.782 -0.0153  0.1042 -0.1231
29487W        W45961  16.397   3.533   4.935  0.2153 -0.0259 -0.1326
29488W        W45962   2.500   4.688  14.102 -0.1071  0.3210  0.2452
29489W        W45963  15.373   5.703  12.826  0.2889 -0.1184  0.2164
29490W        W45964   5.989  16.947  14.733  0.0653  0.0106  0.0752
29491W        W45965   2.822   1.012   2.037  0.1428 -0.3404 -0.0604
29492W        W45966   8.477   0.335  13.045 -0.1059 -0.0035 -0.2621
29493W        W45967   0.623  17.933  12.286 -0.2103 -0.0074 -0.1946
29494W        W45968   4.159  13.600   2.910 -0.0801 -0.3392  0.2468
29495W        W45969   1.009   0.567  12.234 -0.1604 -0.3350  0.0434
29496W        W45970   5.754   1.750   4.339 -0.2526  0.2193 -0.2501
29497W        W45971   8.812   8.596   5.102  0.1743 -0.1253 -0.2158
29498W        W45972   1.321   1.223  10.957  0.1482 -0.2670  0.0264
29499W        W45973  10.074  16.178   3.607  0.0331  0.1169 -0.0441
29500W        W45974  10.316   8.422  13.361 -0.0552 -0.0869 -0.0540
29501W        W45975   5.665  18.029   3.793 -0.2099  0.1440  0.1168
29502W        W45976   5.218  13.790  14.631 -0.3501 -0.1515 -0.1187
29503W        W45977  11.261  17.379  11.368 -0.2322  0.0634  0.1967
29504W        W45978   9.272  11.224   4.652 -0.0150 -0.1956  0.4617
29505W        W45979   7.315  14.125  14.632  0.0466  0.2073  0.3358
29506W        W45980   7.450  14.443   5.524  0.1225 -0.0161  0.0102
29507W        W45981  11.488  15.492   5.334 -0.1364  0.4632 -0.0786
29508W        W45982   4.948   4.310  10.340 -0.0416  0.0186  0.3648
29509W        W45983   0.127   5.424  14.798 -0.1417  0.4174 -0.2644
29510W        W45984  12.263   2.302   2.850 -0.0491  0.0040 -0.1972
29511W        W45985  10.107  16.802   2.890 -0.1668  0.1933 -0.1308
29512W        W45986  15.738  15.697  16.080 -0.0245 -0.3601 -0.1782
29513W        W45987   8.652  17.701   0.094  0.0341  0.0817  0.0560
29514W        W45988   9.767   9.576  15.127  0.0259 -0.2430  0.3998
29515W        W45989  14.299   2.082  14.880 -0.1362  0.2617 -0.1488
29516W        W45990  11.522   9.504   0.165  0.1734 -0.1508 -0.1637
29517W        W45991  10.202   2.733  13.791 -0.0514  0.3105 -0.0480
29518W        W45992   8.763   3.751  13.664  0.2877  0.1199  0.1449
29519W        W45993  15.851   8.035   0.823  0.0539 -0.1595 -0.0716
29520W        W45994   1.690   3.868  12.254  0.0485  0.0645 -0.0519
29521W        W45995  18.187  14.649  11.742  0.0585 -0.0762 -0.1528
29522W        W45996   7.925  13.320   4.273  0.1098  0.2874 -0.0837
29523W        W45997  10.629   3.595  13.095 -0.1863  0.3099  0.2043
29524W        W45998   8.078   7.566  16.105  0.1741  0.3388  0.0488
29525W        W45999   3.741   8.905  14.315 -0.2186  0.0817  0.1627
29526W        W46000   7.985   0.914  10.714  0.1744  0.1982 -0.1323
29527W        W46001   8.037  12.995   2.875  0.1677 -0.2013 -0.0666
29528W        W46002  10.252  16.225   3.094  0.0042  0.0978  0.2160
29529W        W46003   9.519  16.180  12.390 -0.2761 -0.3303 -0.2378
29530W        W46004   0.697   3.904  12.428  0.0893  0.0062  0.2031
29531W        W46005   8.992  10.309   1.721 -0.0974  0.1287  0.2312
29532W        W46006   1.682   8.849  13.411  0.0247 -0.4233  0.0959
29533W        W46007   4.943  17.608  14.513  0.2225  0.0614  0.1509
29534W        W46008   0.358   9.620   1.819  0.0170  0.1954 -0.2213
29535W        W46009  12.554   3.244   5.084 -0.0410 -0.3183 -0.1923
29536W        W46010   9.361   8.276   4.084  0.0830 -0.3872  0.0638
29537W        W46011  13.156   6.250  14.923 -0.0832  0.2979  0.1937
29538W        W46012   7.867   2.974  15.949 -0.1684  0.0201 -0.1356
29539W        W46013   0.272  17.009   1.705 -0.1308 -0.3569  0.2544
29540W        W46014  18.037  16.060   4.139  0.2174  0.1688 -0.1177
29541W        W46015   2.170  13.693  12.052 -0.3571  0.2080 -0.3220
29542W        W46016  15.950   6.747   2.752  0.3674 -0.0589 -0.0476
29543W        W46017  13.992  13.458   3.194  0.2301 -0.3372 -0.0171
29544W        W46018   0.591   4.159  11.437  0.2276 -0.0289  0.0754
29545W        W46019   4.440  14.479   0.603  0.2043  0.1292  0.0854
29546W        W46020   8.585  10.660  12.761  0.3016  0.1311  0.3151
29547W        W46021   5.160   4.442   2.258 -0.2081 -0.1187  0.1332
29548W        W46022   6.188   4.377  13.020  0.2426 -0.2364  0.0253
29549W        W46023   7.270   7.219  12.430  0.1721 -0.3762 -0.1090
29550W        W46024   7.154   6.524  13.874  0.0100  0.1657 -0.1586
29551W        W46025  10.032   7.281  11.466 -0.2762  0.1709  0.0552
29552W        W46026   6.626  16.902  16.063 -0.0024 -0.1769  0.1837
29553W        W46027  15.503  13.446  12.540  0.1319  0.0964  0.2167
29554W        W46028   6.867   4.086  15.463  0.1232 -0.3066  0.0884
29555W        W46029   6.008   9.826  14.393  0.3447  0.0068  0.0640
29556W        W46030   9.031  16.558   2.602  0.1490 -0.0992 -0.0339
29557W        W46031   3.359   4.079  16.310  0.2613 -0.3607  0.0791
29558W        W46032  13.924   7.897  12.662  0.1204  0.0126  0.0711
29559W        W46033   1.451  13.248  10.976  0.1775  0.0801  0.1439
29560W        W46034  17.160   9.213   3.592  0.1630  0.3568 -0.0994
29561W        W46035   4.499   7.258  13.421 -0.2275  0.3918  0.3231
29562W        W46036   2.127   5.056  14.085  0.0349 -0.0128 -0.0679
29563W        W46037   3.165  14.058   0.447 -0.0475 -0.0760 -0.0865
29564W        W46038  15.129   0.418  13.885  0.0309 -0.1307 -0.0485
29565W        W46039  11.418  10.419   5.563  0.0577  0.0787 -0.2778
29566W        W46040   2.905  17.057   1.751 -0.0266  0.1156  0.1213
29567W        W46041   4.843  12.362   3.415 -0.0429  0.0692 -0.0278
29568W        W46042   9.732   0.375  13.220 -0.0395 -0.2039 -0.2296
29569W        W46043   5.277  13.355   3.254 -0.0848 -0.0158  0.3721
29570W        W46044  16.402  17.335  14.355 -0.0771 -0.0352  0.0715
29571W        W46045   9.313  12.050   5.183  0.0787  0.4040  0.1707
29572W        W46046   8.354   0.442  15.001  0.0372  0.1476 -0.2509
29573W        W46047   1.069  16.138  16.171  0.3025  0.0845 -0.1404
29574W        W46048  14.214   2.391  14.432 -0.0626 -0.0613  0.0945
29575W        W46049   3.882   4.860  13.880  0.1678 -0.2219 -0.0629
29576W        W46050   8.736   1.002  11.540 -0.1229 -0.1638 -0.2929
29577W        W46051   5.079   8.071   0.881 -0.0353  0.1140 -0.1453
29578W        W46052   1.068  14.118   6.157 -0.0047  0.2341  0.1007
29579W        W46053   6.122  14.296   0.996  0.2544 -0.1271 -0.1759
29580W        W46054   4.612   9.034   2.425  0.1267  0.2928 -0.1439
29581W        W46055  17.853   9.531  16.158  0.1625  0.2224  0.0599
29582W        W46056   6.403   6.505   3.317  0.1205  0.0574  0.0507
29583W        W46057   9.900   6.254  11.891  0.0866 -0.0908 -0.1071
29584W        W46058   0.507  10.316   2.399 -0.0641 -0.1101  0.4105
29585W        W46059  10.711  11.168  15.471  0.1859 -0.1243 -0.0307
29586W        W46060  17.128  14.524  13.898  0.0879  0.3151  0.1553
29587W        W46061   4.837   8.367  12.984  0.0597  0.0756 -0.0891
29588W        W46062  16.652  10.036  15.231 -0.1195 -0.0100 -0.0438
29589W        W46063   4.429   9.460   5.907  0.0783 -0.1357 -0.4224
29590W        W46064  16.730   6.387   1.815  0.0705 -0.0468 -0.1447
29591W        W46065   9.494   6.069   1.690  0.0569  0.1529 -0.1835
29592W        W46066   8.444   5.426   0.763 -0.1463  0.0057  0.0114
29593W        W46067   8.728  18.017   0.607 -0.2642 -0.1206  0.0061
29594W        W46068  17.188  15.865  14.626  0.0710 -0.1322  0.0760
29595W        W46069  17.363   7.436   4.521 -0.1248  0.0436 -0.0545
29596W        W46070  17.207   2.846   4.835  0.2058  0.4640  0.1427
29597W        W46071   1.437  11.761  12.854 -0.1490 -0.1753 -0.2304
29598W        W46072  13.372  11.761   2.239 -0.0296  0.2352  0.1083
29599W        W46073   6.258  15.442  11.545 -0.0966  0.3173  0.1588
29600W        W46074  17.718   2.409  12.673 -0.4301 -0.0502  0.2776
29601W        W46075  12.520  13.517  14.452  0.0066  0.0431 -0.0380
29602W        W46076   6.694   6.873   2.635  0.0129  0.0500  0.0968
29603W        W46077  11.183   1.559  13.978 -0.3900 -0.0261 -0.2575
29604W        W46078   9.962   5.807  16.257  0.4249  0.3139 -0.2707
29605W        W46079  16.995   3.210  11.906 -0.2265  0.0785 -0.0811
29606W        W46080  14.805   8.778  15.446 -0.2049  0.2674 -0.4061
29607W        W46081  17.461   4.890   4.156  0.0739 -0.0316 -0.0230
29608W        W46082   0.046   9.502  15.985  0.0724 -0.0259 -0.4407
29609W        W46083   7.953   8.548   5.556  0.1346  0.0826 -0.2260
29610W        W46084  14.347  16.816   0.267  0.1666 -0.0216 -0.2698
29611W        W46085  13.728   5.387   4.169 -0.1719 -0.2671 -0.1736
29612W        W46086   0.339   3.845   3.454  0.2429 -0.3058 -0.1833
29613W        W46087  13.922   0.337   3.027  0.1365 -0.2272 -0.2211
29614W        W46088  11.170   5.691   2.230 -0.1416  0.1930 -0.1510
29615W        W46089   2.445   8.829   4.440  0.0259  0.2667 -0.1797
29616W        W46090   7.551   5.316   4.866 -0.0557 -0.0571  0.2428
29617W        W46091  15.353   7.960  14.615  0.1350  0.2371  0.0459
29618W        W46092  10.746   1.003  11.480  0.2091 -0.0682 -0.2000
29619W        W46093   7.123   2.222   4.112  0.1712 -0.0954 -0.3563
29620W        W46094  16.983   5.943  15.286  0.1480  0.0550  0.2116
29621W        W46095  14.619   6.551  11.668 -0.0545 -0.1062 -0.2282
29622W        W46096   4.594  17.668   5.157  0.1075  0.0880 -0.0802
29623W        W46097   1.930   4.173  14.018  0.1695  0.1053 -0.1053
29624W        W46098  10.501  10.679  12.962 -0.0254 -0.1067 -0.1434
29625W        W46099  14.631   7.564   3.608 -0.1210  0.4200 -0.0586
29626W        W46100   2.885  11.111   1.775 -0.1740 -0.4136  0.0616
29627W        W46101   3.624   9.299  14.043 -0.2294  0.1782  0.2994
29628W        W46102  17.614  15.658  15.658  0.0595 -0.1200 -0.0477
29629W        W46103  16.564   3.256  12.554 -0.1263 -0.0630  0.1131
29630W        W46104   9.282   2.895   2.720  0.2271 -0.1286 -0.0628
29631W        W46105   6.824   1.638   3.701 -0.1355 -0.0561 -0.0482
29632W        W46106   9.234   3.772  10.918 -0.4496 -0.1100  0.1369
29633W        W46107  16.600   3.960  11.974  0.0870 -0.2423 -0.3399
29634W        W46108   3.096   3.241   2.058  0.1547  0.1649 -0.3077
29635W        W46109  12.660  14.829   3.309 -0.1884  0.1005 -0.3318
29636W        W46110   4.166  12.584  13.986  0.0126 -0.0384 -0.1148
29637W        W46111  13.973  14.573   0.216  0.0489 -0.1516  0.1845
29638W        W46112  15.069  13.292   4.726 -0.1598 -0.0436  0.0848
29639W        W46113   1.239   9.684   0.694  0.1194  0.0563 -0.0193
29640W        W46114   1.656   7.204   1.675 -0.0978 -0.0316 -0.3614
29641W        W46115   8.160  16.723   2.280  0.0333  0.0791  0.1061
29642W        W46116   1.742   1.920  10.635 -0.0452  0.0265 -0.2387
29643W        W46117   2.601  14.785   2.521 -0.1904  0.2659  0.3766
29644W        W46118   8.181   7.171  14.942 -0.1237  0.0876  0.1829
29645W        W46119  16.829  13.278  14.232 -0.0230  0.1827 -0.3763
29646W        W46120   2.049  14.151   4.041  0.0718 -0.0988  0.1118
29647W        W46121  12.667  10.023   1.183  0.0812 -0.1704 -0.0084
29648W        W46122  15.951   7.371   0.070  0.0378  0.2537  0.1425
29649W        W46123  18.324   1.227  11.312 -0.0421 -0.1989  0.0161
29650W        W46124  16.388   5.566  13.505  0.0940 -0.1718 -0.0671
29651W        W46125  12.802  11.341  12.161 -0.2643  0.0633 -0.1106
29652W        W46126  17.743  17.458  14.088 -0.1107 -0.2397 -0.3310
29653W        W46127   0.195   8.924   0.292 -0.0571 -0.0987  0.3330
29654W        W46128   4.865   2.828  16.070 -0.0072  0.1162 -0.1720
29655W        W46129   1.899  15.055   0.409 -0.1678 -0.1112 -0.1463
29656W        W46130   2.594   8.960   5.716 -0.0797  0.0609  0.0084
29657W        W46131  10.071   5.461   4.554  0.0919 -0.1650  0.0393
29658W        W46132  10.018   7.711   4.143 -0.4062 -0.2071 -0.2089
29659W        W46133  17.546   9.554   5.615  0.0675  0.0050 -0.0113
29660W        W46134   3.279  15.192  13.594 -0.2006 -0.0574 -0.0951
29661W        W46135  11.527  11.340  11.594 -0.1404  0.0653  0.1566
29662W        W46136   9.188  16.077   5.503  0.0261 -0.0514  0.0686
29663W        W46137  11.373  11.747  12.901 -0.0489  0.2551 -0.0752
29664W        W46138  13.779  15.091   0.259  0.1664 -0.0926  0.0861
29665W        W46139   4.216   6.434  14.477  0.0200 -0.0059  0.0648
29666W        W46140  18.314   7.072   3.547  0.1200  0.1061 -0.0619
29667W        W46141   2.908   9.653  14.667  0.1346  0.4044  0.0334
29668W        W46142   0.556   4.993  13.852 -0.1520  0.0615  0.0582
29669W        W46143   4.849  13.807  11.789 -0.1004 -0.1969 -0.1798
29670W        W46144   0.442   1.259   3.278  0.0881  0.0823 -0.0695
29671W        W46145  18.236   0.682  12.959  0.1383  0.2710  0.3186
29672W        W46146  10.987   5.791   3.188  0.1583 -0.4233 -0.2096
29673W        W46147   5.304   0.847  14.260 -0.0153 -0.1111 -0.1742
29674W        W46148  16.749  17.896  16.050  0.0738  0.1654 -0.1476
29675W        W46149   8.489   3.266   6.286 -0.0299  0.0378 -0.0498
29676W        W46150   4.469   3.076  14.225 -0.1099 -0.1171  0.1870
29677W        W46151  11.348  11.606   2.869  0.2476 -0.1294  0.2499
29678W        W46152  13.046  11.279  16.301 -0.0185  0.0386  0.0163
29679W        W46153  11.967   7.341  15.149  0.0085  0.2049 -0.0316
29680W        W46154  10.557  15.882  12.935  0.1388  0.3681 -0.1737
29681W        W46155  10.033   9.907  12.828  0.0195 -0.1047  0.3932
29682W        W46156  15.796  10.896   2.427  0.1325  0.1065  0.1603
29683W        W46157   4.540   8.375  13.473  0.5905 -0.3979  0.2508
29684W        W46158   5.175   7.524  13.755 -0.0301  0.3395 -0.0714
29685W        W46159  17.479   8.055  16.256 -0.3445 -0.1444  0.0940
29686W        W46160   1.596   5.811   1.886  0.1077  0.2365 -0.0083
29687W        W46161  12.873   6.741   3.066 -0.0441  0.1292  0.1681
29688W        W46162  14.359  12.695  11.633  0.0815 -0.3068  0.4882
29689W        W46163   7.953   0.600  11.126 -0.0098  0.3106  0.0628
29690W        W46164  10.551  16.740   3.099  0.0590  0.0433 -0.4025
29691W        W46165   7.292  14.681  15.304 -0.1936  0.1062  0.0232
29692W        W46166   1.599  10.026   1.476 -0.0862 -0.0842 -0.4859
29693W        W46167   4.256  16.426  11.235  0.0968 -0.1280  0.0248
29694W        W46168   4.599  18.032   1.628  0.1246 -0.1804 -0.0233
29695W        W46169   8.902  13.696   5.722  0.2184  0.0676 -0.3132
29696W        W46170   0.936   9.330   5.432  0.2384  0.1795 -0.0067
29697W        W46171  16.027  18.302   5.770  0.2951 -0.1433 -0.2831
29698W        W46172   7.803  16.211  12.060  0.2603 -0.2490  0.0602
29699W        W46173  12.388  10.904  12.935  0.0780  0.0319 -0.0966
29700W        W46174   0.459   5.693  14.545  0.1001  0.0399  0.2343
29701W        W46175   1.842   0.563   0.896 -0.0047 -0.0511 -0.3229
29702W        W46176   6.935   5.805  15.016 -0.1596  0.2701 -0.0848
29703W        W46177  11.615  10.782   1.482 -0.3952 -0.2549  0.1211
29704W        W46178  16.203   3.351  11.354  0.0946  0.1870 -0.1983
29705W        W46179   2.131  12.880   0.347  0.0410  0.0361  0.0714
29706W        W46180  10.685  14.906  14.789 -0.1809 -0.1700  0.0067
29707W        W46181  12.758  13.317   0.306 -0.1184 -0.0289 -0.2250
29708W        W46182   9.128  13.745  14.034  0.1241 -0.2891  0.0773
29709W        W46183  11.058   3.147   0.768  0.3808  0.0696  0.0927
29710W        W46184  15.588   7.074   1.705 -0.1173 -0.1129 -0.0309
29711W        W46185   7.071  10.749   0.807 -0.2099  0.0843 -0.0796
29712W        W46186   6.556   7.717   5.480  0.0144 -0.0222 -0.3819
29713W        W46187  16.947   2.829  15.023 -0.0448  0.0159 -0.1569
29714W        W46188   4.013  12.449   3.701 -0.1207 -0.0144  0.2357
29715W        W46189   6.745  17.357   5.075 -0.0499 -0.4230  0.0175
29716W        W46190   8.885  16.803  15.670 -0.0350 -0.1143  0.0665
29717W        W46191   1.246   4.659  11.574 -0.0527  0.0936 -0.1372
29718W        W46192   1.742   1.990  15.981  0.0379 -0.2292 -0.2841
29719W        W46193   9.111  17.272   0.960 -0.4352  0.1389 -0.1353
29720W        W46194  13.632  15.048  13.259 -0.3062 -0.0113 -0.0135
29721W        W46195  12.247  13.241   1.612  0.2487 -0.1612  0.0998
29722W        W46196   6.435   5.333   5.769 -0.0237 -0.1993 -0.0771
29723W        W46197   2.008   6.135  12.565 -0.4266  0.1291 -0.0335
29724W        W46198  14.409  17.615   3.818 -0.1335  0.0958  0.0183
29725W        W46199  14.036   0.999   4.552 -0.1761  0.2245  0.2123
29726W        W46200   9.857   0.630   4.657  0.0352 -0.3298 -0.0996
29727W        W46201   9.744   0.838   2.244 -0.1249 -0.0199  0.2966
29728W        W46202  15.913  15.957   0.862  0.0555 -0.0318  0.2613
29729W        W46203   2.896   5.644  15.610  0.2590 -0.0547 -0.0519
29730W        W46204  13.938   4.700   1.550 -0.0894  0.3889  0.1181
29731W        W46205   4.544  11.165   1.662  0.0230  0.1440  0.2969
29732W        W46206  13.897  14.653  13.445 -0.0524 -0.3329 -0.1220
29733W        W46207   5.416  15.634  11.458  0.3257  0.1474  0.1819
29734W        W46208  15.644  12.967  13.450  0.0617  0.2922 -0.2525
29735W        W46209  11.767  15.722  12.615 -0.2468  0.0539 -0.0560
29736W        W46210  16.241  14.761  11.052  0.2097  0.1657 -0.0790
29737W        W46211   4.569   2.253  14.982  0.1580  0.2632  0.1140
29738W        W46212   4.501   4.797   5.066 -0.0444 -0.0484  0.1239
29739W        W46213  11.372   1.678  15.353 -0.0595 -0.0020 -0.0868
29740W        W46214   7.990   1.243   4.657 -0.1450 -0.1098  0.2045
29741W        W46215  18.215  12.042   0.185  0.0861  0.1926 -0.0177
29742W        W46216   8.728  16.943   0.381 -0.0926 -0.2509 -0.1180
29743W        W46217  12.855   2.777  13.293  0.0023  0.1335 -0.2114
29744W        W46218  17.595  11.759  13.315  0.0746  0.3444 -0.1467
29745W        W46219  17.503  17.684   5.495 -0.0292  0.0629  0.2586
29746W        W46220  13.109  10.758   0.060 -0.2825 -0.2054  0.2106
29747W        W46221   5.168   6.040  14.707 -0.2850  0.1064 -0.1739
29748W        W46222  11.366   0.886  15.151 -0.2316  0.3312 -0.1208
29749W        W46223  13.201  17.123   3.801  0.0889 -0.0312 -0.1719
29750W        W46224  10.951   6.751  16.029 -0.3936 -0.0819 -0.2847
29751W        W46225   6.751   5.692   3.351  0.3032 -0.0299  0.0739
29752W        W46226  13.675   9.076   4.291 -0.0384  0.2682 -0.2285
29753W        W46227  14.934   2.269  11.610 -0.0784 -0.1005 -0.1705
29754W        W46228  13.755   2.074  15.034 -0.0341 -0.0061 -0.4404
29755W        W46229   1.984   1.951  13.140 -0.3235  0.2204 -0.1008
29756W        W46230   3.121  12.131   3.993 -0.0187 -0.3653  0.0013
29757W        W46231  14.538   9.012   1.627 -0.0374  0.0288 -0.2719
29758W        W46232   3.681  12.484   2.419  0.2615 -0.2980  0.4975
29759W        W46233   8.261   6.749  12.509  0.1077 -0.0450 -0.2332
29760W        W46234   7.237   7.462   2.145 -0.0009 -0.1259 -0.2574
29761W        W46235   4.345  13.994   0.176 -0.0604  0.0621 -0.1597
29762W        W46236   8.275   7.600   5.972 -0.2565  0.1002  0.2243
29763W        W46237   4.414  12.165   4.100 -0.3533  0.1923 -0.1019
29764W        W46238  13.820   6.776  12.770  0.1038 -0.1740  0.3306
29765W        W46239   7.673   4.084  12.550  0.2046 -0.2573 -0.1363
29766W        W46240   0.920   5.426  14.752  0.0680 -0.1710 -0.1688
29767W        W46241  15.482   6.054  14.557 -0.0584 -0.0954  0.0151
29768W        W46242  10.852  11.718   4.040  0.1699  0.0061 -0.0617
29769W        W46243  15.500  14.704   3.097  0.1373  0.2161  0.3007
29770W        W46244   2.156  11.397  14.628  0.1292  0.1903 -0.0134
29771W        W46245   6.083   8.741   2.019  0.1491  0.0094  0.0282
29772W        W46246  15.381  14.613   1.287  0.0159  0.1501  0.0028
29773W        W46247  17.151  14.462   1.227  0.1965  0.3363  0.0589
29774W        W46248   6.294   6.112   2.943 -0.1174 -0.2573  0.1571
29775W        W46249   1.072  17.911   1.373 -0.0390 -0.3438  0.6057
29776W        W46250  15.442   2.970  15.495  0.0389  0.2979  0.0678
29777W        W46251  17.194   0.203   4.415 -0.1293  0.1157  0.2811
29778W        W46252   3.455   9.898  14.424 -0.2225  0.1341 -0.1917
29779W        W46253  10.516  14.030   0.014  0.1627  0.0031  0.3105
29780W        W46254   4.600  14.529  15.840  0.1046  0.0777  0.2437
29781W        W46255  14.115  10.887   1.280 -0.1618 -0.1032  0.0843
29782W        W46256  15.163  10.925  15.619 -0.1469  0.1377 -0.0904
29783W        W46257   6.912  14.313   4.331  0.0635  0.0987  0.3174
29784W        W46258   7.917   0.783  15.091 -0.1085  0.0889  0.0107
29785W        W46259   9.993   5.029   1.079 -0.2545  0.1439  0.0843
29786W        W46260  13.992   8.815  16.232 -0.1034 -0.4035  0.1018
29787W        W46261   5.178   0.951  12.442 -0.3027 -0.0564  0.1928
29788W        W46262   9.232   6.747   3.340 -0.2170  0.1059  0.0910
29789W        W46263   8.413   3.036  14.605 -0.1714  0.0206  0.0783
29790W        W46264   6.849  15.108   5.758  0.1940  0.0259  0.0110
29791W        W46265   4.331   8.238   1.109  0.1643 -0.0321 -0.0455
29792W        W46266  13.727   3.587   1.788  0.2595  0.0142 -0.1051
29793W        W46267  14.079   9.242   1.875 -0.1310  0.0936  0.0084
29794W        W46268   5.911   5.161  12.397 -0.0060 -0.0643  0.0585
29795W        W46269   3.287  14.345   2.143  0.2639 -0.1113 -0.2355
29796W        W46270   3.699  16.182  13.667  0.1418  0.0723 -0.2431
29797W        W46271   2.301   2.404   4.837 -0.0625 -0.1037  0.2978
29798W        W46272   0.204   5.219  14.309 -0.1809 -0.3288  0.0949
29799W        W46273   2.094   3.836   0.758  0.0754  0.2613 -0.2334
29800W        W46274   8.581   9.095   2.578  0.1188  0.1191 -0.2562
29801W        W46275  12.998   1.046   3.290  0.0710  0.1467  0.4147
29802W        W46276   0.421   0.010   4.396  0.2037  0.1355 -0.1701
29803W        W46277   0.427  17.410   4.405  0.0697  0.0317 -0.0976
29804W        W46278  18.111   1.716  13.877  0.0843 -0.0409 -0.0412
29805W        W46279  14.786  16.297  13.051  0.2442  0.3084 -0.0471
29806W        W46280   3.645  14.395   6.269  0.0154 -0.2704  0.1355
29807W        W46281   1.274  17.015   3.445 -0.2535  0.1418 -0.3023
29808W        W46282   8.242   4.559  14.323  0.3411 -0.0550  0.1742
29809W        W46283   9.254   3.483   1.549 -0.0801 -0.2964  0.1636
29810W        W46284  14.695  10.428   3.495  0.0296 -0.0067  0.1118
29811W        W46285  12.307  11.871   1.148  0.0610  0.1523  0.0719
29812W        W46286   9.351   8.277  16.142 -0.0741 -0.3320 -0.0333
29813W        W46287   4.093  14.541  13.826 -0.4324 -0.2416 -0.0296
29814W        W46288  17.235  14.679   4.985  0.0060 -0.0977  0.0438
29815W        W46289   2.865  12.417   3.478 -0.0268 -0.1798 -0.3063
29816W        W46290  16.096   8.877   2.561 -0.0288 -0.2313 -0.2487
29817W        W46291   9.169   0.743  12.346  0.0477 -0.0897 -0.1584
29818W        W46292   9.523   8.393  13.836  0.0998 -0.1959  0.2703
29819W        W46293   8.270   0.199   2.946  0.0220  0.2200  0.1674
29820W        W46294   8.014  12.760  15.430 -0.2057 -0.0403  0.0388
29821W        W46295  18.079  13.708  12.555  0.2043  0.2369 -0.2486
29822W        W46296   3.739   6.768   5.500  0.1295 -0.3739  0.0817
29823W        W46297  16.848  13.478   1.494  0.0594  0.2758 -0.1079
29824W        W46298  18.073  15.694   1.431 -0.0984 -0.0448 -0.3327
29825W        W46299  14.131  12.723   3.871 -0.4720  0.1160 -0.0657
29826W        W46300  10.438   9.531   1.450 -0.1168 -0.0613  0.1140
29827W        W46301   9.677  15.862  11.260 -0.1660  0.0903 -0.2707
29828W        W46302   9.425  11.210   5.549 -0.4499 -0.2312  0.2401
29829W        W46303  14.271  12.527  15.430  0.1931 -0.2807 -0.0428
29830W        W46304  11.252  10.459  12.587 -0.1361 -0.1093  0.1123
29831W        W46305   6.394   5.037   0.446  0.1481 -0.0980  0.0609
29832W        W46306  14.277  14.277   0.417 -0.3700  0.1048 -0.1852
29833W        W46307   7.897  12.423  16.041  0.0884  0.3483 -0.1062
29834W        W46308   7.669  10.341  11.894  0.3571  0.0533 -0.0811
29835W        W46309   5.207  16.083   1.503 -0.4725  0.3192 -0.4350
29836W        W46310   1.574   7.861   3.886 -0.0629 -0.0173 -0.0474
29837W        W46311   0.090   1.043   2.941  0.0528  0.1834 -0.0157
29838W        W46312   2.111   9.537  13.783 -0.1319  0.0555 -0.0539
29839W        W46313   8.014   6.271  15.666  0.4005  0.0422 -0.1953
29840W        W46314   2.387   4.867  10.832 -0.1691 -0.0823  0.1524
29841W        W46315   5.150  13.417   5.302 -0.0889 -0.3486  0.1854
29842W        W46316  13.505   5.884  13.360  0.0659  0.0043  0.1332
29843W        W46317  14.274  17.666   5.370 -0.1432 -0.3465 -0.0861
29844W        W46318   4.932  11.971  14.460 -0.1887  0.1765 -0.1425
29845W        W46319  15.281   0.498   4.034 -0.2232 -0.0895  0.0345
29846W        W46320   8.425  17.001  15.566 -0.1089  0.0299  0.1590
29847W        W46321   5.449  13.432  14.950 -0.0497 -0.0332  0.0598
29848W        W46322  11.214  13.823   2.255  0.2416  0.2103  0.0343
29849W        W46323   2.297  13.853   0.528  0.0519 -0.0183 -0.0954
29850W        W46324  18.020  14.949   4.814  0.1117  0.1169 -0.1849
29851W        W46325  16.914  10.509  14.929  0.1151  0.0816 -0.0066
29852W        W46326  18.237   6.672   3.309  0.0550 -0.0068  0.1114
29853W        W46327  13.474  10.378   1.163 -0.2382  0.0118 -0.2032
29854W        W46328   1.248  12.781  11.421 -0.1400 -0.1177 -0.1903
29855W        W46329  18.215  11.561   0.057  0.1394 -0.2809 -0.2571
29856W        W46330  10.882  14.107  12.358  0.1728 -0.2411 -0.1486
29857W        W46331   3.414  14.398   3.049 -0.4525 -0.0281  0.0349
29858W        W46332   8.388  13.663   2.916  0.2669  0.0350  0.3732
29859W        W46333   3.113  15.241  15.433 -0.1233  0.0121 -0.1248
29860W        W46334   0.201   4.513   1.289  0.2220 -0.2042 -0.1763
29861W        W46335  12.081  17.856   0.151 -0.1955  0.1772  0.2511
29862W        W46336   8.420  12.333  12.721  0.1260 -0.2452 -0.1314
29863W        W46337   6.416   5.771   1.473 -0.1920  0.1345 -0.1305
29864W        W46338   2.546  15.888   4.587  0.1549 -0.2499  0.2229
29865W        W46339   1.367  17.793   3.992 -0.0023 -0.3188 -0.1518
29866W        W46340   3.230  18.187   4.425 -0.3190  0.0640  0.0888
29867W        W46341   6.132   3.587   0.079 -0.2078  0.4301 -0.2237
29868W        W46342   5.606   6.267  14.967  0.0455 -0.0372 -0.0710
29869W        W46343   3.142  10.685  14.887  0.2065  0.3775 -0.1252
29870W        W46344  16.760   3.110   2.626 -0.3503  0.0125 -0.2895
29871W        W46345   0.354   5.450   4.261 -0.4208 -0.0115  0.0467
29872W        W46346   2.457  16.638  12.724  0.0255 -0.0215  0.0352
29873W        W46347   3.539   6.049   2.244 -0.1896 -0.1839  0.0915
29874W        W46348  10.807   7.340   2.905 -0.1799 -0.2295 -0.0927
29875W        W46349  15.226  17.843   1.629 -0.3285  0.0237  0.2793
29876W        W46350  16.540   5.851   3.556 -0.2652  0.0948 -0.2240
29877W        W46351   4.087  18.202  12.660  0.2225 -0.2504  0.3980
29878W        W46352  14.981  17.220  14.079  0.0356 -0.0501  0.0433
29879W        W46353  13.571  11.093  12.644 -0.2491  0.0497 -0.0023
29880W        W46354  14.051   5.112  11.063 -0.1428 -0.0698  0.2516
29881W        W46355  18.289  15.089   3.875  0.1427  0.0757 -0.0223
29882W        W46356  15.640   9.878  13.941  0.3091 -0.0888 -0.0487
29883W        W46357  12.204   6.641   1.132  0.2244 -0.1728  0.1384
29884W        W46358  17.515  13.567  12.600 -0.0483 -0.3307 -0.1312
29885W        W46359   0.002   1.521   5.324  0.2305  0.0059  0.0047
29886W        W46360   9.022   1.028  15.738 -0.1304  0.1370  0.3563
29887W        W46361   5.971   7.291  13.266  0.1874  0.0757 -0.2975
29888W        W46362  12.198   3.204   1.306 -0.1020 -0.3463 -0.1753
29889W        W46363   4.650   6.833  13.070  0.1982 -0.0973 -0.0839
29890W        W46364   3.381   0.325  12.071 -0.1405  0.0969  0.0434
29891W        W46365   8.169   5.506  16.244 -0.2552 -0.2746 -0.1462
29892W        W46366  16.985   2.608  13.142 -0.0830  0.2405 -0.2059
29893W        W46367   8.108   2.462  11.673  0.1990  0.1170  0.0305
29894W        W46368  14.905  15.798   3.495  0.0865 -0.1608 -0.0868
29895W        W46369   1.647  12.487  15.725 -0.0289  0.0832  0.1812
29896W        W46370  11.096  12.974   3.085  0.2618 -0.0770  0.1311
29897W        W46371   1.982  13.867   4.739 -0.0622 -0.0573 -0.1023
29898W        W46372   8.410   3.999   4.696  0.1309  0.0801 -0.0099
29899W        W46373   1.406  17.441  11.322  0.0111 -0.0459  0.0373
29900W        W46374   1.979   7.257   2.130 -0.2435  0.1806 -0.4743
29901W        W46375  12.368  17.414  15.632 -0.0847 -0.1756  0.3627
29902W        W46376   5.455   6.995  11.931  0.0899 -0.3975 -0.0118
29903W        W46377   8.959   7.131  15.345  0.0486  0.0424 -0.0304
29904W        W46378   3.672   3.365  11.359 -0.1047 -0.0359 -0.2650
29905W        W46379  12.408  14.643   0.442  0.2249  0.0628  0.2194
29906W        W46380   3.824  12.653  14.845  0.0994  0.1572 -0.2223
29907W        W46381  15.194   8.912   6.010 -0.4330 -0.4062  0.2494
29908W        W46382  12.783   6.751   0.214 -0.1759 -0.0413 -0.2599
29909W        W46383   8.354  11.816  11.789 -0.2808 -0.2961  0.1479
29910W        W46384  15.769  15.413   5.192  0.1191  0.1058 -0.1035
29911W        W46385   4.188  12.569  13.461  0.0127 -0.0092 -0.2824
29912W        W46386  13.011  14.002   5.644 -0.1682  0.2516  0.1681
29913W        W46387   3.696   8.478   1.118  0.2299 -0.1752  0.1080
29914W        W46388  16.849  12.638  15.663 -0.0753 -0.3356 -0.0653
29915W        W46389  14.269   8.354   5.422  0.2262 -0.1771 -0.0687
29916W        W46390  12.397   3.487   2.471 -0.3101 -0.1740  0.1563
29917W        W46391  15.005  14.164   1.770 -0.2158 -0.1014  0.2007
29918W        W46392   4.886   9.722   4.789 -0.2997 -0.0294  0.1332
29919W        W46393  14.832  15.822  15.191  0.1238  0.0334 -0.0640
29920W        W46394  14.620   9.698   0.590  0.1092 -0.1710  0.1426
29921W        W46395  15.886   9.892   0.141  0.2540  0.1248  0.1927
29922W        W46396   2.577   0.695  16.293 -0.1377 -0.0131 -0.3549
29923W        W46397  14.054  16.227  14.721 -0.1563  0.0546  0.3191
29924W        W46398  10.261   1.578  15.848  0.1993 -0.1098  0.0270
29925W        W46399   2.257  11.800   3.543  0.1085  0.0484  0.1000
29926W        W46400   5.876   7.682   0.306 -0.2000 -0.1897 -0.2510
29927W        W46401  14.353   2.551  13.458  0.3105  0.0728 -0.0005
29928W        W46402  12.551   8.552  14.300 -0.3322  0.2261 -0.0557
29929W        W46403  11.060   9.458   5.388  0.1154  0.1291  0.0316
29930W        W46404  16.496  12.324   1.923  0.1261 -0.0416  0.0904
29931W        W46405   9.684   8.691  14.860  0.2460  0.1415  0.0116
29932W        W46406   5.185  17.781   3.984  0.3816 -0.1777  0.1725
29933W        W46407   6.387   4.877   4.160  0.0681 -0.1526 -0.2199
29934W        W46408  17.830  15.576   1.886  0.2067  0.2401  0.0982
29935W        W46409   6.564  11.231  11.642 -0.3675 -0.0122 -0.4096
29936W        W46410   6.057   2.899  12.116 -0.0558 -0.0666  0.0292
29937W        W46411  11.869  15.368  11.440 -0.1666  0.1145 -0.0331
29938W        W46412   5.158   0.719  13.051  0.0922  0.2637  0.0706
29939W        W46413  14.064   6.464   4.039  0.0517 -0.1444 -0.2300
29940W        W46414  10.858  14.937   4.919  0.1037  0.4348  0.2641
29941W        W46415  16.066   9.781   3.477 -0.0330 -0.3556 -0.0578
29942W        W46416  14.482  13.095   3.936  0.2624 -0.3396  0.3505
29943W        W46417  12.820  15.736  15.465  0.0220 -0.0648 -0.1078
29944W        W46418   4.895   8.192   5.064 -0.0340  0.2283  0.1124
29945W        W46419  16.601  16.626  11.169 -0.2807 -0.0271  0.1789
29946W        W46420  11.125   0.735   1.363 -0.1375  0.0477 -0.3553
29947W        W46421  16.916   2.318   4.146 -0.2585  0.1381  0.3371
29948W        W46422   3.495   4.218  13.925 -0.4968  0.3158  0.3307
29949W        W46423   9.213   4.777  15.388 -0.0085  0.0590  0.1783
29950W        W46424   1.864  17.081  14.915  0.1465  0.0561  0.0073
29951W        W46425   5.696  12.888  14.687  0.1969  0.2696  0.1612
29952W        W46426   0.867  12.306  14.104 -0.0046  0.3266  0.3785
29953W        W46427  17.710  10.230  13.237 -0.1141  0.0780  0.0470
29954W        W46428   6.285   9.976  13.120  0.1125 -0.4819  0.1413
29955W        W46429  16.137   1.951   2.267 -0.2403  0.0410 -0.2425
29956W        W46430  18.223   3.693  10.971  0.1064 -0.0316  0.3356
29957W        W46431   4.274  15.976  15.127 -0.0027 -0.0013 -0.2390
29958W        W46432  16.084   8.286  11.934 -0.0124  0.2565  0.1030
29959W        W46433   5.305  13.624   4.498 -0.0030  0.2311 -0.1564
29960W        W46434   8.941   0.212   1.310  0.0110  0.3934 -0.3016
29961W        W46435  17.509  10.045  15.621 -0.1945 -0.2807  0.1163
29962W        W46436   8.776  15.635  12.242  0.0235 -0.0883 -0.1212
29963W        W46437  15.271  17.737   5.329 -0.0925 -0.0584  0.0904
29964W        W46438  14.182   7.230  11.297  0.1013  0.0717  0.0127
29965W        W46439  10.710   5.804  11.572  0.2210 -0.0085 -0.0863
29966W        W46440  16.780  15.747  11.732 -0.1572 -0.1153  0.1058
29967W        W46441   7.915   3.787   2.483  0.0347  0.0773 -0.0207
29968W        W46442  10.648   6.936  13.450 -0.0185 -0.3113  0.0704
29969W        W46443   8.696  10.369   2.608 -0.2947  0.0911  0.1440
29970W        W46444   4.184  17.727   3.600 -0.0326 -0.1398  0.0504
29971W        W46445   2.296  15.784  11.085 -0.1052  0.0265 -0.1768
29972W        W46446   7.862   8.037  15.230  0.0384  0.0851 -0.0049
29973W        W46447  10.038  17.322  12.033  0.1755 -0.1282 -0.0707
29974W        W46448   1.008   8.633   1.892 -0.1010 -0.0954 -0.0307
29975W        W46449   2.493  17.631   5.360 -0.5933 -0.1726  0.1148
29976W        W46450  11.944   8.427   4.206 -0.1492 -0.0575  0.1136
29977W        W46451   2.139  13.438  15.736 -0.0062  0.1372  0.1938
29978W        W46452  12.030   9.579  15.056 -0.1481 -0.0318 -0.2713
29979W        W46453  13.363   0.267  16.182  0.2752  0.2590  0.0533
29980W        W46454   6.912   8.902  12.622  0.0190  0.2944  0.3395
29981W        W46455   3.342   6.377  15.087 -0.0299 -0.1789 -0.1636
29982W        W46456   2.427   2.448   3.646 -0.0982 -0.2658 -0.4011
29983W        W46457  14.304   1.056  13.862 -0.2969  0.0591 -0.0198
29984W        W46458  16.814  11.715  11.221 -0.2232 -0.1204  0.0220
29985W        W46459   8.600  11.759   6.321 -0.0518  0.0158  0.0081
29986W        W46460  13.227  11.069   1.716 -0.2552  0.0152 -0.0014
29987W        W46461   3.889  16.707   3.220 -0.0950  0.1969  0.3132
29988W        W46462  16.937  17.030  14.080  0.0433 -0.0669 -0.0297
29989W        W46463   9.841   8.056   1.492 -0.0297 -0.1657  0.0902
29990W        W46464   3.676  17.933   0.797 -0.3401 -0.2089 -0.0809
29991W        W46465   3.194  17.328  13.178 -0.0664 -0.1375 -0.1790
29992W        W46466   5.118   8.234   2.533  0.0342 -0.0378  0.1722
29993W        W46467  10.545   4.731  15.629 -0.0409 -0.1505 -0.2387
29994W        W46468   1.573  17.243   4.221 -0.2110  0.1142  0.1615
29995W        W46469  12.892   7.462   1.887  0.2425  0.0442 -0.1296
29996W        W46470   3.442  13.028   0.401  0.2459 -0.2392  0.3796
29997W        W46471  15.533   5.351   0.943  0.0746  0.1435 -0.0740
29998W        W46472  12.668   9.470   5.799  0.4711  0.1455 -0.2524
29999W        W46473   7.590   0.532  13.049 -0.1629  0.2827  0.1192
30000W        W46474   7.062  16.282  15.494  0.3173  0.0878 -0.2825
30001W        W46475   0.965   8.230   0.527 -0.0903 -0.0662 -0.1162
30002W        W46476   8.909  15.166   3.193 -0.1913 -0.5921 -0.0033
30003W        W46477   6.453  13.498  15.190  0.0922 -0.0722  0.2073
30004W        W46478   3.068  12.590  15.902 -0.2917  0.1690 -0.1025
30005W        W46479   5.793  11.510  15.382 -0.1449 -0.2862 -0.0818
30006W        W46480   3.592   3.844   4.385 -0.1934 -0.1939 -0.0689
30007W        W46481  12.152  12.753  12.737 -0.1104  0.1499 -0.0200
30008W        W46482   8.535  15.661  10.875 -0.3095  0.0485 -0.3037
30009W        W46483  15.317  12.519   1.292 -0.0843  0.4189  0.0427
30010W        W46484   3.115   2.316   0.836 -0.3036 -0.3287  0.0511
30011W        W46485   9.240   0.800   4.572 -0.1451 -0.4688  0.1556
30012W        W46486   1.770  13.302  14.079 -0.0921  0.1052 -0.2712
30013W        W46487  13.038  17.594  11.500  0.0731 -0.1411  0.0983
30014W        W46488   1.317  17.991  15.409 -0.3035 -0.0744 -0.0055
30015W        W46489   8.303  11.362   0.074 -0.2859  0.0592  0.0983
30016W        W46490   3.986   5.542   4.655 -0.0233 -0.1838 -0.1251
30017W        W46491  16.700   9.561  11.075  0.1221 -0.2760 -0.0806
30018W        W46492  12.351   8.331   0.755  0.2048 -0.0453  0.0647
30019W        W46493   8.766   7.843   2.034  0.1498  0.0603  0.0624
30020W        W46494  13.060  16.781  14.585  0.2086 -0.0314 -0.0003
30021W        W46495  14.898  14.915  13.949 -0.1754 -0.2270  0.4615
30022W        W46496   8.152   7.342  11.582  0.2085  0.3368 -0.2175
30023W        W46497   9.190   5.947   5.490 -0.1489  0.1947  0.3340
30024W        W46498  13.681   8.883   4.786  0.2255  0.0019 -0.1065
30025W        W46499   0.056   9.293  14.212  0.2954 -0.2352 -0.0030
30026W        W46500  16.703  13.152   4.755  0.0019 -0.0063 -0.0631
30027W        W46501  12.545  15.882  13.034  0.2705  0.2038  0.0695
30028W        W46502   1.382   1.324  15.976 -0.2373 -0.1108  0.0016
30029W        W46503   4.030   4.066   4.706 -0.1305  0.2082  0.0051
30030W        W46504   6.836   5.517   1.771  0.0165 -0.3720 -0.0741
30031W        W46505   1.239  10.575  14.512  0.1022 -0.0078 -0.0211
30032W        W46506  13.867   0.875   5.503  0.0124  0.4075 -0.1144
30033W        W46507   1.413  13.751   5.907 -0.1591 -0.2008  0.1559
30034W        W46508   3.937   5.266  15.286  0.1110  0.0068 -0.0737
30035W        W46509   5.776  18.231   4.233 -0.1695 -0.0606 -0.0301
30036W        W46510   0.688  17.134  11.642  0.0690 -0.0423  0.0206
30037W        W46511  18.067   1.300   4.866  0.1557 -0.1219  0.2635
30038W        W46512  10.077   2.091   4.176 -0.0158  0.2528  0.0831
30039W        W46513   5.300  10.094   2.248 -0.0606  0.0384  0.1526
30040W        W46514   5.866   4.948   1.031  0.2483 -0.1694 -0.1645
30041W        W46515  17.592   5.471  13.911 -0.0912  0.1757  0.1540
30042W        W46516  11.627  10.600   6.441 -0.1640  0.0534 -0.0708
30043W        W46517   2.810  11.622  12.907 -0.0162 -0.1394 -0.1200
30044W        W46518  16.102   6.299   5.291  0.0340 -0.1035  0.1760
30045W        W46519   6.108  10.097   4.862  0.0458 -0.3500  0.0662
30046W        W46520   7.327  11.555   1.219  0.4508  0.2168  0.2178
30047W        W46521   8.250  11.741  16.017 -0.5502 -0.2146 -0.3549
30048W        W46522   0.731   6.060  15.347 -0.0576 -0.2687  0.3506
30049W        W46523   8.196  14.083   5.496  0.1032  0.3784 -0.0271
30050W        W46524  17.301   3.944  15.795  0.2925 -0.0167 -0.2227
30051W        W46525  16.188   2.070  11.303  0.2399  0.4007  0.1980
30052W        W46526  17.234   8.433   1.552 -0.2462  0.0629 -0.0853
30053W        W46527   5.987  12.328   2.062  0.0867 -0.1774 -0.1328
30054W        W46528  10.012   6.986  11.885 -0.0501  0.3813 -0.2649
30055W        W46529   0.539   4.936  16.282 -0.0063  0.1670  0.0908
30056W        W46530   6.967  17.590   3.847  0.4647 -0.0173 -0.2528
30057W        W46531  13.267  12.264   1.923  0.2732 -0.1121 -0.0511
30058W        W46532   7.817  11.494  15.004 -0.2298 -0.0210  0.1035
30059W        W46533   8.545   4.246  14.577  0.0312  0.2458  0.1398
30060W        W46534   2.375  15.797   1.375 -0.0417  0.1927 -0.0493
30061W        W46535  16.543  11.078  13.529  0.1761 -0.1107  0.0517
30062W        W46536   6.710  15.450  12.208  0.1116  0.0007  0.0916
30063W        W46537  10.982  10.692  15.145  0.1183  0.5105  0.1080
30064W        W46538  10.451   5.072   4.509  0.0232 -0.2927  0.0088
30065W        W46539   0.574  10.473   0.594  0.0234 -0.1635 -0.2993
30066W        W46540   2.853   4.113  14.420 -0.2018 -0.0778 -0.3405
30067W        W46541  16.064  15.450  11.772 -0.1305  0.1184 -0.0554
30068W        W46542   1.369  11.343   1.798 -0.2626  0.1256  0.0161
30069W        W46543  16.390  13.843  14.826  0.3267 -0.1520  0.0923
30070W        W46544   4.105  18.220  13.230 -0.0023 -0.0425 -0.3954
30071W        W46545  14.913  16.795   2.100 -0.0784  0.1815 -0.1269
30072W        W46546   7.267   6.804   4.168 -0.0259  0.0346  0.1355
30073W        W46547   5.845  16.542  15.228  0.2123  0.0318 -0.2879
30074W        W46548  16.609   1.829  11.542  0.0586 -0.2151 -0.0294
30075W        W46549   1.806  12.037   0.236 -0.2401  0.0893  0.1056
30076W        W46550   3.374  14.622   4.368 -0.0033 -0.3077  0.0254
30077W        W46551  12.555  11.254  11.280  0.0220  0.2877  0.0508
30078W        W46552  15.307   1.934  16.298 -0.1058  0.1970 -0.0354
30079W        W46553   8.830   6.291  13.814 -0.0897  0.0207  0.2398
30080W        W46554  17.310  10.726   4.251 -0.0401  0.2528  0.0710
30081W        W46555  12.647  11.347   4.660 -0.0226  0.0952 -0.0161
30082W        W46556   9.498   6.045   2.141  0.0578 -0.0330 -0.1661
30083W        W46557   0.089  17.111  13.139 -0.0710  0.0516 -0.0556
30084W        W46558  16.315  14.588   5.464 -0.0971 -0.0190 -0.0595
30085W        W46559  15.979   6.160   4.227  0.3284  0.0549  0.1799
30086W        W46560   2.235   9.000   0.109  0.3663 -0.1456 -0.1587
30087W        W46561  14.955   8.580   1.036 -0.2096 -0.1206  0.2110
30088W        W46562   9.610   7.044   3.205  0.1794  0.1734  0.1027
30089W        W46563  16.366  12.468  11.391  0.1045  0.1101  0.0724
30090W        W46564   2.055   8.568  11.916  0.2931 -0.1140  0.0611
30091W        W46565  10.277   1.149  13.568  0.0692 -0.0992  0.3710
30092W        W46566  11.523  15.340  15.292 -0.1315 -0.0398 -0.1578
30093W        W46567  14.342  14.269  12.194  0.0328 -0.0650 -0.0559
30094W        W46568   6.916  14.371   0.397  0.1207 -0.1558 -0.1928
30095W        W46569   4.152   7.293   4.807  0.1359  0.2030 -0.0844
30096W        W46570   3.458  10.052   1.877  0.3089  0.2472 -0.1550
30097W        W46571  11.382  13.036  16.011  0.1144  0.4034  0.3818
30098W        W46572   7.636  13.275  14.715  0.1742  0.0838 -0.2056
30099W        W46573   2.150   7.439  13.639  0.0086  0.2869  0.1267
30100W        W46574   0.988  15.177   1.010 -0.2537  0.1332  0.0538
30101W        W46575   4.819   4.352  15.735  0.2140  0.0519  0.2568
30102W        W46576  15.891  12.781  12.982 -0.1182 -0.1747  0.1990
30103W        W46577   6.934  13.618   3.793 -0.0226 -0.5480 -0.1732
30104W        W46578   3.418  18.000  14.344 -0.0325  0.3779  0.4665
30105W        W46579   6.726  10.697  15.626  0.0588 -0.0092 -0.3763
30106W        W46580   5.660  14.256   6.148  0.0573 -0.2345  0.1747
30107W        W46581  12.793   4.734  11.965  0.0826 -0.1491 -0.2572
30108W        W46582  13.973   6.005   3.589 -0.2139 -0.0306 -0.3729
30109W        W46583   0.432   1.258   2.629 -0.0801 -0.0874 -0.0082
30110W        W46584  14.442  13.380  11.407  0.0047 -0.3881 -0.2307
30111W        W46585   0.215  12.934   4.261 -0.2439  0.3634  0.0027
30112W        W46586  16.662  18.174   3.480 -0.0002  0.1853 -0.1728
30113W        W46587  15.336  10.551  12.386 -0.0214 -0.2543 -0.0443
30114W        W46588   1.118   8.508  12.549  0.1193  0.0554 -0.0565
30115W        W46589   7.795  13.375   6.149  0.2103 -0.0736  0.1916
30116W        W46590  14.733  13.258   4.358 -0.1895  0.2135  0.0691
30117W        W46591   4.204   4.510  12.322 -0.0239 -0.2028 -0.0936
30118W        W46592   2.025   4.789   4.419  0.1933 -0.1700  0.1341
30119W        W46593  17.104  16.725  13.685 -0.1546  0.1631 -0.1693
30120W        W46594   0.679   3.057  16.301  0.0785  0.0472 -0.1606
30121W        W46595   2.919   2.262   2.237 -0.2084 -0.3127 -0.1195
30122W        W46596   6.822   4.093   1.280  0.1595  0.3345  0.0274
30123W        W46597   3.816  17.145   5.654  0.2380  0.1563  0.2925
30124W        W46598  13.516   5.269  12.016 -0.1240 -0.1411 -0.0178
30125W        W46599   5.923  15.848  14.511  0.2716 -0.0142 -0.2007
30126W        W46600  18.255  18.308   4.569  0.2206 -0.2077 -0.0153
30127W        W46601   3.037  15.642  13.518 -0.0735 -0.0732  0.0018
30128W        W46602   9.499   3.889  12.613 -0.0393  0.1854  0.1935
30129W        W46603  12.013  13.358  14.405  0.1389 -0.0185 -0.1828
30130W        W46604   1.795   9.533   2.372 -0.1755 -0.1622  0.3354
30131W        W46605  15.876   1.630   4.588  0.2727  0.0946 -0.1560
30132W        W46606   5.964   3.061  14.151  0.0193 -0.0809  0.0572
30133W        W46607   8.314   7.180  14.464  0.0938 -0.0392 -0.0114
30134W        W46608   2.095   9.182   0.683  0.2241  0.1472 -0.1424
30135W        W46609   1.029   6.853   1.362 -0.0620  0.1530 -0.1125
30136W        W46610  15.572  15.827   1.925 -0.0905  0.0188  0.0975
30137W        W46611   5.872  13.194   5.304 -0.0015 -0.0091 -0.0554
30138W        W46612   1.196   9.390   4.262 -0.0507  0.1222 -0.2307
30139W        W46613  17.036  13.098  12.079  0.2773  0.1454  0.1287
30140W        W46614   5.014   2.153  14.729  0.0976 -0.3300  0.0379
30141W        W46615   3.909   4.404  14.666  0.1662  0.0925 -0.3625
30142W        W46616   3.420   2.399  14.393 -0.1087  0.0660  0.3917
30143W        W46617  10.403  14.246  11.645 -0.0639  0.0162 -0.2442
30144W        W46618   5.700   0.660   1.547  0.0313  0.1366 -0.0464
30145W        W46619  10.751  17.790   3.184 -0.2504  0.0358 -0.0552
30146W        W46620  17.352   3.575  16.238  0.0112 -0.2504 -0.2899
30147W        W46621  13.853   2.539   0.024 -0.2333  0.1212  0.0979
30148W        W46622   3.068  13.912  12.473  0.0883 -0.2119 -0.0415
30149W        W46623   5.759   1.607   0.382  0.2359 -0.2211  0.0480
30150W        W46624   6.151  18.230   2.402  0.0785 -0.0869 -0.1543
30151W        W46625   2.426   7.685   2.672 -0.0351 -0.0488 -0.1335
30152W        W46626  14.730   6.290   5.047  0.0196  0.0653 -0.3586
30153W        W46627   7.208   9.286   3.774  0.1591 -0.0569  0.1924
30154W        W46628   6.778  17.572  14.768 -0.3096 -0.2569  0.0183
30155W        W46629  18.102  15.558   3.917 -0.4104  0.4569  0.1339
30156W        W46630  17.177  12.860  14.965  0.0423 -0.1038  0.0618
30157W        W46631  17.784   8.779  15.714 -0.1818 -0.1894  0.0420
30158W        W46632  12.480  16.159   1.089 -0.0499 -0.1522 -0.1402
30159W        W46633  14.143   5.803  15.562 -0.2207 -0.2709  0.0172
30160W        W46634  17.029  11.884  13.192 -0.2558  0.2410  0.1258
30161W        W46635   5.940   2.285  13.955 -0.2045  0.1736  0.2948
30162W        W46636   1.301   6.861  15.779 -0.2195 -0.0610 -0.1067
30163W        W46637  10.062   9.967  15.711  0.0194 -0.0352  0.0386
30164W        W46638  16.102  13.174   2.322  0.0743  0.1640 -0.0719
30165W        W46639  10.491  10.367   3.612 -0.0328 -0.2952  0.1124
30166W        W46640  15.818   5.439  14.147  0.0289  0.0348 -0.0578
30167W        W46641  10.846  14.640  14.382  0.1150  0.1754  0.0642
30168W        W46642  12.344  16.320   3.069 -0.0714 -0.0013 -0.0289
30169W        W46643   2.791   6.170  11.504  0.0065 -0.2360 -0.4042
30170W        W46644   1.420  11.331   5.437 -0.3212 -0.0199 -0.1037
30171W        W46645   6.611   3.556   5.912 -0.1595  0.1259 -0.0176
30172W        W46646   0.091  17.669  13.319 -0.1383 -0.0288 -0.1802
30173W        W46647   8.380   5.574   4.890  0.1230 -0.0747  0.0175
30174W        W46648  11.018  16.887   2.809 -0.3022  0.1699 -0.0351
30175W        W46649  12.616   3.987   1.136 -0.0412 -0.0159 -0.0775
30176W        W46650   1.068  10.578   0.367  0.1442 -0.1757  0.1092
30177W        W46651   8.680   7.433  12.257 -0.0717  0.3579 -0.0013
30178W        W46652   0.211  13.026  10.143 -0.3182 -0.3228  0.1176
30179W        W46653   1.988   9.188   4.450 -0.0573 -0.1121  0.2513
30180W        W46654  14.587  12.758   1.980 -0.0352  0.0222  0.1128
30181W        W46655  14.242   5.636  14.446 -0.5397 -0.1518 -0.1366
30182W        W46656  17.951  17.171  12.872 -0.0930 -0.3089  0.0214
30183W        W46657   3.977  15.286   0.929  0.0018 -0.2605 -0.1649
30184W        W46658  17.533  17.568   2.460  0.1420  0.2221  0.0102
30185W        W46659  16.291   3.245  15.923  0.0402  0.3745  0.0954
30186W        W46660  15.201  17.797  11.741 -0.2024 -0.1670  0.2355
30187W        W46661   5.831   8.807   6.092 -0.2882 -0.3018  0.3126
30188W        W46662  13.742  15.809  11.681  0.1059 -0.1411  0.0597
30189W        W46663  17.792  14.404  13.147 -0.1908  0.0166  0.3493
30190W        W46664  10.176   2.871   2.836 -0.3564  0.2445 -0.0503
30191W        W46665   7.544   9.859   4.530  0.2458 -0.0084 -0.1620
30192W        W46666  18.087   1.692   3.966 -0.1661 -0.0808  0.0784
30193W        W46667   6.477  10.986  15.144  0.1353 -0.0888  0.1599
30194W        W46668   2.533   6.481   4.280 -0.4698  0.2450  0.3058
30195W        W46669   0.994   2.233  13.717  0.1178 -0.0897  0.0363
30196W        W46670  18.296   3.177  16.164 -0.0557  0.0714 -0.0481
30197W        W46671  18.213  17.263  14.695  0.1095  0.0663  0.2183
30198W        W46672   0.319   3.828  11.651  0.0149  0.1479  0.1143
30199W        W46673  13.885  13.700  14.088 -0.2189  0.3669  0.1781
30200W        W46674   8.321  16.060  11.421  0.2612  0.0784 -0.1401
30201W        W46675   7.992   6.534   4.389  0.2535  0.3533  0.1979
30202W        W46676   7.101   0.458  14.478  0.0764 -0.0004 -0.1343
30203W        W46677  16.152   4.001  12.261 -0.1895 -0.0562 -0.0101
30204W        W46678  10.994  15.805  13.687  0.2185  0.0691  0.2326
30205W        W46679   4.109  16.595  15.772 -0.1601  0.1157  0.2475
30206W        W46680  13.202   0.794  14.702  0.1147 -0.1559 -0.2127
30207W        W46681   1.179   4.107   2.768 -0.1369 -0.3856 -0.4328
30208W        W46682  12.133   4.024  13.938 -0.0003  0.1232  0.1133
30209W        W46683   5.884  11.318   1.523  0.0603 -0.1576 -0.1001
30210W        W46684   0.804  17.490  12.129  0.2360  0.1525  0.2660
30211W        W46685   5.181  15.853  14.167 -0.2130  0.1762 -0.2988
30212W        W46686  13.757  10.541   2.569 -0.2558 -0.2206  0.2579
30213W        W46687   7.865  16.815  14.090  0.1282 -0.1994  0.4260
30214W        W46688  11.892  11.622  12.798 -0.0912  0.0384 -0.1099
30215W        W46689   0.926  12.803   2.272 -0.0004  0.2196  0.2523
30216W        W46690   4.201   1.270  16.258 -0.3161  0.0694 -0.0778
30217W        W46691   2.874   3.093   5.977  0.0502 -0.1948 -0.3319
30218W        W46692   7.038   5.736  12.715 -0.0368  0.0955 -0.0102
30219W        W46693  11.111   3.786   3.310 -0.0332 -0.0571  0.2347
30220W        W46694   1.381  10.192   4.973 -0.1767  0.1235 -0.1521
30221W        W46695  16.826  14.460   0.185 -0.1272 -0.1009  0.1701
30222W        W46696   4.402   4.728   2.022 -0.0901 -0.0509 -0.0464
30223W        W46697  10.647   2.964  13.836  0.2162 -0.0971  0.3668
30224W        W46698   2.833   6.771   3.731  0.1239  0.1904 -0.3703
30225W        W46699   6.421  17.762   0.928 -0.3378 -0.3609 -0.2917
30226W        W46700   7.516   8.098   2.402 -0.0489  0.0528  0.2137
30227W        W46701  17.901   8.440  10.403 -0.0849  0.1414  0.1215
30228W        W46702   6.098  16.941   3.535  0.0051 -0.1279 -0.1033
30229W        W46703  16.013   8.022   2.891 -0.0244 -0.1689 -0.0054
30230W        W46704  12.835   6.929  13.806 -0.2308 -0.2131 -0.0811
30231W        W46705  10.717   8.424  15.093  0.1847  0.2643  0.1935
30232W        W46706  10.120   9.123   6.171 -0.0766 -0.1930 -0.1664
30233W        W46707  18.208  17.828   1.049 -0.0377 -0.2172 -0.0019
30234W        W46708   0.105   9.019   2.797  0.1287 -0.2022 -0.1699
30235W        W46709   1.043  17.832  13.125 -0.2541  0.1263 -0.2241
30236W        W46710   5.407   3.021  13.806 -0.1254  0.1537  0.1716
30237W        W46711   0.417  13.672   1.064 -0.1032  0.1119  0.2174
30238W        W46712  12.664  16.306  15.372  0.1916  0.1248 -0.0594
30239W        W46713  12.015  16.478   3.673 -0.0758  0.2965  0.0228
30240W        W46714  15.530   7.541   0.198  0.1574  0.1041  0.0836
30241W        W46715  15.735   0.548  15.413  0.0658  0.2451  0.0489
30242W        W46716   4.647  16.301   0.201 -0.2772 -0.0738 -0.0148
30243W        W46717  12.216  18.256  11.832  0.0428 -0.1408  0.0328
30244W        W46718   2.875   0.212  11.907  0.2619 -0.1943  0.1975
30245W        W46719  12.659   0.117   0.583  0.2910  0.0803 -0.2204
30246W        W46720   0.815  12.651  13.718  0.0831  0.1812  0.0306
30247W        W46721  17.284   1.347  11.288 -0.0130 -0.4407 -0.1776
30248W        W46722   6.988  14.455  11.158  0.2204  0.2387  0.0395
30249W        W46723   1.353  17.618   0.588  0.3211  0.0773 -0.0900
30250W        W46724  10.779   0.050   1.713  0.0922 -0.0062 -0.0525
30251W        W46725   1.307  14.978  14.435 -0.1236  0.0409  0.1496
30252W        W46726   0.396   2.677  13.691 -0.0965 -0.0158 -0.2324
30253W        W46727   2.772   0.461   0.769 -0.0658 -0.0070  0.1508
30254W        W46728  14.820   3.540   3.924  0.0101 -0.1111 -0.1300
30255W        W46729   5.594  16.511   0.949 -0.0113  0.0817 -0.2549
30256W        W46730   8.645  13.275  15.961 -0.1401 -0.0015  0.1212
30257W        W46731   3.190   2.715  11.799 -0.1927  0.1668  0.2265
30258W        W46732   1.835   5.504  12.217 -0.2899 -0.1424  0.0219
30259W        W46733   5.362  17.353  15.738  0.0591 -0.1371 -0.0010
30260W        W46734  12.746  11.532   2.484  0.0712 -0.1704 -0.1336
30261W        W46735  15.588   4.848   1.866  0.5174  0.1303  0.5201
30262W        W46736  15.893   7.804  15.395  0.0415  0.0113  0.0078
30263W        W46737   4.399   5.160  13.214 -0.0475 -0.0651  0.0777
30264W        W46738  10.642   8.856   0.293 -0.3625 -0.2611 -0.2268
30265W        W46739   5.240  17.359   2.834  0.2189  0.1283 -0.1147
30266W        W46740   7.267  14.052   4.635  0.1912 -0.0401  0.0008
30267W        W46741  11.541   6.426  13.388 -0.1908 -0.1235 -0.0639
30268W        W46742  10.055   6.561   0.577  0.2430  0.5551  0.0474
30269W        W46743   0.715  17.417   5.241  0.0731 -0.4242 -0.4465
30270W        W46744   7.471  11.760  13.707 -0.2535 -0.1183 -0.2071
30271W        W46745   0.124   4.324  14.975  0.5162  0.2915 -0.0873
30272W        W46746   2.072   0.673  12.286  0.2714  0.1871 -0.0027
30273W        W46747   7.436  17.079  12.862 -0.1325  0.2492  0.2460
30274W        W46748   5.199  17.548  13.246  0.1611  0.0469 -0.0183
30275W        W46749  17.072   6.741   1.960  0.2690 -0.2143  0.1258
30276W        W46750   6.174  14.995   2.104 -0.1239 -0.1379 -0.2485
30277W        W46751  17.975   4.187  15.751 -0.1698 -0.1505  0.1905
30278W        W46752   7.865   2.645   3.718 -0.2754 -0.2411  0.0683
30279W        W46753  12.476  15.335   3.612  0.2214  0.3379 -0.0552
30280W        W46754   6.631   9.136   6.581  0.1320  0.2401  0.0051
30281W        W46755  10.833  15.926  12.253  0.1139 -0.0929 -0.1778
30282W        W46756   3.487  17.365  15.937  0.1986  0.1354 -0.2654
30283W        W46757   0.046   5.674  12.690  0.1038  0.2638 -0.4670
30284W        W46758   2.999   3.533  14.404 -0.0253 -0.1324  0.0309
30285W        W46759  16.548   5.470  14.708  0.1812  0.0045 -0.0769
30286W        W46760   2.193  18.306  11.740 -0.1684 -0.1435 -0.0904
30287W        W46761   4.454  14.989   5.642  0.0764  0.0809 -0.0187
30288W        W46762  12.010   1.422   5.157 -0.2778 -0.0547  0.1266
30289W        W46763   4.705  13.214  11.045 -0.1552 -0.3456  0.2092
30290W        W46764   8.019  12.079  15.695  0.0205  0.1986  0.0891
30291W        W46765   6.963  10.787   3.599 -0.2086 -0.3222 -0.2156
30292W        W46766  16.774   1.369  11.384  0.1479 -0.1008  0.0279
30293W        W46767  16.420   9.173  10.991 -0.0837 -0.1484 -0.2051
30294W        W46768  10.927   1.422  15.195  0.1472  0.3099 -0.0306
30295W        W46769  12.290  10.734   2.288  0.1882 -0.0636 -0.1898
30296W        W46770   5.206  11.275  13.654  0.1820  0.0448 -0.2509
30297W        W46771  14.061   7.616   2.298 -0.0709  0.0716 -0.1321
30298W        W46772  15.026   5.399   4.526 -0.1251 -0.2012 -0.1851
30299W        W46773  11.430  14.985   0.954  0.1051 -0.1742 -0.2962
30300W        W46774  16.421  18.046   2.434 -0.0555  0.2333 -0.2910
30301W        W46775   2.635   5.617  14.745  0.1905  0.0188 -0.2860
30302W        W46776  16.477  13.920   4.487  0.3013 -0.1263  0.0625
30303W        W46777  14.944   5.941   1.307  0.0117 -0.1964 -0.0317
30304W        W46778   4.261   1.741   3.998 -0.0034  0.0250  0.0896
30305W        W46779   2.482   1.644  14.709  0.0065 -0.1955 -0.0866
30306W        W46780   2.446  16.856   2.663 -0.0862 -0.2186 -0.3328
30307W        W46781  11.404  11.599  13.453 -0.0409  0.2468 -0.0645
30308W        W46782   5.416   7.114   3.451 -0.0125  0.0602  0.3111
30309W        W46783  11.981   3.177  13.418  0.0378  0.3854  0.0534
30310W        W46784   8.851   5.080  11.410 -0.0006  0.0107 -0.2038
30311W        W46785   4.668   4.021  13.795  0.0691  0.4232  0.1868
30312W        W46786   6.669   8.629  12.910  0.0025  0.0891 -0.0902
30313W        W46787  17.370   8.433  15.773 -0.1595  0.2510 -0.2192
30314W        W46788  10.569  17.469  13.367 -0.2353 -0.1512 -0.1078
30315W        W46789  15.233  15.743   4.860 -0.2010 -0.0800 -0.0901
30316W        W46790  10.289  13.049  14.578  0.4908  0.0900  0.0486
30317W        W46791   1.823  11.981  12.703 -0.0305 -0.0263 -0.1736
30318W        W46792  10.566   5.707  11.084  0.0107 -0.3183 -0.3495
30319W        W46793   2.478  12.836  12.025  0.1902  0.2993  0.1778
30320W        W46794   5.616  15.686  13.223  0.0658  0.0114  0.3185
30321W        W46795   0.365   4.899  12.992  0.1921 -0.1992  0.3735
30322W        W46796   9.144  10.379  15.503 -0.1600 -0.3378 -0.1866
30323W        W46797  15.732   1.089  15.255 -0.0617  0.1398 -0.2149
30324W        W46798  15.187  13.337  11.231  0.0164 -0.0461  0.1078
30325W        W46799   0.757  17.017   0.933 -0.0576 -0.1684 -0.0636
30326W        W46800   4.749   4.830   1.317  0.1725  0.1399  0.1057
30327W        W46801   3.876  12.786   1.050  0.1017  0.1820 -0.2634
30328W        W46802   7.132  15.681  14.288 -0.1746 -0.3285  0.1730
30329W        W46803  17.549   9.054   5.337  0.0519 -0.1425 -0.1764
30330W        W46804  13.128   0.506   5.038  0.3162  0.2277  0.1022
30331W        W46805  11.164   1.501  15.912 -0.0594 -0.0892  0.0591
30332W        W46806   3.080  16.801   1.396  0.0289  0.2066 -0.0860
30333W        W46807   8.385  13.683  11.349 -0.1526  0.2273 -0.1760
30334W        W46808   3.291  12.746  12.193  0.1456  0.3073 -0.1710
30335W        W46809  12.185  15.377   5.896  0.0755  0.1901  0.0337
30336W        W46810   3.294   7.929  13.991 -0.2607 -0.1295 -0.1100
30337W        W46811  15.087  14.079   0.413  0.0337  0.2983  0.0835
30338W        W46812   4.673   3.395   0.156  0.1560 -0.1486  0.1066
30339W        W46813  13.689  16.899  16.109  0.3118  0.1279  0.0347
30340W        W46814   9.927   7.433  14.178  0.1129  0.0361  0.0277
30341W        W46815  11.687  10.742   4.289 -0.1395  0.2038 -0.1880
30342W        W46816   5.184  17.034  15.312 -0.3212  0.2149 -0.2474
30343W        W46817   0.371  12.502   1.713 -0.1597  0.0766 -0.0440
30344W        W46818  15.615  16.722  12.683  0.0029 -0.0867 -0.2151
30345W        W46819   3.258   4.424  13.476 -0.1855  0.3238 -0.2957
30346W        W46820   4.025   9.302   3.902  0.2676  0.1652 -0.1396
30347W        W46821   3.163  12.744  12.658 -0.1656  0.3099  0.0830
30348W        W46822   1.305  15.350  13.532  0.0099 -0.0470 -0.4754
30349W        W46823  14.515  16.611   3.946 -0.1434  0.1593  0.0017
30350W        W46824   9.836   2.041  13.565 -0.1775  0.2332  0.0228
30351W        W46825  14.185  14.909  16.245 -0.2851  0.2981 -0.0153
30352W        W46826  16.522  11.942  14.625 -0.1210  0.1463 -0.1835
30353W        W46827  11.244  14.420  16.177  0.3875 -0.0453  0.3559
30354W        W46828  13.802  13.707  15.141  0.2517  0.2143  0.0128
30355W        W46829  16.674  16.277  16.099 -0.2273  0.1579 -0.0427
30356W        W46830   8.249   0.239  11.154  0.2077 -0.1219  0.0128
30357W        W46831  15.405  16.563  15.154  0.0692  0.0007 -0.1832
30358W        W46832   6.454   1.694  14.541 -0.0251 -0.0175 -0.2904
30359W        W46833   9.595   8.948   2.497  0.2573 -0.1019  0.2546
30360W        W46834   4.559  17.070   0.161 -0.0080  0.0956 -0.0619
30361W        W46835   4.811   3.274   0.668  0.0195  0.4990  0.0430
30362W        W46836  11.888  17.933   1.028  0.1834 -0.0170 -0.2580
30363W        W46837   4.823   2.341   3.405  0.2607  0.1773  0.0294
30364W        W46838  15.330   1.489  15.931 -0.3471  0.0611 -0.2034
30365W        W46839   2.745   6.240   3.858 -0.1695  0.0917  0.1239
30366W        W46840  11.110  17.781   2.315 -0.1092 -0.0251  0.1152
30367W        W46841  14.648  18.011   4.820  0.0727 -0.0197 -0.1342
30368W        W46842  17.468  13.289  12.140  0.2174  0.0819  0.2422
30369W        W46843   1.127  12.113  13.642  0.4366  0.3377  0.1437
30370W        W46844  11.085   0.010  14.815 -0.0476  0.1025  0.0296
30371W        W46845   4.945  17.956  13.098 -0.2593 -0.2149 -0.0088
30372W        W46846  10.905   6.714   4.271 -0.0128 -0.0489 -0.0894
30373W        W46847  14.020  15.950  16.241 -0.0452  0.1910  0.0403
30374W        W46848  12.883   7.729  12.635 -0.3806 -0.2598 -0.1463
30375W        W46849   9.560  11.579  15.277  0.3262  0.0994 -0.1736
30376W        W46850   1.085   9.265   3.770 -0.3027  0.3411 -0.0646
30377W        W46851   1.603  14.668   2.992 -0.0486 -0.1351 -0.3821
30378W        W46852   6.497  14.718  14.215  0.0987 -0.0396  0.1115
30379W        W46853   9.538   3.091   5.207 -0.0938 -0.1267  0.3454
30380W        W46854   9.047   3.263   1.098  0.1754  0.1992  0.1391
30381W        W46855  14.073   2.814   4.905 -0.0834 -0.1463  0.1193
30382W        W46856   3.974  17.760  12.896 -0.1175 -0.2128  0.2518
30383W        W46857   8.531   1.022  13.384  0.0416  0.2445 -0.1075
30384W        W46858  13.162   3.929   0.366  0.0279 -0.2667  0.0086
30385W        W46859   1.284   2.953   6.019  0.0278 -0.0355 -0.0667
30386W        W46860  13.323   1.347   1.447 -0.0368 -0.1264 -0.1053
30387W        W46861   2.594  13.993   2.274 -0.0089 -0.0486 -0.2147
30388W        W46862  18.280   1.162  14.998  0.0428  0.0958  0.0048
30389W        W46863   8.025  13.645   5.778  0.0373 -0.0873 -0.1578
30390W        W46864  16.148   1.243  15.562 -0.0838  0.0445  0.0265
30391W        W46865   5.591   1.050   0.636  0.3989 -0.3826  0.3181
30392W        W46866  12.303  15.391  12.311  0.0333  0.1043  0.1582
30393W        W46867  10.965  13.644   0.158 -0.0852 -0.0362 -0.0672
30394W        W46868   3.504  15.958  15.788 -0.0427 -0.0940 -0.0259
30395W        W46869  11.751   5.622  12.211 -0.0467 -0.2873  0.0236
30396W        W46870  11.784   8.851  14.897  0.3920 -0.2891  0.2322
30397W        W46871  10.086  15.741   3.941 -0.3055  0.5607 -0.1962
30398W        W46872   4.764  16.712   5.285 -0.0194  0.0282 -0.1284
30399W        W46873  17.789  15.918  11.116  0.0833 -0.1048  0.0798
30400W        W46874   1.590   8.595   5.018 -0.1578  0.0627  0.1856
30401W        W46875  16.639   0.075  13.910 -0.1556 -0.2348  0.1559
30402W        W46876   9.231  11.228  13.718  0.3223  0.4135  0.0781
30403W        W46877  13.487  18.048  12.352 -0.0001 -0.1851  0.1245
30404W        W46878  15.432  12.834  14.782 -0.0270 -0.0756  0.2665
30405W        W46879  14.118  16.566  15.116  0.0928  0.0876 -0.1000
30406W        W46880  16.919   7.413  11.766 -0.0757 -0.1734 -0.1476
30407W        W46881  16.221   7.743  15.012 -0.2127 -0.1128 -0.0521
30408W        W46882  11.955  13.538   2.769  0.0128 -0.1362 -0.3718
30409W        W46883  16.801  15.265  15.768  0.2436  0.0937 -0.0672
30410W        W46884   3.394  14.092  12.843 -0.0597 -0.1559 -0.3201
30411W        W46885   4.262   0.080   0.229 -0.1993 -0.0280  0.0927
30412W        W46886  11.025   4.172   0.624 -0.0764 -0.0138 -0.1114
30413W        W46887  15.477  15.783  12.232 -0.0008 -0.1093 -0.2000
30414W        W46888   4.235  16.730   2.248  0.2562  0.2822 -0.1415
30415W        W46889  11.987  11.438  15.753 -0.0365 -0.1008 -0.3817
30416W        W46890  16.071   4.041   0.621 -0.1084 -0.1822 -0.1920
30417W        W46891   7.947   4.041   1.120 -0.1924  0.2793 -0.1025
30418W        W46892  14.479   8.264   2.339 -0.3854 -0.0836  0.1788
30419W        W46893  13.023   3.370   3.239  0.2121 -0.2151 -0.2634
30420W        W46894  10.759   5.257   3.446  0.0307  0.0282  0.3659
30421W        W46895  10.460   6.853   0.412  0.3431 -0.4277 -0.0597
30422W        W46896   0.241   8.503  12.540 -0.0719  0.2834  0.0883
30423W        W46897   7.359   8.589  16.141  0.0190 -0.0234 -0.2526
30424W        W46898  14.836  13.675  13.070 -0.2822 -0.3488 -0.0621
30425W        W46899  17.452  15.636  12.835 -0.0474  0.2515  0.1003
30426W        W46900  15.579   8.269  15.381  0.2529  0.0102  0.1276
30427W        W46901  16.830   8.141   1.924 -0.0877 -0.0224  0.3737
30428W        W46902  15.546  11.125  14.424 -0.1490 -0.0357 -0.1138
30429W        W46903   4.635  16.545   0.990  0.0767  0.1913  0.1566
30430W        W46904   6.542  11.106   5.164 -0.0262 -0.0378 -0.2851
30431W        W46905  17.546   0.554   4.543  0.1285 -0.0220  0.0942
30432W        W46906   2.831  10.594  11.962 -0.0605  0.0835 -0.0311
30433W        W46907   9.362   4.086   3.480 -0.0571 -0.3478  0.2302
30434W        W46908  10.858   6.699  14.631 -0.0093  0.2720  0.0098
30435W        W46909   1.809  10.312   3.127  0.1780  0.0645 -0.0386
30436W        W46910  14.946  14.458   4.071  0.0681  0.1343  0.2031
30437W        W46911   9.449   5.094   5.583  0.0012  0.2081 -0.1992
30438W        W46912  17.959   1.773   5.022  0.0399 -0.1920 -0.3948
30439W        W46913  10.969  13.724  15.611  0.3270  0.1737 -0.1568
30440W        W46914  11.133   0.510   4.420 -0.0931 -0.0157  0.1651
30441W        W46915   6.432   9.597  14.133 -0.1617 -0.1360  0.2447
30442W        W46916  17.641  14.446  12.002 -0.2698  0.1455 -0.1675
30443W        W46917  11.105  11.255   5.205  0.0308 -0.0433  0.3027
30444W        W46918   6.256   0.681  14.333  0.0085  0.2640  0.0185
30445W        W46919   1.173   1.834   4.206 -0.0836  0.0098 -0.4714
30446W        W46920   6.479   5.910  12.160  0.2782  0.1934 -0.2110
30447W        W46921  14.288  10.644   2.674 -0.3930  0.0835 -0.0528
30448W        W46922  15.711   8.307   6.074 -0.2437  0.0409 -0.0961
30449W        W46923  15.976  17.528   0.335  0.2185 -0.0881  0.1046
30450W        W46924  11.436   0.240   5.212  0.0079 -0.0922  0.2022
30451W        W46925  11.512   8.748  15.567 -0.2361  0.1378 -0.3172
30452W        W46926   6.756  13.949  12.911  0.0348 -0.1604  0.3692
30453W        W46927   6.496   8.423   0.933  0.0257 -0.1588 -0.0372
30454W        W46928  15.054   9.037   5.523 -0.0260 -0.0871 -0.0774
30455W        W46929  15.401   6.147   1.191  0.1047 -0.0856 -0.3083
30456W        W46930  14.182   4.683   2.039  0.1084  0.1807 -0.2326
30457W        W46931  17.441  17.751  14.860  0.0861  0.2522  0.2411
30458W        W46932  14.163   3.809  11.541  0.0248 -0.2555 -0.1180
30459W        W46933   9.687   7.398  15.005 -0.2149 -0.3622  0.0483
30460W        W46934   3.853   8.324  12.903  0.1898  0.0400  0.0401
30461W        W46935  12.639  10.203   0.615 -0.1593  0.1411  0.2135
30462W        W46936   4.476  14.857  13.231  0.0267 -0.0639  0.1122
30463W        W46937  11.037   4.712  14.298  0.2867 -0.0560  0.0740
30464W        W46938  13.643  12.825   3.874 -0.0417  0.2382  0.0072
30465W        W46939   4.267  13.219   0.954 -0.2389  0.1660 -0.1074
30466W        W46940   6.303   0.375   4.038 -0.2144 -0.2881  0.3563
30467W        W46941   0.404   3.712  11.148  0.0438 -0.1210  0.1453
30468W        W46942   3.066  14.749  15.315  0.1849 -0.0096 -0.2749
30469W        W46943  15.486   1.147  13.164 -0.1832  0.1285  0.1730
30470W        W46944  11.720  11.884   5.585 -0.0556  0.0336  0.0981
30471W        W46945   3.092   1.820  15.941 -0.4181  0.2653  0.1704
30472W        W46946   2.031   4.067  16.189 -0.0320  0.1332 -0.1798
30473W        W46947  10.646  14.220   2.166  0.0235 -0.2344 -0.2109
30474W        W46948   1.989   6.404   1.899 -0.1658  0.1075 -0.3969
30475W        W46949   0.547  11.195  14.359 -0.2415 -0.1127 -0.0886
30476W        W46950   7.777   4.752  11.109 -0.2937  0.1069  0.1859
30477W        W46951   2.639   6.455  13.574 -0.0961 -0.2122 -0.0646
30478W        W46952   7.338   8.655  12.986 -0.0944 -0.1018 -0.0407
30479W        W46953   4.055   0.645   2.622  0.2270 -0.1477 -0.0658
30480W        W46954  10.980   9.545   4.919 -0.4520 -0.1798  0.1003
30481W        W46955   7.892   0.418   1.149 -0.1500  0.2029  0.1561
30482W        W46956   4.555  16.349  12.400 -0.0704 -0.0803 -0.0136
30483W        W46957   4.484  11.946  16.227  0.4350  0.0080  0.3758
30484W        W46958   5.075   0.150  13.039 -0.1513 -0.1706  0.0345
30485W        W46959  10.404  17.476   4.053  0.3700  0.4365  0.0496
30486W        W46960   6.602  17.025   0.607  0.1759  0.1009 -0.1221
30487W        W46961   9.442   7.819   4.257 -0.2503  0.0790  0.0888
30488W        W46962  12.138   5.875  15.151  0.1293 -0.0602  0.0908
30489W        W46963   1.116   4.744  13.740 -0.1335 -0.5890  0.0970
30490W        W46964  11.526  13.970   3.638  0.0410  0.1877  0.0194
30491W        W46965   3.823   7.395   1.051  0.3039 -0.1124  0.1009
30492W        W46966  17.424   5.153   4.719 -0.0067 -0.2299 -0.0625
30493W        W46967  10.568   9.939   4.733 -0.1856 -0.2655  0.0190
30494W        W46968   4.115  15.907   2.676 -0.0074  0.0192 -0.0411
30495W        W46969   7.796   0.301   2.344  0.0515 -0.1967 -0.3584
30496W        W46970   0.189   3.731  12.093  0.1939  0.0532 -0.2399
30497W        W46971  11.116  14.152   2.593  0.2775 -0.5233 -0.2659
30498W        W46972   2.530  12.364   3.137  0.0639 -0.2875 -0.0246
30499W        W46973   3.167  11.034   4.707  0.0140  0.1893 -0.1724
30500W        W46974   2.853  17.082  13.468  0.0328  0.2096  0.0526
30501W        W46975   6.022  16.047   3.720 -0.1274 -0.0280  0.2262
30502W        W46976   3.639   7.020  13.067 -0.4786 -0.1709  0.1058
30503W        W46977   1.146  13.021   4.566 -0.0498 -0.1377  0.3074
30504W        W46978  13.957   8.141  12.087  0.1621 -0.1786 -0.4207
30505W        W46979  16.791  14.224   4.070 -0.0426  0.4321 -0.2809
30506W        W46980  16.220   0.983  14.018  0.1627 -0.3037 -0.1716
30507W        W46981   4.986  14.230  14.884 -0.2091 -0.1697 -0.1697
30508W        W46982   3.937   6.985   3.250 -0.0232  0.0883  0.1545
30509W        W46983  12.544  12.080  12.181  0.0025  0.2867 -0.0704
30510W        W46984  11.508   8.877  16.087 -0.0082 -0.1339  0.2233
30511W        W46985  12.021   8.594   1.057  0.0651  0.1032 -0.0432
30512W        W46986   6.686   7.379  12.077 -0.2047 -0.1609  0.1203
30513W        W46987   2.709  12.514   3.922 -0.0759  0.2218 -0.0839
30514W        W46988  12.272  16.893   3.321 -0.2086  0.0469 -0.2207
30515W        W46989  16.379   9.041  12.089 -0.0109  0.0292  0.1165
30516W        W46990   3.148   0.503   1.180 -0.2343  0.0931 -0.4553
30517W        W46991   3.638   0.064  14.548  0.1811 -0.0930  0.2003
30518W        W46992   5.973  13.299  14.496  0.0017  0.2061 -0.2519
30519W        W46993   4.544   1.058   5.691 -0.2573  0.2568 -0.0611
30520W        W46994   4.531   8.740  12.258  0.2631 -0.2084  0.3353
30521W        W46995  15.790   0.399   4.074 -0.0022 -0.3187 -0.3145
30522W        W46996   6.541   2.288  12.994  0.1424  0.1256 -0.0316
30523W        W46997  15.106  12.523  15.023  0.1651  0.1264  0.2511
30524W        W46998   1.822   0.169  12.762  0.1906 -0.1079 -0.3130
30525W        W46999   6.964   3.286   4.474  0.1110  0.2082 -0.1029
30526W        W47000  14.169   5.805   3.101 -0.2301 -0.0358 -0.4657
30527W        W47001   4.264  13.614   1.292 -0.0154  0.0137 -0.1506
30528W        W47002  17.949  13.597   4.580 -0.2105  0.5388  0.2932
30529W        W47003  13.919  18.264   5.454 -0.0283 -0.0699 -0.0879
30530W        W47004  10.407  13.653  15.532 -0.1571  0.0113  0.2876
30531W        W47005   5.286  17.669  12.210  0.1207 -0.1013 -0.2120
30532W        W47006   1.463   9.396  14.606  0.0961 -0.0291  0.3491
30533W        W47007   7.297  14.673  16.326  0.0248 -0.0937  0.0748
30534W        W47008  15.417   8.406  12.617  0.1208 -0.0400  0.1184
30535W        W47009   0.020   6.879  14.118  0.0173 -0.2870  0.1317
30536W        W47010   6.224   1.928   1.684 -0.0592  0.3433 -0.0852
30537W        W47011   5.183   5.044  14.016  0.2206 -0.0122 -0.0448
30538W        W47012   7.061  10.577   4.566 -0.0142 -0.0516 -0.1981
30539W        W47013   6.748  18.317  13.988 -0.2826  0.3135  0.1233
30540W        W47014   4.895   7.146  13.709 -0.0366  0.0004  0.1672
30541W        W47015  13.182  16.593   4.151 -0.0956 -0.0563 -0.0763
30542W        W47016   3.424   1.548  13.817  0.0912 -0.1214 -0.1686
30543W        W47017  17.096  16.321   2.164 -0.0040 -0.0942 -0.0619
30544W        W47018   7.877   6.326   0.134 -0.0251  0.2428 -0.0429
30545W        W47019   1.923  10.452   1.388  0.0013 -0.0127 -0.2333
30546W        W47020   4.208  15.460  11.323 -0.0433  0.1649 -0.1151
30547W        W47021   3.886   3.829   3.156 -0.0796  0.5110 -0.2597
30548W        W47022   8.997   5.005  13.149 -0.1605  0.1183  0.2087
30549W        W47023   0.156  15.748   3.188 -0.1337 -0.1210  0.0878
30550W        W47024   5.774   5.681   0.523  0.0837  0.2201  0.0562
30551W        W47025  16.553  13.219   1.774 -0.1193  0.1052 -0.0823
30552W        W47026  12.344   7.773   3.925 -0.4414 -0.2712 -0.0378
30553W        W47027  17.318   9.808  14.563  0.2619 -0.2041 -0.0258
30554W        W47028   7.427   2.656  10.882  0.0318 -0.3032 -0.2543
30555W        W47029  18.044   8.814   3.113 -0.2706  0.0095 -0.1471
30556W        W47030   1.297   8.095  12.712 -0.2445 -0.2723  0.1551
30557W        W47031  14.352  10.271  15.889  0.3490  0.0786  0.1385
30558W        W47032  12.208  12.317  11.376  0.1091  0.0851 -0.3249
30559W        W47033  17.445   0.749  16.131 -0.1104  0.0792  0.1680
30560W        W47034   6.910  15.098   2.694  0.2188  0.2735  0.1605
30561W        W47035   7.072  11.429  13.671  0.0176  0.1606 -0.2543
30562W        W47036  11.882   6.981   3.542 -0.2038  0.4044 -0.0868
30563W        W47037  10.867  12.480   1.858 -0.5714 -0.1556  0.0733
30564W        W47038  11.710  12.317   4.248 -0.2349 -0.1523  0.1278
30565W        W47039  18.183   3.347  15.310 -0.1682 -0.0685  0.0167
30566W        W47040   2.243  17.926   3.364  0.0143 -0.1134 -0.0423
30567W        W47041  15.198  12.698  12.610  0.2869 -0.1001  0.1504
30568W        W47042  14.418  17.193  11.810  0.4492  0.0069 -0.4790
30569W        W47043   5.423   1.122   2.674 -0.0835 -0.2474  0.3467
30570W        W47044  15.851   0.324  13.568  0.0938 -0.1981  0.3392
30571W        W47045  10.207  13.633  14.542 -0.0962  0.0782  0.1870
30572W        W47046   3.000  13.500  12.154 -0.0004  0.2288 -0.1182
30573W        W47047   3.927   9.011   1.558 -0.2903 -0.1055 -0.4098
30574W        W47048   1.326  15.832   2.419 -0.0361 -0.0543 -0.1241
30575W        W47049   6.629  10.502  15.163  0.4651  0.0243  0.1087
30576W        W47050  12.116  11.079  16.244  0.1394  0.0792  0.2345
30577W        W47051   4.380  18.159  15.759  0.0573  0.0880  0.1822
30578W        W47052   5.836  14.742  13.031 -0.0110  0.2322 -0.4154
30579W        W47053   0.917  11.666  11.077 -0.0791 -0.1993  0.2319
30580W        W47054  16.675  13.225   4.161  0.0371  0.2533 -0.3286
30581W        W47055  11.979  17.683  12.334  0.1797  0.2723 -0.2297
30582W        W47056  15.562  18.165  11.576  0.2744 -0.1133  0.0164
30583W        W47057   5.644  10.083  15.673  0.3571 -0.2409 -0.1601
30584W        W47058  14.934   2.425   5.290  0.2753  0.1469 -0.0472
30585W        W47059   3.282   9.802  11.849 -0.3520 -0.2267  0.1428
30586W        W47060   4.311   1.000  11.026 -0.1000  0.2833 -0.2152
30587W        W47061   9.933  16.587  14.386  0.1494  0.2904 -0.2056
30588W        W47062   0.344   7.612   1.064  0.2578  0.2087  0.3254
30589W        W47063  15.500  14.735  15.495  0.0594  0.2097  0.0021
30590W        W47064  12.063   4.890  11.455 -0.0968  0.3341  0.1639
30591W        W47065  14.913   1.429   0.655 -0.0067 -0.0299 -0.0092
30592W        W47066   7.609   4.204   0.730 -0.2424 -0.0449  0.0989
30593W        W47067   0.351   7.389   5.475 -0.0376 -0.0092  0.2898
30594W        W47068   3.828  13.301  12.533  0.1196  0.2070 -0.0925
30595W        W47069   6.656   9.206  14.885 -0.1222 -0.0903 -0.0304
30596W        W47070  11.973  14.147  13.736 -0.1797  0.0530 -0.2078
30597W        W47071  13.494   8.844  13.689 -0.1736  0.1136  0.1303
30598W        W47072   1.794  11.537   2.236  0.0793  0.0604 -0.0316
30599W        W47073   4.680   4.859  15.909 -0.3110 -0.2702 -0.2413
30600W        W47074   2.333   1.240  15.793 -0.3974 -0.0825  0.0771
30601W        W47075  15.926   2.845   3.014  0.1052 -0.1668  0.0403
30602W        W47076   2.562   1.860   1.965  0.0445 -0.0791  0.0284
30603W        W47077  11.205   9.839   4.106  0.2868 -0.0008  0.0966
30604W        W47078   6.740  17.678   3.246  0.3488  0.0604  0.3375
30605W        W47079   0.295   3.097   2.999  0.1981  0.1020 -0.1039
30606W        W47080   2.482   9.134   1.512  0.2278 -0.2173 -0.0945
30607W        W47081  10.731  17.074   0.990 -0.1356  0.0668 -0.1493
30608W        W47082   0.065  13.683   4.809  0.0672 -0.0745  0.0541
30609W        W47083  15.105  12.431  14.224  0.1227 -0.2135 -0.0848
30610W        W47084   7.195   3.233   3.556  0.1329 -0.1462  0.0284
30611W        W47085   4.075   2.702   3.052  0.1635  0.1128  0.0143
30612W        W47086   8.330  15.237   6.373 -0.0509 -0.1566  0.1233
30613W        W47087  17.306   3.650   1.357 -0.0087 -0.1171 -0.0121
30614W        W47088  16.510   7.954  14.143 -0.0125  0.1395 -0.1360
30615W        W47089  11.575   2.367  15.686 -0.2439  0.0610 -0.1975
30616W        W47090   2.146   1.226  11.058 -0.2617 -0.0910  0.0322
30617W        W47091   6.531   4.541   2.400 -0.1600  0.2778  0.3252
30618W        W47092   4.387  17.804   0.805 -0.0003  0.2924  0.0734
30619W        W47093  18.009   8.070  13.507  0.0215  0.4032 -0.1953
30620W        W47094   4.612   6.282   1.112 -0.0567  0.0998  0.2558
30621W        W47095  13.059  15.536   3.443 -0.0156 -0.0100  0.1953
30622W        W47096  10.700   0.883   5.938  0.0798  0.1924 -0.0001
30623W        W47097   5.288  12.267   0.359  0.3713 -0.1836 -0.1971
30624W        W47098   3.410   7.644   1.194 -0.1449 -0.1296  0.1847
30625W        W47099   9.600   1.023   0.942 -0.2206 -0.0930  0.2029
30626W        W47100  14.102  14.716   0.737  0.2409 -0.2728  0.1137
30627W        W47101   0.719   7.609   2.811  0.4660  0.1774  0.1977
30628W        W47102   5.314  11.741  13.590 -0.2195  0.0095  0.3797
30629W        W47103   5.634   3.824   2.636 -0.0125  0.2836 -0.0261
30630W        W47104  10.894  12.447   4.049 -0.3436 -0.0832  0.2363
30631W        W47105  15.637   6.521   3.188 -0.1102 -0.0320  0.1949
30632W        W47106  10.050   7.012   0.795 -0.0825  0.3943  0.2591
30633W        W47107   9.725   4.886  15.932 -0.1287 -0.1234  0.0810
30634W        W47108  15.897  11.039  15.390 -0.0000  0.2202  0.1666
30635W        W47109   6.051  18.325   2.910 -0.2967 -0.0427 -0.2127
30636W        W47110  10.297  11.727   2.270  0.2372  0.0997  0.0025
30637W        W47111  16.043   6.244  15.385 -0.2284 -0.2248  0.4438
30638W        W47112   5.949   8.637   2.875  0.0909  0.0558  0.0086
30639W        W47113   9.646   1.544   4.425 -0.4703 -0.1603 -0.2057
30640W        W47114   0.479   1.352   0.322  0.1737 -0.0902 -0.3887
30641W        W47115   3.895  17.244   3.367 -0.1320  0.3126 -0.1055
30642W        W47116   0.414   8.712   3.525  0.1616 -0.1666 -0.2776
30643W        W47117   8.189  14.370   1.587  0.1610  0.2674  0.0840
30644W        W47118   3.558  10.412  12.724  0.1242  0.0434  0.0061
30645W        W47119   0.662  12.424  11.501  0.2404 -0.2054 -0.0068
30646W        W47120   5.439   4.153   1.203  0.2547 -0.0046  0.0587
30647W        W47121  16.669  10.331   3.883 -0.3850 -0.0284  0.2147
30648W        W47122   5.585   3.160  12.769  0.3191  0.1698 -0.0023
30649W        W47123   1.809  11.636   3.327  0.0608  0.0992 -0.0626
30650W        W47124  16.131   1.519  14.318  0.0030  0.1424  0.1199
30651W        W47125  16.505  13.242  12.803 -0.0317  0.1516 -0.1591
30652W        W47126  14.905  15.201  12.441 -0.1485 -0.0538 -0.1208
30653W        W47127  15.475  14.958  15.950  0.1492 -0.0567 -0.3044
30654W        W47128   3.312  11.538   4.864 -0.1290  0.0398  0.0582
30655W        W47129   5.492  16.240   2.780  0.1252 -0.0199  0.0539
30656W        W47130  13.255   1.824   4.851 -0.1428 -0.0680  0.2169
30657W        W47131   6.563  13.964  14.913 -0.1150 -0.0347  0.1211
30658W        W47132   1.988  16.460  15.059 -0.1847 -0.1772 -0.0208
30659W        W47133   4.550   6.064  13.678  0.1459  0.0109  0.3075
30660W        W47134   1.211  17.538  15.093 -0.0754 -0.0037  0.3060
30661W        W47135  18.278  17.274   5.409 -0.1921  0.0717  0.3162
30662W        W47136   1.963  17.939  11.473  0.0629 -0.1328  0.1017
30663W        W47137   5.662   0.410   3.109 -0.2171 -0.2378 -0.1345
30664W        W47138  16.840   7.462   3.089  0.2172 -0.0582  0.1532
30665W        W47139   9.606   7.415   2.856 -0.2105  0.0933 -0.2382
30666W        W47140   3.235  12.063   3.445  0.2965 -0.2127 -0.0643
30667W        W47141  14.238   2.181  15.408  0.3232  0.1024 -0.1111
30668W        W47142  12.798   2.032   2.037 -0.1495 -0.0147  0.1884
30669W        W47143  10.525   7.467  15.458 -0.2237 -0.0474  0.3075
30670W        W47144   5.747  12.883  11.633 -0.4497  0.1256  0.3520
30671W        W47145   5.369  14.088  12.056 -0.0551  0.1973  0.2426
30672W        W47146  17.479  10.917  12.581 -0.3012  0.1222 -0.0812
30673W        W47147  18.202  16.200  12.045  0.1623  0.1312  0.1377
30674W        W47148   5.154   4.523  14.541  0.1369 -0.2497 -0.1906
30675W        W47149   0.548   9.911  15.470 -0.3706  0.2331  0.0678
30676W        W47150  17.923  16.866   2.721 -0.1405 -0.0666 -0.2284
30677W        W47151  14.481   6.499  13.560  0.0824  0.0991  0.0666
30678W        W47152   7.854   8.818  11.644  0.0589  0.3483  0.0896
30679W        W47153  14.748   7.385   2.940 -0.1381  0.1386 -0.1283
30680W        W47154  17.878  17.957   2.864 -0.1346 -0.1071 -0.0526
30681W        W47155  15.911   7.643  12.781  0.1257 -0.0296  0.0033
30682W        W47156  15.107   7.327  15.217 -0.1305 -0.0246 -0.2152
30683W        W47157  10.920  11.355  13.360  0.0913  0.0128  0.3195
30684W        W47158   4.137   8.602   1.379  0.0424  0.2391 -0.0354
30685W        W47159   8.958  12.899   4.828  0.1077  0.0988 -0.1168
30686W        W47160   3.315  15.070   4.186 -0.1607  0.1707 -0.0191
30687W        W47161   1.403   3.442   2.077 -0.2501 -0.3654  0.3360
30688W        W47162  17.150   4.914   5.108  0.3482 -0.1264  0.1157
30689W        W47163   9.806   9.721   2.452 -0.2269  0.0228  0.2413
30690W        W47164  11.840  14.087  15.411 -0.0300 -0.1511 -0.1768
30691W        W47165  15.695   0.792   4.966  0.1465  0.1551  0.1774
30692W        W47166  12.554   7.257   2.229 -0.0607 -0.0392  0.1495
30693W        W47167  14.464   1.982  12.658 -0.0624  0.2037  0.0787
30694W        W47168  14.536  14.719   4.954 -0.0485  0.0903  0.0980
30695W        W47169   9.967   5.680  12.810  0.1323  0.1722 -0.0780
30696W        W47170   8.453  11.470   2.872  0.0835 -0.2022  0.1099
30697W        W47171  17.845  14.798   0.243 -0.0118  0.0706 -0.0126
30698W        W47172  13.427  15.335  14.466  0.1287  0.0604 -0.3338
30699W        W47173   9.210  10.227  13.090  0.0629 -0.2532  0.4037
30700W        W47174   3.544  17.528   1.775 -0.1836 -0.4205  0.0020
30701W        W47175  12.537   8.732   3.832  0.4377  0.0057  0.2538
30702W        W47176  16.859  17.576   0.827  0.1109  0.1051  0.3595
30703W        W47177  12.502   1.546   5.111 -0.0682  0.3178 -0.0222
30704W        W47178  14.178   3.267  14.255 -0.2176 -0.1247  0.1707
30705W        W47179   6.105  15.796   4.146 -0.3394 -0.0493 -0.0720
30706W        W47180   8.281  12.815  15.872  0.1521  0.1478  0.1842
30707W        W47181   6.000  10.968  16.089 -0.2583 -0.0102 -0.4255
30708W        W47182   1.821  14.691  12.596 -0.1314  0.0310 -0.1285
30709W        W47183  17.945   5.739   3.204  0.0958 -0.1101  0.1094
30710W        W47184  12.796   7.169   2.732 -0.1350  0.2648  0.2553
30711W        W47185   1.829   0.194  12.192  0.5213 -0.0078  0.2912
30712W        W47186   6.535   1.798  15.816 -0.1012  0.1395 -0.1643
30713W        W47187  11.017  14.758   3.994  0.0357  0.1248  0.0903
30714W        W47188   4.256   0.853  14.802  0.1018 -0.2222  0.2674
30715W        W47189   1.543   4.599   2.710 -0.0917  0.0664 -0.1122
30716W        W47190   2.761   0.965  14.811 -0.1604  0.0730 -0.1718
30717W        W47191  12.351   6.665   5.753 -0.0757 -0.0249 -0.0787
30718W        W47192  10.736   7.853  15.771  0.1858 -0.1024  0.2375
30719W        W47193   2.759   0.977  13.269 -0.1288  0.2857  0.1204
30720W        W47194   2.797   7.439   2.302  0.0510  0.1297  0.1927
30721W        W47195   7.737  13.986  11.787  0.0093 -0.0074 -0.1906
30722W        W47196   3.798  15.519  14.205  0.2269  0.2008 -0.0846
30723W        W47197  10.337  15.828  16.133 -0.1645  0.0306 -0.3495
30724W        W47198   1.653  14.883  13.472  0.2329 -0.0876  0.2471
30725W        W47199  16.026  11.061   3.479  0.1575 -0.3178 -0.2751
30726W        W47200  10.647  13.011  13.039 -0.1199 -0.1442 -0.0790
30727W        W47201   9.138   8.004   2.333  0.0486  0.2387  0.0368
30728W        W47202   1.682   3.735   1.218  0.1047  0.1852 -0.2088
30729W        W47203   9.613   0.663  14.212  0.3009 -0.0908  0.3467
30730W        W47204   3.965  14.305   0.823  0.3098  0.0560 -0.1856
30731W        W47205  15.113  12.837  13.558  0.0983  0.0387  0.1665
30732W        W47206  15.500   8.460  13.790 -0.1952  0.2177 -0.2536
30733W        W47207   0.607  14.084  15.519  0.4690  0.1633 -0.3202
30734W        W47208   0.458   7.967  14.023 -0.4309 -0.0348 -0.1109
30735W        W47209  11.735  14.072   5.259  0.2216  0.0491 -0.2379
30736W        W47210   8.572   5.596   3.362  0.0810  0.1143 -0.0950
30737W        W47211  11.052   8.850  15.886  0.2453  0.1560  0.0585
30738W        W47212   0.406   8.663  15.347  0.1539 -0.0855  0.0389
30739W        W47213   4.722  14.601  11.645 -0.0680 -0.1418 -0.3102
30740W        W47214   8.592  15.279  11.972  0.0373 -0.0013  0.0360
30741W        W47215   1.828  14.727   0.859  0.0755  0.2009 -0.0107
30742W        W47216   9.784   5.088   1.975 -0.0144 -0.0026  0.4770
30743W        W47217   1.304   5.380  11.526 -0.1368 -0.1543 -0.0788
30744W        W47218   0.686  11.383  15.680 -0.0368 -0.1816 -0.0114
30745W        W47219  18.254  15.852   2.685  0.2485  0.1091 -0.2092
30746W        W47220  11.033   4.076  15.967 -0.2112  0.0998  0.1867
30747W        W47221  10.404   6.729  16.023 -0.0078  0.1000 -0.0958
30748W        W47222   2.679  17.759   3.694  0.3708 -0.1366 -0.0215
30749W        W47223  16.993   1.723   2.314  0.2622  0.2228 -0.1616
30750W        W47224   0.195   9.587  15.497 -0.1977 -0.0136 -0.1389
30751W        W47225  11.620  15.243  12.939 -0.1780  0.1319 -0.2499
30752W        W47226   3.164   9.354   2.725 -0.1457 -0.0279 -0.0431
30753W        W47227   8.415  10.646  12.321  0.2803 -0.2636  0.2033
30754W        W47228  10.501  10.962   3.172 -0.2614  0.2452 -0.1127
30755W        W47229  11.315  16.130   3.423 -0.0236  0.1265 -0.2774
30756W        W47230   3.406  18.134  15.535  0.1642  0.0457  0.2389
30757W        W47231   1.036   5.916   1.108  0.4804  0.0177  0.1355
30758W        W47232   7.493   9.993  14.760  0.2320 -0.1637  0.1243
30759W        W47233   9.288   3.891  15.537 -0.1881  0.1453 -0.2212
30760W        W47234   7.172  14.720   3.185  0.0027  0.0747  0.1414
30761W        W47235   1.376   5.014   5.143  0.0291 -0.0924  0.2178
30762W        W47236   1.122   4.538  13.259  0.0490  0.2644  0.1392
30763W        W47237  17.189  14.226  14.267  0.2168  0.1885 -0.1663
30764W        W47238   9.746   1.316   1.590 -0.2802 -0.1677  0.1946
30765W        W47239  14.670  15.007  16.299  0.2819  0.1231  0.1103
30766W        W47240   8.235   8.278   0.006 -0.1897  0.2684  0.2659
30767W        W47241   2.105   2.205  16.148  0.0451  0.0548 -0.1693
30768W        W47242  16.618  14.644  13.623 -0.2862  0.1291  0.1420
30769W        W47243   3.569   3.398   1.674 -0.0889 -0.1552 -0.0879
30770W        W47244  13.143  14.932  14.718  0.0195 -0.1533  0.5116
30771W        W47245   7.500  10.273   4.904  0.0555 -0.0520  0.0382
30772W        W47246   2.545  13.569   4.834  0.0230 -0.0074  0.2003
30773W        W47247  13.806   0.583   1.271 -0.1936  0.1524 -0.3075
30774W        W47248   7.082  11.966  11.952 -0.2232 -0.1677 -0.1192
30775W        W47249   5.201   2.120   4.060  0.0207  0.0077 -0.0269
30776W        W47250   0.732  17.353  13.943  0.0512  0.1515 -0.1008
30777W        W47251   0.214  16.369   3.416  0.0211  0.2238  0.0422
30778W        W47252   2.919   1.616   5.086 -0.2975 -0.0424  0.1541
30779W        W47253  10.900  13.410   3.126  0.1393  0.0079  0.0447
30780W        W47254  12.257  17.489   4.021  0.0573 -0.0144 -0.0464
30781W        W47255   8.950   4.591   3.583  0.1829 -0.0616 -0.0545
30782W        W47256   4.307  15.566   3.916  0.0628 -0.1155  0.1943
30783W        W47257   1.485  13.262   0.187  0.0460  0.2186 -0.1466
30784W        W47258   2.577  10.018  14.749 -0.0494 -0.1964  0.0330
30785W        W47259   0.402   2.761  15.951 -0.0046 -0.2239 -0.0425
30786W        W47260   1.409   2.707  14.366  0.1444  0.3049  0.0902
30787W        W47261   8.459  13.330   2.530  0.0708  0.1148  0.1209
30788W        W47262   5.715  16.330   5.181 -0.0825  0.1874 -0.1784
30789W        W47263   3.899  12.057   0.501 -0.1273  0.2696 -0.0186
30790W        W47264  12.361   4.107  12.486 -0.1595 -0.1333  0.0406
30791W        W47265   1.582   2.692   3.357  0.1618 -0.0091  0.0575
30792W        W47266  11.718   3.222  11.363  0.0932  0.0853 -0.1411
30793W        W47267  10.727   0.274   3.560 -0.0495  0.0243  0.2911
30794W        W47268  11.999  16.757   2.429  0.4495  0.2307  0.0869
30795W        W47269  14.211  15.685   1.702  0.0625  0.1914  0.0619
30796W        W47270  10.436  12.402   0.761  0.0320 -0.1141 -0.0649
30797W        W47271   4.366   3.577   2.973  0.0963  0.1473  0.4161
30798W        W47272   0.363  17.388  14.486 -0.1802  0.1363  0.1934
30799W        W47273   2.439   5.048   3.745 -0.2391 -0.1729 -0.1005
30800W        W47274  11.344  16.931   5.410  0.0575  0.1580 -0.1683
30801W        W47275  13.269   0.069   4.871  0.1778 -0.0341  0.0314
30802W        W47276   5.620   1.505   0.864 -0.3211 -0.0518 -0.3946
30803W        W47277   9.257  14.013  12.935  0.1613 -0.4509  0.0465
30804W        W47278  15.339   3.151  11.026  0.3097 -0.1010 -0.0515
30805W        W47279  13.456  14.366   4.153 -0.0184  0.0243 -0.3050
30806W        W47280   1.793   9.608  14.206  0.1773 -0.2380  0.0008
30807W        W47281   4.859   2.380   2.296  0.0299  0.1348 -0.2866
30808W        W47282  10.107  14.160  14.612  0.0961  0.2001 -0.0475
30809W        W47283   7.719   8.086   5.665  0.0783 -0.5004 -0.2090
30810W        W47284   5.589  17.691   1.616 -0.1532 -0.0100 -0.3099
30811W        W47285   1.405   5.682   1.294  0.0333  0.0539 -0.0103
30812W        W47286  14.246  10.989  11.375 -0.6568  0.0003 -0.1068
30813W        W47287   9.462   7.812  12.533  0.1201 -0.0185  0.2109
30814W        W47288   7.921  17.128   0.671 -0.1130  0.3480 -0.3042
30815W        W47289   9.748  13.785  14.753 -0.0176  0.0483 -0.1378
30816W        W47290  12.872   5.870  14.574 -0.2788 -0.1235 -0.0276
30817W        W47291  11.662   2.477  11.551  0.1421 -0.0031  0.1186
30818W        W47292   4.816  17.520   3.702  0.1582 -0.2123  0.0807
30819W        W47293   0.097   0.785   1.874  0.2480  0.6025  0.2762
30820W        W47294  12.657  12.214  16.120 -0.1593  0.0166 -0.0153
30821W        W47295  11.686  14.242  16.222 -0.0703  0.0174  0.1815
30822W        W47296   7.227   1.586  15.159  0.2144 -0.0697  0.2050
30823W        W47297   1.274  11.772  11.897 -0.0962  0.1887  0.0287
30824W        W47298   3.671  10.067  14.910  0.2885 -0.1213 -0.3333
30825W        W47299  14.638  17.879  15.261  0.1008 -0.1583  0.1246
30826W        W47300  16.541   2.021   4.199 -0.1189  0.0560 -0.1145
30827W        W47301  17.422  10.692  15.628  0.0756 -0.1377 -0.0334
30828W        W47302  17.732  16.629   1.387 -0.0428 -0.2089 -0.1657
30829W        W47303   3.652   4.338   4.573  0.1271 -0.1060 -0.1884
30830W        W47304  17.747   1.955  14.736  0.2275  0.0226  0.0040
30831W        W47305  10.559  16.223  12.590  0.0384  0.2511 -0.2563
30832W        W47306   6.727   0.398   4.293  0.0068 -0.2584  0.0919
30833W        W47307   8.499  10.971  16.228 -0.0145  0.1213  0.1667
30834W        W47308   7.777  11.042  12.564 -0.2525 -0.1402  0.1521
30835W        W47309   2.840   8.976   2.976  0.0300  0.2637  0.1682
30836W        W47310   2.938  10.044  15.632 -0.1011 -0.0171  0.1255
30837W        W47311  12.349   4.216  11.978 -0.1795  0.2322  0.2222
30838W        W47312  16.356  12.820  13.047 -0.2393 -0.1391  0.2315
30839W        W47313   7.706   1.533  13.126 -0.2674 -0.1056  0.1940
30840W        W47314   1.751  15.854   4.886  0.2330 -0.2639 -0.0184
30841W        W47315   0.525   8.207   0.710 -0.2199 -0.1417  0.1693
30842W        W47316  14.248   4.250   4.613  0.1439 -0.1231  0.0367
30843W        W47317   1.341   3.353  13.666  0.2473  0.0352 -0.0660
30844W        W47318  16.702  14.869   2.316  0.0739 -0.0467 -0.2176
30845W        W47319   4.094   2.254  15.191  0.0141 -0.2641  0.0318
30846W        W47320  16.079  14.506  11.989 -0.0671  0.1771  0.0718
30847W        W47321   9.923   3.315  16.130 -0.0718 -0.0519  0.1613
30848W        W47322   4.140  14.145   4.125 -0.1958 -0.0798  0.1302
30849W        W47323   1.147   7.789  13.217  0.3908  0.0807  0.3208
30850W        W47324   0.392   0.733  15.940 -0.1014 -0.1236  0.1817
30851W        W47325  17.932   5.899  12.310  0.0222  0.2673  0.0239
30852W        W47326   3.472   2.334  11.581  0.0040  0.0765  0.0836
30853W        W47327   6.046   4.334   0.163  0.2263  0.0765 -0.3915
30854W        W47328  14.557   4.013   3.182 -0.3165 -0.1099  0.0519
30855W        W47329   0.235  15.293  15.238 -0.3128 -0.1416  0.3288
30856W        W47330   9.322  10.556   4.168 -0.0943 -0.0211 -0.4619
30857W        W47331   7.908   1.143  13.453  0.1783 -0.2553 -0.1267
30858W        W47332  10.375   7.960   4.998  0.0984  0.0723 -0.1568
30859W        W47333  15.730   9.557   1.967 -0.0679  0.1471  0.1435
30860W        W47334   8.723   1.660   9.814  0.0931 -0.1408 -0.1477
30861W        W47335  14.584   6.722   2.378 -0.2776 -0.3740 -0.1665
30862W        W47336  16.335   3.673  13.460  0.0585 -0.0096  0.3697
30863W        W47337   9.288  12.035   3.530 -0.1334 -0.1865 -0.2748
30864W        W47338   2.371   1.312  12.930 -0.5057  0.1106  0.0863
30865W        W47339   2.472  17.393   4.250 -0.3267 -0.2889  0.1415
30866W        W47340   0.668  17.301   2.006  0.0856 -0.2308  0.2037
30867W        W47341  14.000  12.438   0.823 -0.0800  0.0306 -0.0436
30868W        W47342  17.072  15.794   0.032 -0.3477 -0.0363 -0.0501
30869W        W47343  12.411  17.883   1.176  0.0619  0.0032  0.0920
30870W        W47344  15.479   9.846   1.597 -0.3250 -0.2067  0.1993
30871W        W47345   2.817   1.693   3.175 -0.0553 -0.0303  0.1032
30872W        W47346   4.607   5.302   3.802 -0.0110 -0.1851  0.3326
30873W        W47347   0.327   0.231   1.439 -0.2118 -0.3959  0.1825
30874W        W47348  13.809   2.728  11.801 -0.3683  0.1080 -0.1822
30875W        W47349  14.086   0.313   0.713  0.0014 -0.0877 -0.1517
30876W        W47350   2.477   3.907  15.869 -0.3115  0.0177  0.1811
30877W        W47351  14.774   3.962   0.917 -0.0625 -0.2334 -0.0990
30878W        W47352  13.415   9.918   5.197  0.1052 -0.2895 -0.0824
30879W        W47353  10.355  15.440   2.565 -0.0727 -0.0345 -0.0324
30880W        W47354   5.131   6.498   3.367  0.2935 -0.1574 -0.0657
30881W        W47355   3.353   4.152   3.226 -0.0276 -0.0193 -0.0377
30882W        W47356   5.261  17.125  14.332  0.0631  0.0368  0.0169
30883W        W47357   0.740   2.369   3.690 -0.2835  0.3982 -0.0820
30884W        W47358   8.113  10.362   1.747  0.0154 -0.1693 -0.1711
30885W        W47359  12.618   8.948   5.794 -0.0195  0.1768  0.2406
30886W        W47360   9.516  13.896  13.700 -0.1770  0.0891 -0.2770
30887W        W47361   1.450  17.111  12.764  0.1830 -0.1386  0.2055
30888W        W47362  12.783  11.582   0.418 -0.1588 -0.0764  0.1118
30889W        W47363   3.015   7.455   4.277 -0.1120 -0.2134  0.1569
30890W        W47364  10.255   6.862   2.612  0.1323  0.1350  0.2748
30891W        W47365  13.878  17.242   5.301 -0.2017 -0.1488  0.0672
30892W        W47366  16.731  17.163  12.225  0.0550  0.1059  0.1579
30893W        W47367  14.761   7.371  14.560  0.1078 -0.0747  0.0587
30894W        W47368  11.076   9.405  14.806 -0.0176 -0.0485 -0.1159
30895W        W47369   1.554   0.885   1.274  0.2472  0.2268 -0.1281
30896W        W47370  17.308  13.347  14.061 -0.0306  0.0707  0.0833
30897W        W47371   0.978  16.599  11.593  0.0424  0.0344  0.1921
30898W        W47372   8.254   5.666  11.718  0.1151  0.0323 -0.0579
30899W        W47373  11.204  14.122  15.333 -0.1511  0.0413  0.0310
30900W        W47374   4.832   5.625   1.709  0.5672  0.0959  0.0679
30901W        W47375   7.888   6.200  15.159 -0.2273 -0.4126 -0.1931
30902W        W47376  15.509  13.424  13.236 -0.2759 -0.0123 -0.0821
30903W        W47377  15.486   6.958  14.970  0.2371  0.3794 -0.1527
30904W        W47378   8.208  13.181  14.549  0.1548  0.1047 -0.0667
30905W        W47379   1.161   7.480  15.579 -0.1819  0.0335 -0.1094
30906W        W47380  12.649   6.144  16.023 -0.0047  0.1615  0.1924
30907W        W47381   9.762   2.320   2.229  0.0123  0.0460 -0.1601
30908W        W47382  11.017   7.437   1.744  0.1694  0.0949 -0.1356
30909W        W47383   3.570  13.670   4.991  0.0500 -0.2276 -0.1383
30910W        W47384   8.552   0.512  13.482 -0.3672 -0.0628  0.0588
30911W        W47385   7.549  13.740  14.871  0.1247  0.0333  0.3514
30912W        W47386   0.349   5.967  16.238  0.1498 -0.2396  0.0947
30913W        W47387   9.520   3.125  11.945 -0.1104 -0.2466 -0.0465
30914W        W47388  13.604   5.718   5.478  0.3625 -0.0324 -0.1573
30915W        W47389   2.408   9.514  11.365  0.1706  0.1237  0.3348
30916W        W47390  11.599  17.918   1.903 -0.0898 -0.1336  0.0417
30917W        W47391   6.840   0.107  16.166 -0.0939 -0.1873 -0.1290
30918W        W47392   8.182  10.582  11.793  0.4178  0.0430 -0.4069
30919W        W47393  12.422   0.238   3.049 -0.0932 -0.0890 -0.2435
30920W        W47394   0.596  10.929   0.723 -0.0142 -0.3060  0.0955
30921W        W47395   5.607   7.500   1.388 -0.0093  0.0329 -0.2259
30922W        W47396   3.028  12.445  13.129 -0.2438  0.0907  0.0046
30923W        W47397  12.931  17.134  15.037  0.0449  0.0607 -0.2081
30924W        W47398   1.336   8.396  12.124  0.2378  0.1326 -0.0243
30925W        W47399   2.367  17.302  13.506 -0.2349  0.0945 -0.1218
30926W        W47400  13.178   1.490  14.614  0.0310  0.1623 -0.1733
30927W        W47401   6.390   6.703   4.164 -0.0451  0.0669  0.2659
30928W        W47402  17.452   2.298   0.519  0.1329  0.1636  0.1709
30929W        W47403   2.835  16.993   4.700  0.4237 -0.4237  0.0585
30930W        W47404  16.360  15.203   5.379 -0.0895  0.1405 -0.2198
30931W        W47405  10.008  17.522   4.996 -0.0030  0.1044 -0.0895
30932W        W47406  17.750   9.817  14.725 -0.1100 -0.2621  0.2039
30933W        W47407   3.078  14.809   2.235 -0.0946  0.0331 -0.6067
30934W        W47408   9.647  11.472  13.607  0.2632 -0.0598 -0.3260
30935W        W47409  10.202   4.909   0.631 -0.0448  0.1164  0.1322
30936W        W47410  13.347   2.724   4.207 -0.1550  0.2725 -0.2606
30937W        W47411   2.582   2.592   1.247  0.2358  0.0965  0.0257
30938W        W47412   0.264   7.787   2.576 -0.1330 -0.0593  0.0020
30939W        W47413  15.083   1.559  12.976 -0.1642 -0.0327  0.0582
30940W        W47414   5.970  17.963  12.670  0.0023  0.2407 -0.1524
30941W        W47415   8.648   7.473   4.198  0.0751 -0.1349 -0.0547
30942W        W47416   7.104   4.779   5.682 -0.0861  0.0443  0.2464
30943W        W47417  11.950  16.946   1.165 -0.3742  0.0114  0.1501
30944W        W47418   6.481  16.828   3.933 -0.0150 -0.0910  0.0200
30945W        W47419   0.730   8.509   1.504  0.0623  0.0455  0.0770
30946W        W47420   8.078  12.652  13.713 -0.0960 -0.1279 -0.2285
30947W        W47421  13.636   1.179   2.571  0.2210 -0.1445  0.0999
30948W        W47422   8.798  18.099  15.006  0.0652  0.1932 -0.0498
30949W        W47423   2.571  10.157  12.009  0.2359 -0.1603 -0.0273
30950W        W47424  15.304   2.072   2.315 -0.2417 -0.0850 -0.1348
30951W        W47425  17.297   5.504   0.596  0.4270  0.0281 -0.1059
30952W        W47426   5.052  13.572  13.649  0.1725  0.2115  0.2055
30953W        W47427  16.308   9.372   0.185 -0.1951 -0.0651  0.5432
30954W        W47428   0.569   5.580  12.501  0.0314 -0.0722 -0.0610
30955W        W47429   2.346  14.022  11.286 -0.0999  0.1675  0.0444
30956W        W47430   4.586   9.148  14.646  0.2443  0.1120 -0.1020
30957W        W47431  16.041   2.963  11.050 -0.0476 -0.1121  0.1257
30958W        W47432   2.691  10.192   1.767  0.0957  0.0409  0.3108
30959W        W47433  13.163  11.403  12.605  0.2089 -0.0016  0.3245
30960W        W47434  10.852   0.223  16.178  0.2000  0.4147  0.0992
30961W        W47435   3.093  10.300  12.454  0.2985 -0.2546  0.0534
30962W        W47436  15.961   3.761   1.961 -0.3715 -0.1193 -0.2217
30963W        W47437   8.407   7.411   5.477 -0.2256  0.2184  0.3956
30964W        W47438  12.953   3.637   1.216 -0.2138 -0.2800 -0.0977
30965W        W47439   3.647  17.848  16.065  0.2668  0.0364  0.4645
30966W        W47440  13.133   1.305   0.742 -0.0771 -0.0063 -0.1964
30967W        W47441   5.011   4.335   1.430 -0.0573 -0.0707  0.1507
30968W        W47442   0.382  18.253   2.049 -0.1457  0.0621  0.0834
30969W        W47443  11.504  12.748  15.083 -0.1530 -0.2110  0.0675
30970W        W47444   0.286  17.205   0.680 -0.0164 -0.0983 -0.1454
30971W        W47445  15.690   3.428  14.386 -0.0113 -0.1793  0.0692
30972W        W47446  13.698   3.628  11.429 -0.0212  0.1666  0.0359
30973W        W47447  13.785   9.385  15.379 -0.0963  0.1727  0.2010
30974W        W47448  18.216  18.201   2.202  0.4321 -0.2312  0.0913
30975W        W47449   7.494   0.039  10.853 -0.0481 -0.2568  0.1552
30976W        W47450   7.911   0.428  14.666  0.2335  0.1185 -0.1841
30977W        W47451  15.647  15.533   6.080  0.0067 -0.0615 -0.1944
30978W        W47452  14.302  10.138   3.486 -0.1390  0.2049 -0.1017
30979W        W47453   6.842  16.067   2.341 -0.0032  0.0114  0.0505
30980W        W47454   5.615   3.627  11.695  0.2741 -0.3188  0.1525
30981W        W47455  16.824  10.760   2.723 -0.2078  0.0996  0.1220
30982W        W47456  11.627   7.554  15.976  0.0219  0.3279 -0.1954
30983W        W47457   9.501   7.102   3.682 -0.1326 -0.0530  0.0176
30984W        W47458  13.696  15.527   3.424 -0.1600  0.2131 -0.1377
30985W        W47459  10.761  13.769   2.481 -0.1098 -0.3389 -0.0346
30986W        W47460   7.199   6.422  15.632 -0.0205 -0.2915  0.0915
30987W        W47461   4.876   9.686   2.992  0.0812 -0.2701 -0.0482
30988W        W47462  14.865  14.489   1.329  0.0046 -0.0472 -0.0642
30989W        W47463   4.202  13.606   5.390  0.2566 -0.0830  0.1743
30990W        W47464  11.266  13.934   4.462 -0.1256  0.1331 -0.0517
30991W        W47465  11.947   8.031   0.860  0.2143  0.2121  0.0393
30992W        W47466   8.798   5.031  15.190  0.0551  0.1137  0.1786
30993W        W47467   0.789  10.172   5.294 -0.1778 -0.1084 -0.1457
30994W        W47468  12.856  14.998   5.223 -0.1774 -0.0738 -0.2323
30995W        W47469  10.128   1.641  13.569  0.4364  0.0349  0.1437
30996W        W47470   8.875   4.154   3.364  0.1328 -0.1081  0.1283
30997W        W47471   9.773   2.820   1.119 -0.0385 -0.0299  0.0422
30998W        W47472  17.838  16.340  11.533 -0.2045  0.0146 -0.3023
30999W        W47473   8.091  12.520  13.096 -0.0237 -0.2471  0.1433
31000W        W47474   1.235  17.127   5.390  0.2446  0.0476 -0.1170
31001W        W47475  13.042  15.628  11.386  0.0779  0.1112  0.1180
31002W        W47476   8.882   3.127  14.520  0.2077  0.1119 -0.1230
31003W        W47477  11.955  13.824  12.612  0.4107  0.0896  0.0002
31004W        W47478  11.132   0.244  14.373  0.1229  0.0943  0.0929
31005W        W47479  13.628   9.211   1.643 -0.1386  0.2045 -0.3005
31006W        W47480   1.363   1.252   2.394  0.1030 -0.2206  0.0913
31007W        W47481   4.777  10.772  12.751 -0.1502  0.1093 -0.1205
31008W        W47482   1.190   3.842   3.928 -0.2791  0.0995  0.1942
31009W        W47483   0.591   0.731   1.589 -0.1030 -0.1503  0.3687
31010W        W47484   9.218   5.036   4.442  0.1074 -0.3159 -0.1399
31011W        W47485  10.677  17.598   5.084 -0.1204  0.0831 -0.2565
31012W        W47486   6.044   6.234   4.161  0.2937 -0.1106  0.3220
31013W        W47487  16.714   8.682  12.510 -0.1020  0.2200 -0.1261
31014W        W47488  15.992  13.433   2.871  0.3009 -0.1559  0.2026
31015W        W47489   4.854  16.707  12.174  0.2295 -0.0183 -0.2238
31016W        W47490   9.094   8.968   1.229  0.2278  0.0411  0.0247
31017W        W47491  13.525   0.288   0.412 -0.1782 -0.0268 -0.1603
31018W        W47492   9.247  16.275   4.061 -0.2191 -0.1726 -0.1838
31019W        W47493   3.725  11.671   2.584  0.0124 -0.5769  0.1304
31020W        W47494   8.406  15.522   4.421  0.1927  0.1856  0.1918
31021W        W47495   8.581  15.991  12.657  0.1891  0.0201  0.1084
31022W        W47496   0.193   7.508  12.111 -0.1154 -0.1672  0.0446
31023W        W47497  17.342  13.343   5.580 -0.1787 -0.1845  0.3832
31024W        W47498  10.530  17.648   2.209 -0.1517  0.1562  0.0715
31025W        W47499  11.354  14.042  12.482  0.2183 -0.3210 -0.1686
31026W        W47500   8.468  10.041  14.867  0.0838  0.1690 -0.1057
31027W        W47501   1.594  17.199  13.843 -0.2102 -0.3416 -0.2013
31028W        W47502   9.207   2.627   3.967  0.1718  0.0845 -0.1333
31029W        W47503   1.097   7.900   2.820  0.1594 -0.0512  0.1713
31030W        W47504  14.564   7.328   5.419  0.2657  0.3614  0.1968
31031W        W47505   1.537   4.222  11.609  0.0574 -0.2242  0.2678
31032W        W47506  12.133   5.942  10.302  0.0343  0.0153 -0.0313
31033W        W47507   6.966  18.065  13.515 -0.1239  0.2411 -0.1887
31034W        W47508   9.735   3.090   2.659 -0.1345  0.2102 -0.1635
31035W        W47509   7.390  12.283  16.270  0.1267 -0.1839 -0.0094
31036W        W47510   6.390   2.175  12.536  0.0777  0.0138 -0.1087
31037W        W47511   9.188  16.094  12.029  0.0305  0.0528  0.1987
31038W        W47512   4.600   7.541   4.989  0.1383 -0.0769 -0.2241
31039W        W47513  18.317  12.072  11.086  0.0667  0.0692  0.0295
31040W        W47514  15.418  16.519  15.863  0.1423 -0.2010 -0.0854
31041W        W47515   0.638   5.319   1.609 -0.1725  0.1184 -0.0721
31042W        W47516  13.202  16.809  12.194 -0.0911 -0.5274 -0.1750
31043W        W47517   6.176  15.098  13.976  0.0341 -0.1035 -0.2047
31044W        W47518  16.347  10.885   2.448  0.0155 -0.2530  0.2491
31045W        W47519  13.308  18.076  12.803 -0.0788  0.2798 -0.2635
31046W        W47520   8.559   9.225   1.166 -0.0846 -0.0951 -0.1751
31047W        W47521   5.578  15.434   3.025  0.1409  0.0984 -0.0369
31048W        W47522   6.112  16.589   5.024  0.3462  0.5169  0.3451
31049W        W47523   0.885   4.222   4.089 -0.0239 -0.2002  0.1605
31050W        W47524   8.085  14.556   4.398  0.0649  0.3075  0.1808
31051W        W47525  14.031   5.554   1.405 -0.1384 -0.3393 -0.0925
31052W        W47526   2.008  11.562   0.084 -0.0120  0.1976 -0.1553
31053W        W47527   7.026   9.518   6.673 -0.1977 -0.1487 -0.0772
31054W        W47528   3.724   2.742   0.479  0.0766  0.0805 -0.0875
31055W        W47529   9.121   9.276  15.906  0.0929 -0.0175  0.0397
31056W        W47530   9.714  17.647  15.080  0.0330 -0.0963 -0.2754
31057W        W47531  16.615   8.806   2.762 -0.0707  0.1395  0.1440
31058W        W47532   0.648  16.922  14.612 -0.1417  0.0111  0.2622
31059W        W47533  12.561   1.755  16.295  0.3933 -0.1340  0.0206
31060W        W47534   4.512  11.166  12.083  0.0357  0.2113  0.2888
31061W        W47535  12.777   0.810   4.497 -0.0312  0.5106  0.0497
31062W        W47536   9.804  17.166  15.965  0.2802  0.1210 -0.1103
31063W        W47537   2.531   8.532  16.281 -0.3332  0.1692  0.2560
31064W        W47538   4.445  14.170  11.759 -0.1772 -0.2016  0.0083
31065W        W47539  17.083  18.189   0.119  0.1004 -0.2567 -0.2283
31066W        W47540   8.021   9.189  15.681 -0.2695  0.0373 -0.2898
31067W        W47541  11.908   4.820  14.402 -0.0305  0.2295  0.0831
31068W        W47542   5.743   0.795  15.190 -0.4348  0.2444  0.0179
31069W        W47543   4.328  10.074  13.953  0.3485  0.0077  0.1443
31070W        W47544  11.529   0.192   0.772 -0.2253 -0.2348 -0.0339
31071W        W47545   0.363   0.301   2.625 -0.3267 -0.1837 -0.1305
31072W        W47546  10.011  16.437   4.748 -0.2232 -0.0930  0.1061
31073W        W47547  10.083   2.762  11.537 -0.3077 -0.1304 -0.2357
31074W        W47548   7.177   2.352  16.226 -0.0747 -0.3090 -0.2827
31075W        W47549  11.391   6.646   1.970 -0.2349 -0.2734 -0.0125
31076W        W47550  10.966  14.495   3.053  0.0025 -0.0757 -0.1915
31077W        W47551  10.055   8.997  15.459 -0.0463  0.2165  0.1150
31078W        W47552  14.980  14.117  15.996 -0.2834 -0.1665 -0.1175
31079W        W47553  12.845  15.426  11.839  0.1570 -0.0410 -0.2428
31080W        W47554  10.787   3.009   0.130 -0.0886  0.2683 -0.2174
31081W        W47555   7.584  10.027  12.295 -0.1115  0.3419  0.0399
31082W        W47556   0.013  14.535  14.686  0.2254  0.0937  0.1468
31083W        W47557   7.550  15.658  15.736  0.2320  0.2790 -0.2712
31084W        W47558   0.485   2.777   4.925 -0.0712  0.2527 -0.1005
31085W        W47559  16.973  15.505  10.645 -0.0656 -0.0295 -0.0871
31086W        W47560   4.715   1.568   0.866  0.3253  0.0105  0.0175
31087W        W47561  15.404   4.604   3.608  0.1997  0.0682  0.3601
31088W        W47562   6.118   3.592   5.912  0.1668 -0.0285 -0.4268
31089W        W47563   0.639   5.499   0.114 -0.1160  0.3131 -0.0002
31090W        W47564   7.850   5.308   0.925  0.0440 -0.2230 -0.1103
31091W        W47565   6.246  16.373   1.074  0.1096  0.2254  0.1260
31092W        W47566   2.703   9.469   2.973 -0.0497 -0.0876  0.0008
31093W        W47567  11.992  13.646   3.992  0.4383 -0.1602 -0.1482
31094W        W47568   0.954   4.382   0.963  0.0646  0.1907  0.5209
31095W        W47569  16.598  17.921   1.433  0.0893  0.0138  0.1633
31096W        W47570  17.378   7.009   4.204 -0.0970 -0.0327 -0.1497
31097W        W47571   6.348   8.350  15.467  0.0912 -0.4503 -0.2940
31098W        W47572   8.031  14.349  15.176  0.1887  0.2929  0.2952
31099W        W47573  10.421  17.477  13.967 -0.0747 -0.0965  0.0605
31100W        W47574  16.102   4.777   1.810 -0.1549 -0.1562  0.6216
31101W        W47575   1.359  16.348   4.992  0.0716  0.2555  0.0717
31102W        W47576  13.002  11.227  14.538  0.2278  0.0657 -0.0106
31103W        W47577  15.368   7.884  15.113 -0.0529 -0.1096 -0.1640
31104W        W47578  17.298   5.768  16.062 -0.1115 -0.0197 -0.1570
31105W        W47579   5.446   5.264  15.249  0.1347  0.2778  0.0547
31106W        W47580  11.421   0.854   4.044  0.2072 -0.0099 -0.2255
31107W        W47581  13.765  13.188  14.044 -0.0021  0.2604 -0.0168
31108W        W47582  12.430   5.002  15.203 -0.2297 -0.1626  0.2012
31109W        W47583  15.948  12.554   0.077  0.0881 -0.2268  0.0623
31110W        W47584   4.319   5.633  12.910 -0.0432  0.0203 -0.1872
31111W        W47585   1.860   3.842  12.774 -0.0897  0.0975 -0.0266
31112W        W47586  10.758  12.401  11.425 -0.1751  0.0371 -0.1026
31113W        W47587  13.501  17.039  14.786  0.2680 -0.3005 -0.4450
31114W        W47588   8.792   2.020   0.711  0.0416 -0.1647 -0.3037
31115W        W47589   7.298  11.000  14.332  0.1295  0.2000 -0.0673
31116W        W47590   0.930  17.248   2.437  0.0481  0.2368 -0.3650
31117W        W47591   9.475   2.418   1.471 -0.0249  0.1541  0.0944
31118W        W47592  13.171  14.470   4.527  0.2025  0.3277  0.3393
31119W        W47593   6.790  16.932   1.130  0.0893 -0.3681  0.4013
31120W        W47594  13.736   8.910  12.515 -0.1192  0.1698 -0.2433
31121W        W47595   0.096  10.775   0.597  0.0732 -0.0787 -0.1390
31122W        W47596  18.318   4.338   3.595 -0.1844 -0.2102 -0.3804
31123W        W47597  16.267   5.164  11.396 -0.0609  0.0416  0.1320
31124W        W47598   9.409   3.990   2.285 -0.1398 -0.1092 -0.1487
31125W        W47599   4.508  12.362   2.951  0.1656  0.0250  0.0922
31126W        W47600   7.056  16.552  14.641  0.0021  0.2085  0.2810
31127W        W47601  12.572   1.764   1.522  0.2835  0.1235 -0.1373
31128W        W47602   6.961   2.800  15.209  0.2710  0.0900 -0.0064
31129W        W47603   4.279  13.705   4.914 -0.0759 -0.3916  0.2587
31130W        W47604  11.345   4.115   2.253  0.1453  0.1075  0.1058
31131W        W47605  10.983   6.789   1.678 -0.3369 -0.1210 -0.2907
31132W        W47606   4.295  16.657  13.162 -0.1921  0.1760  0.2372
31133W        W47607  12.321  10.191   2.162  0.1158  0.0461  0.0280
31134W        W47608   9.876   2.152  12.929 -0.0615  0.1504  0.0188
31135W        W47609   0.341  11.534  12.406 -0.1148 -0.0830 -0.0542
31136W        W47610   4.202   5.225  13.670  0.1373  0.0503  0.1598
31137W        W47611   1.498   4.161  15.410  0.0540  0.1169  0.0159
31138W        W47612  15.526  16.853   2.747  0.1405 -0.0324 -0.2670
31139W        W47613   1.716   6.399   4.088 -0.1328  0.2470 -0.0440
31140W        W47614   7.572   9.745   2.421  0.0411 -0.2423  0.2503
31141W        W47615  11.853  13.359   3.495  0.2827  0.1334  0.0319
31142W        W47616   6.033   9.694   3.319  0.0812 -0.0574 -0.0003
31143W        W47617   9.704   0.954  15.238 -0.1915 -0.0265 -0.0889
31144W        W47618  13.659   4.096   3.375  0.2811  0.1912 -0.0218
31145W        W47619  17.713   9.514   4.166 -0.2322  0.1299 -0.0623
31146W        W47620  17.004   8.567  12.133  0.0025 -0.0259  0.3531
31147W        W47621   9.508  14.960   2.410  0.0380 -0.2890 -0.0882
31148W        W47622  16.203  13.337   4.878  0.2009  0.1764  0.2974
31149W        W47623   1.982  14.675  11.899 -0.1572  0.1480 -0.2255
31150W        W47624   6.019   0.981  11.046  0.1642 -0.0730 -0.1874
31151W        W47625   1.779  18.254  11.095 -0.0372  0.2280 -0.3063
31152W        W47626  15.416   9.561  12.103 -0.2687 -0.0426 -0.1623
31153W        W47627   4.237  15.158  14.809  0.0358  0.0002 -0.0203
31154W        W47628  14.258  14.003  15.353  0.2235  0.0305  0.0683
31155W        W47629   2.764   7.977   1.512  0.0307 -0.2125  0.0427
31156W        W47630  10.379   2.669  13.017 -0.0314 -0.0425 -0.0719
31157W        W47631  16.341   6.340   4.553  0.2523 -0.1136 -0.0217
31158W        W47632   0.550  17.802  14.267  0.0786 -0.0226 -0.1951
31159W        W47633   9.580   4.201   1.830  0.1013  0.0522 -0.0846
31160W        W47634  17.906  11.189   2.863 -0.3507 -0.2941 -0.4002
31161W        W47635  17.240  10.891  13.813 -0.1880 -0.0221 -0.4261
31162W        W47636  13.270   4.862  15.927  0.0494  0.0149 -0.1141
31163W        W47637   8.013   1.259   5.220 -0.0004  0.2477 -0.0772
31164W        W47638   1.325   8.636  13.885  0.0467 -0.2801  0.1682
31165W        W47639  15.803  10.724  14.560 -0.0468  0.0069 -0.0567
31166W        W47640   5.757   5.925   1.756  0.1490  0.0053 -0.2308
31167W        W47641  15.213  11.942  12.016 -0.0532 -0.1606 -0.2617
31168W        W47642   6.010   6.467   0.389 -0.2694  0.1867  0.2248
31169W        W47643   1.282  10.840   5.558  0.2153  0.0612  0.1541
31170W        W47644  17.923  15.180   2.994 -0.0385  0.1532 -0.1006
31171W        W47645   0.323   2.791  12.843 -0.1469 -0.3918  0.2083
31172W        W47646  15.128   7.537  14.753 -0.3311 -0.2779 -0.2279
31173W        W47647   6.919  18.033   1.112  0.1078 -0.1935 -0.1132
31174W        W47648  10.609  11.531  12.628  0.0859 -0.2601 -0.0579
31175W        W47649  15.787   3.141   5.536  0.0618 -0.0120  0.0062
31176W        W47650   2.979  14.691  11.778  0.0882 -0.2192  0.0313
31177W        W47651   6.812   4.330  12.426 -0.2003 -0.1644  0.0203
31178W        W47652  11.688  16.896   3.937 -0.2840  0.0036  0.1486
31179W        W47653   1.064   0.775   0.968 -0.2324 -0.2570  0.0903
31180W        W47654  11.077  12.311   2.281  0.1002 -0.3672  0.0834
31181W        W47655  16.947   8.717  12.982  0.3001 -0.0900 -0.0320
31182W        W47656  15.234   4.753  13.658 -0.2042 -0.2919 -0.0211
31183W        W47657  13.048   5.179  12.206  0.2499  0.2963  0.2746
31184W        W47658   7.023   2.404   1.799  0.1091  0.1177  0.1355
31185W        W47659   6.406  11.353   0.750 -0.2497  0.0287 -0.2682
31186W        W47660  17.046  12.414  13.937  0.0342 -0.2655  0.1756
31187W        W47661  13.471   8.895   3.326  0.0752  0.3141 -0.2041
31188W        W47662   4.095   8.573   1.873 -0.1348  0.0072  0.0902
31189W        W47663  16.046  12.136  11.857 -0.1651  0.2742  0.1124
31190W        W47664   7.224   3.853   1.256  0.1758  0.2452  0.1243
31191W        W47665  13.872   5.372  15.780 -0.1801 -0.1497  0.0219
31192W        W47666  12.597   5.192   4.381 -0.0081  0.2221 -0.4249
31193W        W47667   0.788   1.858  12.414 -0.1871 -0.0632 -0.0234
31194W        W47668  12.164   2.294  13.949 -0.2200 -0.1683 -0.1139
31195W        W47669  13.113  17.650  12.316  0.3753 -0.2130 -0.1118
31196W        W47670   7.186   6.416  16.219  0.1825  0.0053  0.1865
31197W        W47671   5.986  10.698   1.071 -0.1241  0.2165  0.0290
31198W        W47672  15.244  10.058  15.209  0.1740 -0.1244  0.1607
31199W        W47673   8.931   8.723  11.687  0.1334 -0.2467 -0.0791
31200W        W47674  15.525  13.809  14.660  0.1055  0.0818 -0.0029
31201W        W47675  16.863   2.049  10.748 -0.0229 -0.3592  0.1931
31202W        W47676   3.042   5.491   5.985 -0.0307 -0.2218  0.2131
31203W        W47677  10.077   3.340   4.464 -0.1135  0.1202  0.4319
31204W        W47678  16.486   3.662   1.815  0.2808  0.0868  0.0090
31205W        W47679  13.046   8.297   3.946  0.1198  0.1141  0.0095
31206W        W47680  10.236  10.676  11.249 -0.0057 -0.1693  0.0832
31207W        W47681   7.838  17.506   5.107  0.0509 -0.0085 -0.0467
31208W        W47682  12.541   4.833   2.888 -0.2039  0.1503 -0.0832
31209W        W47683   3.563   3.714  11.892  0.0865 -0.0171  0.0284
31210W        W47684   2.527  11.662   1.484  0.0050  0.1456  0.1735
31211W        W47685   0.885  15.043   1.908 -0.1439  0.2857 -0.0016
31212W        W47686  16.132  14.182  13.064 -0.0975 -0.0041 -0.0066
31213W        W47687  15.437  15.604   4.241  0.0151  0.2158  0.1363
31214W        W47688   7.677  10.628   2.869 -0.0330 -0.1901  0.1149
31215W        W47689   2.602  13.315  11.837  0.1519 -0.5150 -0.3380
31216W        W47690  15.918   6.628   1.042 -0.2084 -0.2876  0.1017
31217W        W47691  12.713  12.001   0.711  0.2979 -0.1203 -0.0786
31218W        W47692  15.044   7.719   2.659 -0.1664 -0.1030 -0.3049
31219W        W47693  14.474  16.036  14.394  0.0278  0.1069  0.0669
31220W        W47694   5.066   5.950   2.721  0.1096  0.0803  0.0143
31221W        W47695  13.421  18.033  13.803  0.0671  0.1248  0.1399
31222W        W47696   5.552  14.249  14.754  0.0358  0.1706 -0.1307
31223W        W47697   0.072   6.997  12.840 -0.2496 -0.1788  0.0576
31224W        W47698   2.879  10.804   0.419  0.1379 -0.2965  0.1124
31225W        W47699   2.051  14.656   2.732 -0.2019 -0.3855 -0.2530
31226W        W47700  16.015   2.535  15.695 -0.0549 -0.2995  0.0588
31227W        W47701   7.152   0.770   4.113 -0.1816  0.2093 -0.0870
31228W        W47702   2.714   1.467   2.406 -0.0116  0.0951  0.0746
31229W        W47703   9.586   1.415  11.720 -0.0511  0.0093  0.0107
31230W        W47704   5.723   8.193   2.759  0.2109 -0.1811  0.0359
31231W        W47705  12.528   2.076   3.895 -0.0691  0.1172 -0.4108
31232W        W47706  14.649  15.495  15.531 -0.0064 -0.2136 -0.1232
31233W        W47707   6.820  10.501   4.019 -0.0426 -0.3195  0.2176
31234W        W47708  12.534  12.787  15.444  0.1690 -0.3120 -0.1259
31235W        W47709   8.512   0.626   2.935 -0.0719  0.0138 -0.0547
31236W        W47710  11.668  16.363   2.638 -0.0238  0.0625  0.0542
31237W        W47711   6.253   1.703   0.366 -0.3360 -0.2151  0.4592
31238W        W47712  12.907   7.594   2.404  0.0093  0.0849 -0.2084
31239W        W47713   1.546   4.137   3.208 -0.0567  0.0354 -0.0135
31240W        W47714  11.496   8.352   3.593  0.0883  0.0545  0.0491
31241W        W47715  12.358   9.091   5.055  0.2353 -0.2439  0.0330
31242W        W47716  17.628   8.785  11.660 -0.0871  0.1163 -0.2114
31243W        W47717  17.783   7.183  11.597 -0.0979 -0.2163  0.1685
31244W        W47718   2.386   7.907  16.102 -0.3509 -0.3580 -0.0823
31245W        W47719   5.616   7.465  14.187 -0.4708 -0.1461 -0.2404
31246W        W47720  10.292  14.942  12.650 -0.1806 -0.1905 -0.2413
31247W        W47721  17.716   1.049  11.646  0.0155  0.1002  0.2484
31248W        W47722  15.724  13.491   4.929  0.0812 -0.2147 -0.2709
31249W        W47723  12.224   1.993  15.117 -0.1101 -0.0415  0.2588
31250W        W47724   0.367  11.685   3.061  0.1561 -0.1248 -0.0574
31251W        W47725  15.965   3.495   1.539  0.1302 -0.0228  0.1896
31252W        W47726   0.261   3.038   0.223  0.2080 -0.1456 -0.0614
31253W        W47727  12.000   5.323  11.967  0.0210  0.1626  0.1965
31254W        W47728  15.879  11.362   4.509  0.0297 -0.1828  0.2943
31255W        W47729   0.646   0.011   0.580 -0.1634 -0.0508 -0.2528
31256W        W47730   8.496  11.438  13.952 -0.1083 -0.3374  0.0352
31257W        W47731  17.854  12.309   0.499 -0.0760 -0.0247 -0.1232
31258W        W47732  17.376  15.268   1.778 -0.3108 -0.0328 -0.0613
31259W        W47733   6.108  17.472   5.019 -0.4302 -0.3978  0.0135
31260W        W47734  17.952  15.722   3.022 -0.0346 -0.1243  0.3810
31261W        W47735   4.414  16.429   1.420  0.1418  0.2060 -0.0656
31262W        W47736   3.143   1.142  15.149 -0.0884 -0.0712 -0.0508
31263W        W47737   5.162   1.725  13.008  0.0495 -0.0395 -0.0284
31264W        W47738   5.740  15.258   1.646 -0.4720  0.0171  0.1224
31265W        W47739  17.047  17.494   5.917  0.0157  0.1956  0.2471
31266W        W47740   5.076   6.259   2.304  0.4304 -0.1173  0.1341
31267W        W47741   2.615  13.936  12.071  0.1838  0.1406 -0.0610
31268W        W47742  11.399   4.377   0.323 -0.0123  0.2192  0.0703
31269W        W47743  10.784   0.704  11.907 -0.4627 -0.0389 -0.0775
31270W        W47744  12.384   4.553   3.554  0.1197  0.1884  0.0794
31271W        W47745  10.474  14.075  15.800  0.1679 -0.2242 -0.0757
31272W        W47746   2.526  15.876  12.737 -0.1761  0.1448  0.2199
31273W        W47747   8.724   3.786  14.643  0.1108  0.0508  0.0157
31274W        W47748  18.220   7.470   0.902  0.1371  0.2534  0.3945
31275W        W47749  13.709   6.960   5.542  0.0873  0.0240  0.2432
31276W        W47750   0.561   9.472   2.287  0.1829 -0.2462  0.1088
31277W        W47751   0.114   8.294   0.428 -0.0250  0.1355 -0.1182
31278W        W47752  15.016   7.548   2.194 -0.1324  0.2850  0.1909
31279W        W47753  10.638   9.684  14.948  0.0445 -0.0765  0.1565
31280W        W47754   7.992  12.957   0.469  0.0596  0.1761 -0.0643
31281W        W47755  16.382  16.043  14.136  0.3136 -0.1101 -0.1814
31282W        W47756   0.215  13.527  13.126 -0.0740 -0.4007  0.0454
31283W        W47757  17.106  17.999   3.199  0.2802  0.1261 -0.1889
31284W        W47758   0.741  15.112   6.312 -0.0231  0.2745  0.2253
31285W        W47759  15.153   6.017   0.111 -0.3007 -0.0272 -0.2460
31286W        W47760  17.127  17.298   5.435 -0.1430 -0.2210  0.0262
31287W        W47761   6.508   0.328  15.908  0.0726  0.0120 -0.2542
31288W        W47762  10.780   5.643   0.900 -0.0522  0.2025 -0.2850
31289W        W47763   4.962   7.522  13.265 -0.0255  0.4266  0.1011
31290W        W47764   5.345  16.298  13.916  0.2451  0.0981 -0.1017
31291W        W47765   0.003  17.153   5.889  0.0771  0.1612 -0.0724
31292W        W47766   9.785  14.827   0.840  0.2394  0.2612  0.3207
31293W        W47767   8.247   1.062  15.400 -0.0054  0.1121 -0.2111
31294W        W47768   5.160   2.036  11.875  0.3133 -0.0600  0.0433
31295W        W47769   2.979   4.314   1.805 -0.0044 -0.1454  0.0910
31296W        W47770   5.389   4.941   3.705 -0.0618  0.0179 -0.0158
31297W        W47771  14.943   9.746  15.643 -0.0337 -0.3593  0.2222
31298W        W47772   4.914   7.922  12.029  0.2018  0.1471 -0.0902
31299W        W47773   4.035   1.096  13.262  0.4062 -0.0404 -0.3126
31300W        W47774  15.611   2.513  15.371 -0.0516 -0.2176  0.3197
31301W        W47775   1.684   0.145   3.082  0.0857  0.4120  0.1982
31302W        W47776  13.150  12.886  15.471  0.2695 -0.2263 -0.0819
31303W        W47777  10.675  13.774   5.034 -0.0456 -0.1856 -0.0933
31304W        W47778   9.735  18.053  16.053 -0.5573  0.0741 -0.3882
31305W        W47779   3.366   1.932  14.585 -0.2628  0.0448 -0.0333
31306W        W47780  14.327   0.821   3.775 -0.3321  0.0155  0.1548
31307W        W47781   9.367  12.446  16.176  0.0980 -0.1126  0.2179
31308W        W47782   8.236   9.977  16.303  0.0437  0.2381 -0.0278
31309W        W47783  10.766   7.977   2.226 -0.0097 -0.0801 -0.3165
31310W        W47784  11.597  16.494  16.282 -0.1269 -0.0839 -0.0793
31311W        W47785   5.399   6.620  15.974  0.2059  0.0411 -0.1078
31312W        W47786   2.122   0.534   0.076 -0.0148 -0.2165 -0.0067
31313W        W47787   4.495  10.108   3.134  0.2047  0.1740 -0.0150
31314W        W47788   8.003   3.373   3.454  0.3242 -0.0524  0.0502
31315W        W47789   1.797   9.906   3.511  0.1759 -0.0162 -0.0375
31316W        W47790   8.158  17.932  15.320  0.2451 -0.0081  0.1555
31317W        W47791  10.274   2.177  12.608 -0.3035  0.3226  0.3132
31318W        W47792  10.233   0.588  13.475 -0.3317 -0.0404  0.2353
31319W        W47793   7.571   8.939   3.704 -0.1730 -0.1218  0.1100
31320W        W47794  12.621   0.119   1.548 -0.0596 -0.1655 -0.4015
31321W        W47795   2.607  16.233   4.185 -0.0315 -0.1000  0.1603
31322W        W47796  16.617   5.009  14.917  0.1940  0.1732 -0.0805
31323W        W47797  15.767   6.999   0.777 -0.4123  0.1112 -0.0362
31324W        W47798   3.023   8.523   2.852 -0.0134 -0.0929 -0.3936
31325W        W47799  17.504   4.470  11.272  0.0661  0.0220 -0.2209
31326W        W47800  10.529  14.091  13.750 -0.1668  0.1932  0.0362
31327W        W47801   6.662   4.391   3.976  0.1223 -0.4628 -0.2113
31328W        W47802   3.539   1.520   2.598 -0.0070 -0.1041  0.0096
31329W        W47803   8.020  16.963  10.428  0.0389 -0.1407 -0.1272
31330W        W47804  11.770  12.405   4.706 -0.0844  0.0847  0.0701
31331W        W47805  12.572   3.093  14.920 -0.1774  0.4338  0.1133
31332W        W47806  15.749  16.652  13.156  0.1807  0.0498 -0.2950
31333W        W47807   1.893  10.512   4.222  0.0854  0.0905  0.0979
31334W        W47808  16.796   6.831  13.361  0.0342  0.0738  0.1103
31335W        W47809  15.543  15.048  14.311  0.0780  0.6221 -0.0713
31336W        W47810  12.170   5.386   4.531 -0.1327  0.4526  0.1413
31337W        W47811   1.555   4.542  15.079  0.0946 -0.1289 -0.1134
31338W        W47812  13.354   0.606  11.870  0.1044  0.0929 -0.2647
31339W        W47813   6.567   1.788   0.757  0.2544  0.2910 -0.0578
31340W        W47814  10.883  11.987  12.547  0.0366 -0.0382  0.0132
31341W        W47815  16.591   7.970  16.081 -0.0625  0.4441 -0.2025
31342W        W47816  10.248  15.166   5.492  0.0220 -0.2038  0.0181
31343W        W47817  10.550   9.302   2.089  0.0438  0.0798  0.0843
31344W        W47818   8.291   3.896  11.284 -0.1850 -0.1566  0.0617
31345W        W47819   9.036   4.660   1.021 -0.0118 -0.0447 -0.0789
31346W        W47820   6.128   1.805   5.277  0.0320  0.2107  0.0777
31347W        W47821  14.702  16.224   4.249  0.0727 -0.0645 -0.0278
31348W        W47822  11.315  16.454  13.227 -0.0485  0.0171  0.0060
31349W        W47823   8.123   3.163  12.372  0.1080  0.0345 -0.0271
31350W        W47824   0.592  17.490   6.082 -0.2184  0.0151  0.0018
31351W        W47825  17.338  14.489  15.547 -0.0371  0.1513  0.0764
31352W        W47826  12.491  13.669   4.865  0.0723 -0.2836 -0.1166
31353W        W47827   1.484  15.391   3.885 -0.2420 -0.0709  0.0601
31354W        W47828   2.277  16.066   0.214 -0.3082 -0.0328 -0.0626
31355W        W47829   5.428  14.850   1.394 -0.1224 -0.0210 -0.2663
31356W        W47830  15.548   3.670  13.931 -0.2069 -0.2013 -0.1123
31357W        W47831  12.810   4.771   5.223 -0.1321  0.1391 -0.1225
31358W        W47832  10.563  15.975   3.851  0.0871 -0.2638  0.2354
31359W        W47833  11.291   7.030  11.356 -0.0769 -0.3092 -0.1586
31360W        W47834   4.024  13.875   2.091 -0.2322  0.0328 -0.0116
31361W        W47835  12.975   4.993  15.153  0.2297  0.0784  0.2597
31362W        W47836   9.379  13.660  10.597  0.1399  0.0381  0.0582
31363W        W47837  10.831  16.578  15.395  0.1659 -0.1736 -0.0066
31364W        W47838   5.980  15.341  13.213 -0.1375 -0.0364  0.0452
31365W        W47839   4.809  10.207   6.097 -0.2499  0.0073 -0.1101
31366W        W47840   2.004  17.506   4.464 -0.2045  0.1901  0.1865
31367W        W47841  14.982  14.342  12.025  0.2094 -0.1119  0.0509
31368W        W47842   5.456   8.046  11.958  0.3741 -0.2596 -0.5160
31369W        W47843   9.553  16.176  15.874  0.1323 -0.0027  0.0791
31370W        W47844  11.839  11.818  14.155  0.1175 -0.1721 -0.1487
31371W        W47845  11.910   2.323   1.017  0.0962 -0.0678 -0.0913
31372W        W47846  13.237  11.278   2.367  0.1799 -0.0529  0.1974
31373W        W47847   0.742   8.463   3.101  0.2108 -0.0880  0.1110
31374W        W47848  14.291  11.065   0.838 -0.0300 -0.0742  0.0642
31375W        W47849   0.500  13.460   4.030  0.1146 -0.0244  0.4001
31376W        W47850  12.127  13.599  12.162 -0.2779  0.0713 -0.1225
31377W        W47851  17.401  12.966   0.634  0.0826 -0.2728 -0.1570
31378W        W47852  17.671   9.740  13.182  0.0877  0.2727  0.0353
31379W        W47853  12.865   1.621   2.713  0.0025 -0.2924 -0.1810
31380W        W47854   2.722  18.163   4.698 -0.3073  0.0930 -0.0431
31381W        W47855   8.051   8.455  14.490  0.2097 -0.2085  0.1328
31382W        W47856  15.958  14.392   1.996 -0.2447  0.1132 -0.0270
31383W        W47857   7.378   9.258   5.910 -0.2243 -0.2909  0.1932
31384W        W47858  13.927  15.476  16.065  0.1639  0.1516 -0.2470
31385W        W47859  13.836   2.295   4.270 -0.0170  0.3322  0.0892
31386W        W47860  13.256   3.420   0.366 -0.1472  0.0355  0.3241
31387W        W47861  15.650   9.376  15.804 -0.2096 -0.3679  0.1840
31388W        W47862  11.165   5.669   1.220 -0.0941  0.1842  0.0716
31389W        W47863  17.515  17.164   3.024  0.0553 -0.0919 -0.0593
31390W        W47864  14.767  11.248   1.925  0.1980 -0.0064  0.0124
31391W        W47865   0.328   0.793  15.364 -0.2371 -0.0334 -0.0497
31392W        W47866   6.383   5.682  14.758 -0.1345  0.1664 -0.1225
31393W        W47867  13.003  10.289  14.652  0.3272  0.0353  0.0041
31394W        W47868  18.027   6.274  16.021  0.1043 -0.0114 -0.2149
31395W        W47869   0.272   9.726  12.789 -0.1460 -0.2343 -0.1593
31396W        W47870  12.564  10.337  14.226 -0.3758  0.0192  0.3301
31397W        W47871  18.246  15.590  11.045  0.1841 -0.1107 -0.0953
31398W        W47872   1.987  13.543  12.734 -0.1061  0.0005 -0.3646
31399W        W47873   2.500   7.730   4.941 -0.2232  0.0974 -0.1232
31400W        W47874  14.752  14.821   2.321 -0.0684  0.0174 -0.3890
31401W        W47875  10.634   6.217   0.788 -0.2673 -0.1836  0.1759
31402W        W47876   4.975  17.457  11.322  0.1546  0.1719 -0.0964
31403W        W47877   4.880   2.989  15.360  0.0879 -0.0918  0.1799
31404W        W47878   0.298   5.963   4.312 -0.0163  0.2025 -0.1287
31405W        W47879  16.142  17.319  13.303  0.1862  0.0986  0.1445
31406W        W47880   5.424   6.638   4.276 -0.0808 -0.1488 -0.1304
31407W        W47881  15.623   0.540   2.579  0.1065  0.0752 -0.0167
31408W        W47882  12.645  15.010  12.257 -0.0135  0.0378 -0.0235
31409W        W47883  13.493   5.582  15.470 -0.2012  0.2669 -0.2259
31410W        W47884   4.122   8.951  12.525  0.3189 -0.2032 -0.0466
31411W        W47885   3.280   8.981  14.240 -0.1086  0.0265 -0.0256
31412W        W47886   8.608   8.756   4.701 -0.0586 -0.2273 -0.0027
31413W        W47887  15.848  15.141  15.375  0.0214  0.3484 -0.0353
31414W        W47888  14.445   5.737   1.193  0.2644 -0.1616  0.1230
31415W        W47889  17.626   2.541   4.701  0.1497 -0.0495  0.2514
31416W        W47890   9.281   9.448  12.864 -0.1663 -0.1972  0.0746
31417W        W47891   0.305  16.037  11.081  0.1287  0.0290  0.0194
31418W        W47892  10.115   0.939  14.878 -0.2621  0.2457  0.0754
31419W        W47893   9.202   8.755  13.611 -0.3080 -0.0257  0.0805
31420W        W47894  16.193   6.938  16.075  0.3011 -0.2358  0.5010
31421W        W47895   3.481  13.129   1.309  0.2564  0.0519 -0.0701
31422W        W47896  17.830  12.822   2.897  0.1456 -0.1886  0.2245
31423W        W47897   6.850   0.447  11.182  0.0786  0.0484  0.0822
31424W        W47898   8.565  13.825   6.315 -0.1821 -0.2150 -0.1137
31425W        W47899   9.949  15.557  11.699  0.2420  0.0425  0.2641
31426W        W47900   8.921   2.298   4.909  0.2855  0.1254 -0.1467
31427W        W47901  10.417   0.452   1.759 -0.3914  0.0944  0.0495
31428W        W47902  11.104   7.843  14.868 -0.1362  0.1466  0.1760
31429W        W47903   6.321  10.525   4.045  0.0430 -0.0288 -0.0231
31430W        W47904  14.493   0.326   4.818  0.3037 -0.2324 -0.0507
31431W        W47905  11.968   9.983   1.087 -0.1100 -0.0472 -0.2150
31432W        W47906  11.506   5.950   4.827 -0.1092  0.0332 -0.1940
31433W        W47907  14.784   0.095  15.084 -0.0802  0.0163  0.2541
31434W        W47908  12.319   4.001   4.750  0.1724  0.0534 -0.0358
31435W        W47909  10.873   3.537  12.665 -0.1076  0.0197  0.2718
31436W        W47910   2.309   4.070   2.107  0.0249 -0.4161  0.0327
31437W        W47911   7.616  15.682   5.503  0.2101  0.0286  0.1525
31438W        W47912   3.120  17.577   3.913  0.0556 -0.0180 -0.2622
31439W        W47913   6.402   2.850  16.008 -0.2999  0.0838  0.1716
31440W        W47914   1.421   8.008  11.834  0.2773  0.0866  0.1341
31441W        W47915   4.054   1.889   1.489  0.0085  0.0330  0.1298
31442W        W47916   2.617   4.536  11.156  0.3878 -0.2819  0.3624
31443W        W47917  13.831   6.273   4.484 -0.0290 -0.1467 -0.1827
31444W        W47918  13.176  14.030   4.980 -0.2860  0.1509 -0.1149
31445W        W47919   1.706  14.906   3.998  0.2350 -0.0267  0.2608
31446W        W47920  12.477  17.510   2.085  0.1247 -0.2210 -0.1201
31447W        W47921  11.606  16.685   0.948  0.0897  0.1267  0.0319
31448W        W47922   1.421   4.504   0.913  0.1503 -0.0788 -0.2536
31449W        W47923   0.999  10.614   0.878  0.2848 -0.2940  0.1432
31450W        W47924   3.540   1.969  14.140  0.0989 -0.1905  0.1210
31451W        W47925  13.259   1.109   5.925 -0.0825  0.0538  0.2493
31452W        W47926   2.693  11.543  12.404 -0.4206 -0.2004 -0.0252
31453W        W47927   0.107   1.582   2.975  0.1774  0.1160  0.0708
31454W        W47928   1.238  16.539   3.218  0.3166  0.0946  0.0966
31455W        W47929   6.021   6.503  13.664 -0.0188  0.1959 -0.2434
31456W        W47930   7.689  10.746   4.729  0.0652 -0.1988  0.0515
31457W        W47931  10.790  11.368  15.941  0.1065 -0.2038 -0.1026
31458W        W47932  13.869  12.282  11.759  0.1344  0.3400  0.0369
31459W        W47933  12.386  15.632   0.484  0.3485 -0.0589 -0.1825
31460W        W47934  16.124  12.087   5.309  0.0266 -0.2739  0.0994
31461W        W47935  16.320   9.498  11.825  0.2779 -0.3108  0.0961
31462W        W47936  15.407   9.936  12.974 -0.0963  0.0202 -0.1695
31463W        W47937   8.250   9.992   4.017  0.2478 -0.0052 -0.0204
31464W        W47938   1.921   3.406  12.968 -0.2958 -0.2182 -0.2795
31465W        W47939  13.870   0.703   3.887  0.1003 -0.3059 -0.1895
31466W        W47940   5.483   8.634   0.382 -0.2889  0.0213  0.3480
31467W        W47941  15.506   1.365   1.286  0.0935  0.0501 -0.0414
31468W        W47942  10.721   4.107   4.584  0.4496  0.0314  0.0552
31469W        W47943   6.895   0.131  12.635 -0.3425 -0.1818 -0.0550
31470W        W47944   1.795  13.246  14.732  0.1166  0.0208 -0.0927
31471W        W47945  12.703   5.450  15.322  0.1552  0.2169  0.0702
31472W        W47946   9.775  14.419  13.788 -0.3161  0.1552  0.1256
31473W        W47947  15.756   3.109  12.284 -0.0860  0.0518  0.1734
31474W        W47948  12.606   5.260  14.033  0.1048  0.3286  0.1536
31475W        W47949  12.908  16.593  11.173  0.0358 -0.3253 -0.0210
31476W        W47950  16.409  14.476   2.770 -0.1810 -0.0921 -0.0943
31477W        W47951   5.420   9.063   5.290  0.2335 -0.1820  0.0928
31478W        W47952  12.814   3.330  11.259 -0.3945 -0.2402 -0.2198
31479W        W47953  14.959  13.489  14.861  0.0750 -0.0007  0.0617
31480W        W47954  10.593   3.981   2.276 -0.1077  0.2632  0.1582
31481W        W47955   0.530  11.761  14.399 -0.0168  0.4005  0.0785
31482W        W47956   9.571  17.813  11.924  0.1443 -0.1904 -0.2446
31483W        W47957   1.252  11.539  15.111 -0.2169  0.1290  0.1986
31484W        W47958   0.464  15.986   2.441 -0.0571 -0.0485  0.3855
31485W        W47959   8.233  12.765   1.295 -0.2088 -0.0587 -0.0507
31486W        W47960  17.587   3.984  13.583 -0.1283  0.1584  0.0425
31487W        W47961  15.102   8.792  12.407  0.1149 -0.2569  0.0842
31488W        W47962  13.801   9.750   4.187  0.0338  0.1906  0.0641
31489W        W47963   2.434   3.626   3.180 -0.0275  0.2003 -0.0245
31490W        W47964  12.790   9.448  14.370  0.1599 -0.1777 -0.1396
31491W        W47965  12.664  16.958   1.949 -0.1148 -0.2737 -0.0257
31492W        W47966  17.274  18.323  11.358 -0.0829  0.0073 -0.1319
31493W        W47967   7.122  12.317  11.397 -0.0490  0.0345 -0.1402
31494W        W47968   4.159   6.431   1.463  0.3759 -0.2640 -0.2268
31495W        W47969   8.515  10.561   3.013  0.0468 -0.2611 -0.4151
31496W        W47970   6.309   8.849  14.809  0.1290  0.0089  0.0950
31497W        W47971   4.194   2.613   0.564  0.0953  0.0582  0.2340
31498W        W47972  16.647   6.728   1.491  0.3338 -0.1537 -0.1657
31499W        W47973   4.411   9.563  11.060  0.3305 -0.0243 -0.0827
31500W        W47974   8.948  11.497  11.441  0.0627  0.4531  0.3550
31501W        W47975  11.326   8.318  12.217  0.2343 -0.0773 -0.3003
31502W        W47976   2.646  11.273   2.212 -0.1983  0.0258 -0.0442
31503W        W47977   7.897  10.738  12.197  0.0938 -0.0910  0.2119
31504W        W47978   9.276   6.350  14.598 -0.3134 -0.1282 -0.1180
31505W        W47979  10.537   7.562   1.535 -0.5401 -0.2890 -0.1725
31506W        W47980  14.199  14.338  13.200 -0.1150  0.1542  0.1000
31507W        W47981   7.924   6.660  16.061 -0.2619  0.0638 -0.0512
31508W        W47982  17.421  11.477   1.405  0.0473  0.0991  0.2761
31509W        W47983   9.272   0.173  15.721  0.0835  0.1108  0.2070
31510W        W47984   8.075   6.321   1.060 -0.3525 -0.1397  0.0177
31511W        W47985   5.057  15.259   0.797  0.1620 -0.2494 -0.2041
31512W        W47986  14.397  16.697  16.095 -0.3644  0.1244  0.1625
31513W        W47987   3.686  10.073   0.177 -0.0423  0.1507 -0.1373
31514W        W47988  10.709   2.784   4.674 -0.0828  0.1025 -0.1202
31515W        W47989   0.146  15.559   1.728 -0.0325 -0.1214  0.3700
31516W        W47990   2.858   9.851  12.215  0.1802  0.0369  0.0175
31517W        W47991  10.827   5.413   1.502 -0.2505  0.0115  0.2456
31518W        W47992  16.504   5.380   1.893  0.0125  0.0718  0.1110
31519W        W47993  14.939  17.463  12.778 -0.1824  0.0898  0.3375
31520W        W47994   6.881   7.895   6.446 -0.0990  0.0502  0.2296
31521W        W47995   1.815   4.267  13.024 -0.1119 -0.3886 -0.1427
31522W        W47996   8.476   6.131   1.863  0.3110  0.1674 -0.4815
31523W        W47997  12.022   0.873   1.362  0.3465  0.0369  0.2853
31524W        W47998  14.373  12.101  14.812  0.0256 -0.1727 -0.1471
31525W        W47999  15.309   6.304  11.260 -0.1066  0.2497 -0.4015
31526W        W48000  13.748  11.348   4.092 -0.0657 -0.1171 -0.0081
31527W        W48001   7.910   6.702   1.409  0.0749 -0.0044  0.0567
31528W        W48002   9.929   3.579   1.021  0.1743  0.3087 -0.1184
31529W        W48003  12.831   3.753  15.844 -0.4513  0.1103  0.0393
31530W        W48004   2.653  14.211  11.624  0.1871  0.0618  0.2307
31531W        W48005  10.191   0.060  13.423 -0.1408 -0.2043 -0.1394
31532W        W48006   5.548  18.292  15.620  0.2716  0.2554  0.1477
31533W        W48007   3.855   6.498   4.637 -0.1167 -0.0914  0.0429
31534W        W48008  16.026   2.708  13.262 -0.0754 -0.2624 -0.2352
31535W        W48009  17.491  10.282   4.441 -0.2288 -0.0437  0.1136
31536W        W48010   7.932  16.738  15.726 -0.3725  0.2614  0.3018
31537W        W48011   5.836  15.600  12.774  0.0810  0.0732  0.0954
31538W        W48012   3.441  16.337   1.007 -0.0805 -0.0854  0.4801
31539W        W48013  10.978   8.167   4.043 -0.0635 -0.0592  0.0027
31540W        W48014   9.805  15.788  16.036  0.1789 -0.0190 -0.0939
31541W        W48015   9.589  15.897   5.757 -0.1568 -0.0863  0.1623
31542W        W48016  12.594   2.610  14.717 -0.2718  0.0426 -0.1748
31543W        W48017  13.890   6.028   0.011  0.3106 -0.1082 -0.2316
31544W        W48018   1.186  11.559   1.338  0.3900 -0.3134 -0.1168
31545W        W48019  16.987   1.090  15.379  0.1478 -0.0269 -0.2307
31546W        W48020  14.784  12.326  12.817  0.1753 -0.1324  0.0837
31547W        W48021  15.497  11.323  15.421  0.0453  0.0480  0.1246
31548W        W48022  11.712   5.371  15.729  0.0494  0.0243  0.2750
31549W        W48023   4.426   2.580  15.867  0.0067  0.2094  0.1588
31550W        W48024   3.477   1.324   5.280 -0.3418 -0.0547 -0.1051
31551W        W48025  15.764  18.118   2.891 -0.0241  0.0653  0.0851
31552W        W48026  10.081   6.360  15.087 -0.0575  0.0658  0.1511
31553W        W48027   7.908   6.719   4.893 -0.0943  0.0297  0.1236
31554W        W48028  11.934  12.675  12.000  0.0234  0.1332  0.0256
31555W        W48029   1.865  16.777   0.058  0.1831  0.0813  0.0145
31556W        W48030  12.689  12.496   0.721  0.2322 -0.0231 -0.1967
31557W        W48031   8.527   1.088   0.772 -0.2765  0.1387  0.1918
31558W        W48032   1.414  17.157   2.499 -0.2679 -0.1032 -0.2146
31559W        W48033  11.408   7.727   2.734 -0.0583 -0.1837 -0.1420
31560W        W48034  11.842  14.293  11.428  0.1601 -0.0642  0.0706
31561W        W48035  16.326  11.145  14.007  0.0149 -0.1804 -0.0813
31562W        W48036   8.739  10.765   3.430 -0.2185 -0.0578  0.0332
31563W        W48037   6.200  16.494   2.844 -0.0507 -0.0292 -0.0633
31564W        W48038   8.364   6.890   1.262 -0.1158 -0.1308  0.3394
31565W        W48039   9.363  11.343   1.640  0.0217 -0.2883 -0.2054
31566W        W48040  10.739  11.412   1.434 -0.1273 -0.2056 -0.0306
31567W        W48041   6.909   6.047   4.944  0.0370  0.3140  0.0576
31568W        W48042   3.894  16.805   2.634  0.2639 -0.1701 -0.3169
31569W        W48043  15.983   4.371  11.331 -0.2670  0.0139 -0.3231
31570W        W48044   2.858   9.441   1.374  0.1301 -0.1889 -0.2026
31571W        W48045   5.118  15.768   2.698 -0.2569  0.3423 -0.2143
31572W        W48046   1.316   1.934  14.059 -0.0081  0.0315  0.0540
31573W        W48047  17.209   6.278   1.986 -0.6143 -0.0723 -0.0763
31574W        W48048  12.810  10.802   3.055  0.1000  0.0211  0.0384
31575W        W48049  14.179  16.378  13.734  0.0657 -0.2228 -0.3255
31576W        W48050  13.760   6.964   4.113  0.0752  0.0455  0.0454
31577W        W48051  11.288   9.630  11.995  0.0297  0.2077 -0.0639
31578W        W48052   6.753   3.612  16.189  0.2429 -0.2194  0.0961
31579W        W48053   1.656  12.224  12.149 -0.0195 -0.1079  0.0617
31580W        W48054  12.133   1.457  15.002 -0.0216 -0.4894  0.0839
31581W        W48055   2.419   9.012   2.729  0.0077  0.3577 -0.0462
31582W        W48056   2.786   7.068   1.076  0.1597 -0.0902  0.0719
31583W        W48057   0.621   3.330   0.401 -0.0002  0.0630 -0.2939
31584W        W48058  10.184  13.608  15.056  0.1901  0.0826 -0.0466
31585W        W48059  11.545  13.399  11.873 -0.0956 -0.2618  0.1104
31586W        W48060   2.260   1.884  15.264 -0.2906  0.2476  0.1030
31587W        W48061   2.014  14.415   4.843 -0.0928  0.3471 -0.0785
31588W        W48062  12.100   5.328   3.502 -0.1469 -0.2874 -0.2081
31589W        W48063  15.279  16.112  14.456  0.0032  0.1179  0.0125
31590W        W48064   8.770  17.078   3.012 -0.0557  0.0327  0.2689
31591W        W48065  13.226   6.584   0.009 -0.2798  0.5084  0.4198
31592W        W48066   8.091  13.932   0.336  0.2913 -0.0734 -0.2382
31593W        W48067   3.631  16.032  12.293 -0.1415 -0.2705  0.0015
31594W        W48068  17.553   1.712  13.805  0.0683  0.1845 -0.0983
31595W        W48069   6.134   6.285   2.159 -0.0314 -0.0110  0.0385
31596W        W48070   1.426   5.735  16.263 -0.1036 -0.2769 -0.3174
31597W        W48071   5.798  12.120   3.371 -0.0570 -0.0364  0.2863
31598W        W48072   2.753   3.288   4.558  0.2384  0.1438 -0.1563
31599W        W48073  14.093   9.231  15.781 -0.1250  0.1259  0.2230
31600W        W48074  15.382   9.964   0.098  0.1649 -0.0778 -0.0294
31601W        W48075  13.849  13.832  12.272  0.0394 -0.3629 -0.0433
31602W        W48076   1.427  10.535   1.691  0.0205  0.3021  0.3158
31603W        W48077   8.721   6.837   0.875  0.0075  0.0460  0.0958
31604W        W48078   4.366   3.603  14.399 -0.0167  0.0163 -0.0739
31605W        W48079   9.274   9.366  15.281  0.1275 -0.2329  0.2054
31606W        W48080  12.901  11.941  13.802 -0.1235 -0.2841 -0.1321
31607W        W48081   7.076  16.448  11.843 -0.4108 -0.4964  0.3113
31608W        W48082  14.599   2.969  15.000  0.1076  0.2328 -0.0285
31609W        W48083  14.568   2.471  14.820 -0.1471 -0.0334 -0.0157
31610W        W48084   7.223  10.192  12.020  0.6253  0.1613  0.0405
31611W        W48085   3.525   3.137  13.701  0.2564 -0.1566 -0.1109
31612W        W48086   5.996   5.490   1.571 -0.3235  0.0742  0.2588
31613W        W48087   8.554  17.899   4.900  0.2448 -0.0019  0.1616
31614W        W48088  13.343   7.290   0.573  0.2252 -0.3807  0.1583
31615W        W48089  12.063   2.600   3.202  0.1811 -0.0590  0.1120
31616W        W48090   8.633   7.255  14.013  0.0045  0.0006 -0.1722
31617W        W48091  12.023  10.426   5.424 -0.3263  0.0310 -0.2381
31618W        W48092  14.772   2.929   4.961 -0.3893 -0.1625  0.0380
31619W        W48093  13.129   9.728   4.807  0.0055 -0.0450  0.0726
31620W        W48094   9.338  16.675  15.993 -0.1206  0.0507  0.1043
31621W        W48095   4.691   9.775  14.022  0.1272  0.0303 -0.3561
31622W        W48096  10.026  16.607  15.473 -0.1425 -0.0345 -0.1272
31623W        W48097  11.413   9.079  14.524 -0.1574  0.0078 -0.2045
31624W        W48098   4.376  15.358   5.353  0.2144 -0.0656  0.0267
31625W        W48099   0.447  14.718   3.191  0.2364  0.0120 -0.1097
31626W        W48100  11.798   3.373   2.536 -0.0611 -0.0266 -0.2816
31627W        W48101  10.966  10.117   3.328 -0.0481 -0.0441  0.1953
31628W        W48102  13.672  17.672  12.109 -0.0888 -0.1572 -0.0534
31629W        W48103   6.175  10.435   0.534 -0.0398 -0.1357 -0.1569
31630W        W48104   5.953  12.824  14.208 -0.1548  0.2494 -0.2284
31631W        W48105   7.295  14.253   2.233 -0.0850 -0.0106  0.0786
31632W        W48106   4.914  11.569  13.926 -0.2825  0.1853  0.1196
31633W        W48107  14.677  14.029  12.451 -0.0310  0.1538 -0.0024
31634W        W48108  12.343   2.087  13.496  0.1799  0.1092  0.0587
31635W        W48109  10.148  17.603  15.430  0.1003 -0.3697 -0.1082
31636W        W48110   2.542   0.289   0.260 -0.1001  0.2472 -0.0735
31637W        W48111   7.156   2.263  14.454 -0.1614  0.1534 -0.0663
31638W        W48112   6.434  10.664   5.387 -0.3064 -0.2577  0.2371
31639W        W48113  17.645   6.409   1.147 -0.0381 -0.0727 -0.3683
31640W        W48114   4.881   5.625  14.560  0.0670 -0.1167 -0.1003
31641W        W48115   3.720   9.042  13.302 -0.2033  0.0582  0.3242
31642W        W48116  13.913  17.173   2.442  0.2294  0.1017 -0.0522
31643W        W48117   5.791  13.784   2.659 -0.1512 -0.1991 -0.2277
31644W        W48118  16.221  12.533  12.169  0.2741 -0.1711 -0.1149
31645W        W48119  14.198  11.791   1.799  0.0052  0.1752 -0.1496
31646W        W48120  13.718   3.557   4.845  0.3551  0.3155 -0.3495
31647W        W48121   4.001   8.769  12.970 -0.3831  0.3048  0.1692
31648W        W48122  12.917   7.654   0.464  0.1465  0.0717  0.0598
31649W        W48123   2.259  18.187   2.885  0.2861 -0.2018  0.0490
31650W        W48124   2.211   4.315  14.452 -0.0766  0.0467 -0.0054
31651W        W48125   6.513  14.215   2.769 -0.0839  0.3019 -0.0209
31652W        W48126  15.377   9.356   4.136 -0.1023  0.3480 -0.0351
31653W        W48127   5.174   8.898   0.081 -0.1018 -0.1337 -0.1454
31654W        W48128   5.179  14.442   2.973  0.2748 -0.1986 -0.0615
31655W        W48129  16.776   2.310   2.804 -0.0184 -0.1559 -0.1672
31656W        W48130  13.147  10.758   1.336 -0.0251  0.0633 -0.2058
31657W        W48131  17.740  13.193  14.310  0.1140  0.1112 -0.3928
31658W        W48132   5.193  15.566   5.329  0.0862 -0.1085 -0.0084
31659W        W48133   0.838  13.445  15.014 -0.2020 -0.2247  0.1845
31660W        W48134   5.619   0.669  12.803 -0.0123 -0.1795  0.2234
31661W        W48135   6.054   2.983   4.120  0.1105 -0.0498 -0.2534
31662W        W48136  11.588  13.330   5.845 -0.3575  0.4808  0.1107
31663W        W48137   8.958  12.990  11.176 -0.0215  0.2252 -0.1576
31664W        W48138  12.160   2.367  14.700  0.1369 -0.0513  0.0280
31665W        W48139   5.588   6.644   2.751 -0.0555 -0.0160 -0.0870
31666W        W48140  13.736  11.547   3.104 -0.3358 -0.2323  0.0024
31667W        W48141  15.407   7.917   0.620 -0.2334 -0.0961 -0.0221
31668W        W48142  11.048  17.315   1.396 -0.0120 -0.5881  0.3174
31669W        W48143   7.624  17.370   1.684  0.0463  0.1065 -0.1266
31670W        W48144  13.574   2.839  15.008  0.1060  0.0281  0.1531
31671W        W48145  18.079  14.559   0.668 -0.0394  0.0232 -0.0325
31672W        W48146  18.007  10.181  14.233  0.0169  0.0609  0.0764
31673W        W48147  11.469   1.318  11.835  0.0139 -0.1598  0.1630
31674W        W48148   7.153   6.646   0.355  0.1156 -0.0051 -0.2198
31675W        W48149  17.162   2.644  11.703  0.0684  0.0176 -0.4861
31676W        W48150   6.461  16.574  14.464 -0.1516  0.2478  0.0939
31677W        W48151  13.012  15.661   2.617  0.3422 -0.0912  0.3413
31678W        W48152   5.154  15.922  11.141  0.2016  0.0925  0.0541
31679W        W48153  17.560   8.830   2.901  0.3095  0.3956 -0.0231
31680W        W48154  17.716  13.939   1.959 -0.0755 -0.0621  0.0421
31681W        W48155  17.329  11.363   4.809  0.1343  0.2808 -0.0896
31682W        W48156   5.768   5.736   3.337 -0.0810 -0.0360 -0.0925
31683W        W48157  15.589   3.157  13.049  0.2828 -0.2195  0.0630
31684W        W48158   2.907   2.647   0.212 -0.0583 -0.1926 -0.1346
31685W        W48159   0.090   2.074   2.790  0.1112  0.0824  0.0045
31686W        W48160   3.424   7.477  15.823 -0.1787 -0.1271 -0.0828
31687W        W48161   6.843  11.161  14.087  0.2760  0.1324  0.2813
31688W        W48162   4.659  11.220  13.647 -0.0895 -0.2090 -0.2588
31689W        W48163   0.371   4.187  14.143 -0.0741  0.2069  0.1181
31690W        W48164  10.210   5.596   1.467  0.0270  0.1737 -0.1331
31691W        W48165   7.967   3.698  12.467 -0.3136 -0.0528 -0.0534
31692W        W48166   0.902   0.053  13.767  0.2276 -0.3106 -0.0611
31693W        W48167  14.743   6.088  11.577 -0.1274 -0.5032  0.1266
31694W        W48168   5.912  11.361   4.636 -0.1723 -0.1570  0.3146
31695W        W48169   7.259  11.743   2.533  0.1419 -0.4666  0.4367
31696W        W48170  10.312   8.674   2.988 -0.3485  0.0039  0.0973
31697W        W48171  13.659  17.652  14.263  0.2073 -0.3682  0.0302
31698W        W48172   0.818   6.385  13.510 -0.0447 -0.0332  0.2347
31699W        W48173   1.763  12.394   1.144 -0.0680  0.1740  0.0775
31700W        W48174   8.194   2.790  15.002 -0.0165  0.1606 -0.2073
31701W        W48175  16.948   6.108  11.313  0.1632 -0.0800  0.1092
31702W        W48176   6.757   6.441   2.935  0.0030 -0.1323  0.2399
31703W        W48177  17.202   4.316  16.099 -0.1138  0.1452  0.0567
31704W        W48178   5.462  16.789  13.929  0.1570  0.0173 -0.0619
31705W        W48179  16.993   2.553   0.960  0.3227 -0.1813 -0.0960
31706W        W48180  12.494  11.726  15.113 -0.1186 -0.2102  0.3791
31707W        W48181  13.179   8.680   4.685  0.1568 -0.0807 -0.0127
31708W        W48182  11.835  10.469  16.091  0.2571  0.1049 -0.0338
31709W        W48183  11.000   7.492  15.284 -0.0049  0.1049 -0.0292
31710W        W48184  16.239  16.058  16.115  0.0909 -0.2505  0.2369
31711W        W48185   8.937   1.018  14.793 -0.0527  0.1051 -0.0427
31712W        W48186   5.225  12.151   4.407  0.0551 -0.3436 -0.2206
31713W        W48187   3.673  11.134  11.623  0.2204 -0.1458  0.3082
31714W        W48188  17.534  15.194  14.303 -0.0541 -0.0481 -0.1066
31715W        W48189   0.283   8.735  14.362  0.1388  0.0783 -0.5280
31716W        W48190  13.852  10.291   5.084 -0.0582 -0.2098  0.1023
31717W        W48191  12.132  16.286   2.420  0.2531 -0.1165 -0.2163
31718W        W48192   7.471  12.141   0.461  0.2383 -0.3410 -0.0616
31719W        W48193   2.845   8.308   2.388  0.1127 -0.2899 -0.1398
31720W        W48194  12.888  14.521   1.286  0.0517 -0.0059  0.0826
31721W        W48195   3.307  12.687   3.193 -0.1488 -0.1071  0.0535
31722W        W48196  15.639   6.197  13.665  0.1261  0.2020 -0.2748
31723W        W48197  16.407   3.684   1.288 -0.3501  0.1565  0.2786
31724W        W48198   0.032  14.194  11.658  0.2107  0.0778  0.2937
31725W        W48199   4.856   6.118   6.496  0.1712 -0.0262 -0.0029
31726W        W48200   5.984  10.771   3.371 -0.0988 -0.0374 -0.2710
31727W        W48201  10.781   6.276   5.241 -0.2380  0.1755 -0.3445
31728W        W48202   7.363  14.976  14.865 -0.2825  0.0070  0.1752
31729W        W48203  10.192  14.635   5.360 -0.0101  0.2537 -0.0689
31730W        W48204   7.002  13.936   1.926  0.0878  0.2784  0.1489
31731W        W48205   5.789   1.334   6.099 -0.3361  0.2765  0.1503
31732W        W48206  10.706  17.028  12.575  0.1532 -0.2637  0.0142
31733W        W48207   5.763   3.728  15.761 -0.3067  0.1827  0.0013
31734W        W48208  13.673   2.286  12.256 -0.1797  0.0597  0.2580
31735W        W48209  11.851   1.426  14.577  0.0604 -0.2655 -0.0121
31736W        W48210   4.417  10.638   0.290 -0.0614 -0.1512  0.2244
31737W        W48211   7.290   0.061  12.259 -0.1179 -0.3054  0.0806
31738W        W48212   0.561   2.375  11.043  0.2661 -0.1970  0.0752
31739W        W48213  12.498   3.081  13.487 -0.3734 -0.0971 -0.0706
31740W        W48214  14.908   0.012  14.610  0.3002 -0.0827  0.0794
31741W        W48215  12.505   4.320   0.260 -0.1441 -0.0480 -0.0446
31742W        W48216  17.854  15.843   3.486 -0.1561  0.1060 -0.0863
31743W        W48217   7.174   5.419  11.583  0.0660  0.1543  0.1210
31744W        W48218  17.687  13.770  11.123 -0.0889 -0.0408 -0.0065
31745W        W48219   7.163  12.238   2.660  0.1384  0.1735  0.2710
31746W        W48220   9.901   6.655   4.924  0.2516  0.1085  0.0069
31747W        W48221   7.241   0.872  15.143  0.0281  0.1575 -0.1826
31748W        W48222   4.140  11.624   0.774  0.0129  0.2383  0.1460
31749W        W48223   7.000   3.728   4.721  0.1404  0.2155  0.0241
31750W        W48224  14.033   3.918   3.068 -0.0320 -0.2051  0.1433
31751W        W48225  17.566  12.327  14.777  0.0667 -0.0715 -0.2314
31752W        W48226   7.840  16.565  12.631  0.1482  0.0524  0.1609
31753W        W48227  17.021   2.613  11.163  0.2230 -0.1429  0.1886
31754W        W48228  17.413  14.846   1.384 -0.2228 -0.1291  0.0397
31755W        W48229  16.045   0.825   2.841  0.2048 -0.0103 -0.1823
31756W        W48230   6.074   8.922   5.179 -0.0017  0.1089 -0.2262
31757W        W48231  12.804  10.950   2.121  0.1233  0.0410  0.1494
31758W        W48232  16.346  11.393   3.230 -0.0762  0.2682  0.0084
31759W        W48233  11.872   0.603   4.444  0.2408 -0.1101  0.1871
31760W        W48234   0.116   1.063  14.427 -0.3680 -0.2637 -0.0160
31761W        W48235  12.965   7.273  16.008  0.2759 -0.0441  0.0148
31762W        W48236   2.815  10.435   1.036  0.1046 -0.2450  0.4163
31763W        W48237  16.945   4.883   0.607 -0.3553 -0.1463  0.0092
31764W        W48238  14.983  13.945  14.588 -0.1679  0.1503  0.0831
31765W        W48239   7.223   1.278  12.623 -0.2833 -0.0273 -0.1424
31766W        W48240   3.445  17.940  11.564  0.2630  0.2343 -0.1278
31767W        W48241   0.338  10.996   4.781  0.0682  0.0417  0.0709
31768W        W48242   2.197  16.659  14.051 -0.0908 -0.0389 -0.3397
31769W        W48243   8.975   2.416   4.432  0.1140 -0.1389  0.0024
31770W        W48244   3.555  13.165  11.587  0.1895 -0.0249 -0.0597
31771W        W48245   7.102   0.237   3.413 -0.3418  0.0144  0.1041
31772W        W48246  18.251  12.605   0.534  0.0868  0.1622  0.0265
31773W        W48247  12.498  15.723   4.027 -0.2424 -0.1939 -0.0551
31774W        W48248  18.109   5.437  12.313 -0.0279  0.0453 -0.1061
31775W        W48249  10.485   1.645  15.203  0.1076  0.0329 -0.1083
31776W        W48250   6.996   5.542  13.186 -0.0840  0.1974  0.2677
31777W        W48251   8.744  11.228   4.441  0.0176 -0.0686  0.0846
31778W        W48252   7.852   8.053  14.744 -0.0545  0.1181  0.1378
31779W        W48253  14.592   3.807  11.260  0.2342  0.1604  0.1970
31780W        W48254  12.792  17.365   3.901 -0.0106 -0.4040  0.3777
31781W        W48255  12.340  13.638  15.268 -0.0238 -0.2274  0.0724
31782W        W48256   3.810   3.785  12.662 -0.1477 -0.2474  0.0543
31783W        W48257   8.419  15.787  11.866  0.0721  0.1638 -0.3101
31784W        W48258  13.335  11.562  11.441  0.4455 -0.2318  0.0994
31785W        W48259  15.432  17.326   0.839 -0.1882 -0.0066  0.0330
31786W        W48260  17.637  12.679  11.573  0.1193 -0.2137 -0.0309
31787W        W48261   6.207  10.963   0.462  0.0453  0.2031 -0.0585
31788W        W48262   2.298  14.699   1.796  0.1392 -0.2681 -0.0472
31789W        W48263  16.333  14.449  14.913 -0.0509  0.1223  0.2800
31790W        W48264  10.371   7.411  11.909  0.0529  0.0618 -0.1216
31791W        W48265  10.032  10.563  16.294 -0.0056  0.1253 -0.0815
31792W        W48266  17.629   8.001   0.459 -0.1701 -0.1949 -0.0814
31793W        W48267   8.941  11.726  13.927 -0.0330  0.1722 -0.1518
31794W        W48268   5.667  10.021  12.970 -0.0727  0.2462  0.0511
31795W        W48269   8.608  10.549  14.148  0.0085  0.0332 -0.0759
31796W        W48270  17.348   8.393   4.632 -0.1863  0.0958  0.3581
31797W        W48271   8.206   1.343   3.289 -0.1497  0.0515 -0.2090
31798W        W48272  14.905   3.432  11.160  0.0601  0.0662 -0.0897
31799W        W48273  13.627  13.521  13.628 -0.0758 -0.2235 -0.1634
31800W        W48274   8.043   4.987   2.004 -0.1386 -0.1018 -0.1315
31801W        W48275   4.803  17.417  14.092 -0.0445  0.1420  0.0353
31802W        W48276  15.759   2.274  13.226 -0.2614  0.1228 -0.1948
31803W        W48277   6.959   6.770  15.865 -0.1408 -0.1666 -0.0345
31804W        W48278   9.229   0.355  15.158 -0.0941  0.0389  0.1178
31805W        W48279   5.273  12.898  11.267 -0.0986 -0.3241  0.1387
31806W        W48280  11.514  11.687  14.978  0.1496 -0.2950 -0.1813
31807W        W48281  17.404  18.201  15.172 -0.0023  0.1484 -0.1748
31808W        W48282  16.373   5.830  15.576 -0.1341  0.1230 -0.1424
31809W        W48283   1.238   5.168  14.015  0.1082  0.1705 -0.3582
31810W        W48284   4.108   6.278   3.737 -0.0842  0.0753  0.0518
31811W        W48285   1.588  14.331  13.511  0.0792  0.2369 -0.0360
31812W        W48286   3.850   1.837   2.943  0.1664 -0.2586 -0.3330
31813W        W48287  13.004   7.993   2.061  0.3837  0.1358  0.0773
31814W        W48288  11.509   1.796  14.435  0.0939  0.1054  0.0277
31815W        W48289   3.473   8.077   0.780  0.3479  0.0594  0.0694
31816W        W48290   2.296   5.614   0.480 -0.0623 -0.2935  0.0906
31817W        W48291   8.381   4.755  16.115 -0.1951  0.1623  0.1027
31818W        W48292   5.145   5.093  14.507  0.0030 -0.3751  0.0621
31819W        W48293   1.581  14.694   3.563 -0.3070 -0.3236 -0.1381
31820W        W48294   5.530  11.119  16.045  0.2869 -0.0641  0.1762
31821W        W48295   8.959   1.252  10.702 -0.0691 -0.0746 -0.1599
31822W        W48296   2.241   5.480   0.999 -0.0013  0.0857  0.4190
31823W        W48297   5.372   6.700   5.440 -0.1197 -0.3099  0.0108
31824W        W48298  11.105  17.770   1.773 -0.1469  0.1174  0.1029
31825W        W48299  11.818   7.914  11.392 -0.0126  0.0913  0.0071
31826W        W48300  10.516  13.262  15.199  0.0679  0.1413  0.0489
31827W        W48301  13.156   7.059   0.070 -0.1026 -0.1544 -0.0719
31828W        W48302  15.181  13.445   1.852 -0.2870  0.0512  0.1980
31829W        W48303   1.039  11.924  14.392  0.0212 -0.0234 -0.0931
31830W        W48304  15.108   3.932   3.123  0.1546 -0.0266 -0.1988
31831W        W48305  12.834  10.368   2.245 -0.1151 -0.0849 -0.1905
31832W        W48306   3.086  15.295  13.123 -0.0249  0.0226 -0.0310
31833W        W48307  14.543  11.773  12.608 -0.3006 -0.1344  0.0107
31834W        W48308   5.517   5.620  11.938 -0.1489  0.0956 -0.2735
31835W        W48309   2.992  12.842  11.401  0.1891 -0.3117  0.4279
31836W        W48310   4.914   2.968   1.772  0.0551  0.1362 -0.1032
31837W        W48311   0.505  15.576  12.830  0.1365 -0.1511  0.1254
31838W        W48312   3.043  11.162  15.769  0.2512 -0.1009  0.4040
31839W        W48313   7.277   5.320  13.707  0.0374  0.0999 -0.1853
31840W        W48314   9.788  10.854   5.536  0.0374  0.1016 -0.0926
31841W        W48315   7.018   2.423   1.317 -0.0739 -0.0370  0.3538
31842W        W48316   2.625   5.694  15.233  0.1135  0.1568 -0.1516
31843W        W48317   8.215  11.746  11.225 -0.1800 -0.1846 -0.2266
31844W        W48318  14.892   4.659  10.888  0.0682 -0.0462 -0.1336
31845W        W48319  16.000  12.923   1.649  0.1517  0.0835  0.2032
31846W        W48320  10.101   5.136  15.603 -0.3338 -0.0232  0.0110
31847W        W48321  17.586   0.633  14.622 -0.1907 -0.1053  0.2468
31848W        W48322   7.702   5.320   3.083 -0.1957 -0.2120 -0.2904
31849W        W48323   0.192   3.955   0.050  0.2464  0.2758 -0.0358
31850W        W48324   9.709  18.167  14.029 -0.2150 -0.0702 -0.1326
31851W        W48325  16.815   9.616   2.616  0.3428  0.1614 -0.1006
31852W        W48326  10.087   7.694   2.293 -0.4661  0.2916 -0.0635
31853W        W48327  12.591  12.187  15.282 -0.0381  0.5061  0.0542
31854W        W48328   8.438  14.551   0.958  0.0241 -0.0703 -0.1150
31855W        W48329  14.005  15.376  11.532  0.1416  0.1149  0.3505
31856W        W48330   7.226  13.182  11.507  0.0511 -0.1450  0.2869
31857W        W48331   9.615   6.837  11.302 -0.2896 -0.6514  0.1500
31858W        W48332   9.625  11.233   4.229 -0.0330 -0.1879 -0.0647
31859W        W48333   6.387   6.996   1.449  0.2352  0.0995 -0.3659
31860W        W48334   2.702   9.844   2.194 -0.2039 -0.0295 -0.1346
31861W        W48335   1.315  16.183   2.897 -0.4265  0.1296 -0.0027
31862W        W48336   3.731  17.769   3.391  0.0305 -0.0114  0.0816
31863W        W48337  17.995   4.005   0.013 -0.1521 -0.4454 -0.4218
31864W        W48338   8.122   8.087   4.609  0.2187 -0.0453 -0.0571
31865W        W48339  13.267   0.084   3.435 -0.0202  0.1160 -0.2217
31866W        W48340  14.609   2.309   4.333  0.1294  0.0823  0.2824
31867W        W48341   3.505   0.182   3.587 -0.0426 -0.0886 -0.2078
31868W        W48342  15.669  11.943  14.793  0.3296 -0.1476  0.0699
31869W        W48343   9.573  14.220  13.334  0.0387  0.4122  0.0511
31870W        W48344  10.736   2.704  15.052 -0.1840  0.4368 -0.2738
31871W        W48345  13.617  13.401   3.967 -0.0721  0.0757 -0.0105
31872W        W48346   0.857   9.579  13.187 -0.4237  0.2089  0.1520
31873W        W48347   1.713  10.196  14.201  0.2105  0.0135 -0.0262
31874W        W48348  16.450  17.910  14.154 -0.0535 -0.0559  0.1320
31875W        W48349   0.341   0.901   0.100 -0.2593  0.1215 -0.1625
31876W        W48350   2.477  15.944  11.538  0.1401  0.0758 -0.1442
31877W        W48351   8.900  15.539   5.677 -0.3854  0.1151  0.1061
31878W        W48352   8.277  18.099  15.771 -0.1004  0.0104 -0.0788
31879W        W48353   2.390  18.100   5.561 -0.0818  0.1567 -0.1675
31880W        W48354   9.651   6.901  13.567 -0.4351 -0.2147  0.1551
31881W        W48355   0.479   7.037  14.013  0.0741  0.3426 -0.0348
31882W        W48356   0.547   3.360   1.564  0.1573 -0.2877 -0.3260
31883W        W48357  10.005   0.316  14.363 -0.0524 -0.3431 -0.1561
31884W        W48358   3.255  10.656   5.118 -0.1244 -0.1530 -0.1679
31885W        W48359  14.563  14.232  11.033  0.1573 -0.0967  0.0596
31886W        W48360   9.266  16.195   2.876 -0.0045 -0.1154 -0.3783
31887W        W48361  17.945  16.461   4.849  0.0107  0.1976  0.0248
31888W        W48362   3.943  15.755  13.469 -0.0612  0.0640  0.1015
31889W        W48363   9.832   8.647   4.542  0.2331 -0.1338 -0.0876
31890W        W48364   7.688  11.960   2.391  0.0776 -0.1250  0.1297
31891W        W48365  11.847   6.620   3.149 -0.3190 -0.1272  0.2583
31892W        W48366  13.272   4.868  11.937  0.1748 -0.1708  0.0725
31893W        W48367   0.001   3.451   3.574  0.1668  0.1744  0.1100
31894W        W48368   4.691   6.103   3.538 -0.0011 -0.2819  0.0396
31895W        W48369  17.555  17.448  16.160  0.0432  0.1026  0.1477
31896W        W48370   1.957  13.178  13.063  0.1632 -0.1560 -0.0909
31897W        W48371   4.098   3.897  15.148 -0.1890  0.1546  0.0433
31898W        W48372   0.372   1.861  14.073  0.3195 -0.0849  0.1707
31899W        W48373   5.290   8.454   1.184  0.2259 -0.1357 -0.0723
31900W        W48374  16.206   7.249   5.478  0.1600  0.0490 -0.2302
31901W        W48375   7.910   4.226  14.529  0.3842 -0.3737  0.1123
31902W        W48376   7.132  12.728   3.595 -0.1568  0.0177 -0.0678
31903W        W48377  13.304   5.270   3.930 -0.0521 -0.0441 -0.1509
31904W        W48378   1.222  14.419   4.689 -0.4611 -0.0368 -0.0208
31905W        W48379   8.690  13.767  15.066  0.1166 -0.0334  0.2252
31906W        W48380   4.163  13.009  12.332 -0.0985  0.3800  0.2063
31907W        W48381   5.478   7.096   1.086 -0.1052  0.2276  0.1869
31908W        W48382   1.677  14.662   5.634  0.2846  0.2047 -0.0184
31909W        W48383   0.462  17.775   1.894 -0.0836  0.0579  0.3004
31910W        W48384   4.363  13.187  11.414 -0.4105  0.0015  0.2233
31911W        W48385   8.156  11.567   4.794 -0.1958  0.2721 -0.1049
31912W        W48386  18.136   2.692  12.579 -0.2084  0.4278  0.2535
31913W        W48387  10.964   5.646   0.373  0.0003 -0.0648 -0.2177
31914W        W48388   4.855   6.011  16.197  0.0354 -0.1884  0.2088
31915W        W48389   4.241   1.448   5.391 -0.1890  0.0923 -0.3184
31916W        W48390  16.246   9.469  11.323  0.0947  0.1201 -0.0928
31917W        W48391   4.522  15.518  11.738  0.2545  0.2046 -0.2132
31918W        W48392   6.589   8.553   5.696  0.2096 -0.0281  0.3526
31919W        W48393  16.347   3.064  12.107 -0.1549 -0.0718 -0.0364
31920W        W48394   5.523  12.226  13.187  0.1194  0.6127  0.3098
31921W        W48395  14.804   8.314  15.790  0.0357 -0.1599 -0.3223
31922W        W48396   8.011   9.108   3.417  0.4286  0.2308  0.0059
31923W        W48397  17.851   3.654   3.326  0.2839  0.1776 -0.0469
31924W        W48398  10.283   1.235   6.112 -0.0907  0.0476  0.1549
31925W        W48399   6.353   7.808   1.857  0.1008 -0.1741 -0.1929
31926W        W48400   2.414  13.054  12.834  0.3212  0.0058  0.1663
31927W        W48401  13.548  11.054  14.099 -0.1584 -0.1907  0.1765
31928W        W48402  13.214  14.596   3.362 -0.0420 -0.1947  0.0364
31929W        W48403  13.862   3.911  15.581  0.1748 -0.3077 -0.0508
31930W        W48404  17.850  11.799   1.455  0.0124 -0.1877  0.1226
31931W        W48405  16.989   3.342   4.350  0.2799 -0.1299  0.4813
31932W        W48406  13.059  10.660   5.179  0.0970  0.1862  0.1624
31933W        W48407   8.143   4.075  14.919  0.0528  0.0841  0.1150
31934W        W48408   9.823   6.389  13.766 -0.0949 -0.0183  0.1680
31935W        W48409  17.323  14.984  12.711  0.0583  0.0313 -0.0614
31936W        W48410  15.825   1.140   4.594  0.0456  0.3046 -0.0513
31937W        W48411   6.713   6.644  13.073  0.0594  0.2781 -0.2394
31938W        W48412  17.594   0.294   3.422  0.2690 -0.1663 -0.0657
31939W        W48413   6.264   0.922   2.574  0.3948  0.0209  0.0562
31940W        W48414   5.597   4.360  14.650 -0.1869 -0.2053  0.1277
31941W        W48415  13.088  12.291   6.615 -0.0500  0.0005  0.0309
31942W        W48416  16.538   9.512  15.351  0.1189  0.1000 -0.1051
31943W        W48417  17.069  17.841  13.180 -0.0767 -0.2977  0.0922
31944W        W48418  10.570  11.703  11.304 -0.0231 -0.0679 -0.0051
31945W        W48419   5.396  11.105  14.168 -0.1028 -0.0049 -0.2149
31946W        W48420  13.879   4.797  12.551 -0.0721  0.1784  0.1942
31947W        W48421   4.178  11.907  15.614  0.1374  0.0062  0.1624
31948W        W48422  12.516  16.439  13.844  0.1664 -0.4284  0.0118
31949W        W48423  16.090   6.051   0.432 -0.2695  0.0188 -0.2582
31950W        W48424   6.777   8.158   5.406 -0.1308 -0.1648  0.0338
31951W        W48425   4.660  17.607  13.229 -0.0758  0.0379 -0.3458
31952W        W48426  10.637  17.750   1.389 -0.0709 -0.3038  0.1317
31953W        W48427   2.787  13.416   1.908 -0.0328 -0.2870  0.0428
31954W        W48428  12.943  17.347   2.153  0.0695  0.0402  0.1836
31955W        W48429  13.877   1.185  12.639 -0.1915  0.1218 -0.0209
31956W        W48430  17.618   9.543  14.152 -0.0448  0.2805 -0.1641
31957W        W48431  15.098  11.289   1.470 -0.2757 -0.3163 -0.0741
31958W        W48432   1.098   6.681  11.739  0.0809 -0.1466 -0.1032
31959W        W48433  14.705  17.989  15.952  0.2152  0.2813 -0.3719
31960W        W48434  14.634  16.434  13.916  0.3316  0.1347 -0.0027
31961W        W48435   4.805  11.373   0.083  0.1680  0.2248 -0.2925
31962W        W48436  11.796   6.517   0.123  0.2480  0.3108 -0.1198
31963W        W48437   4.383   1.463   1.235 -0.0018  0.0843 -0.0711
31964W        W48438  12.931   2.189   4.811 -0.6077  0.0473 -0.0904
31965W        W48439   8.881  16.870  14.301 -0.2567 -0.3725  0.0148
31966W        W48440   7.102   0.732   5.184  0.2750 -0.2241  0.0799
31967W        W48441   0.613   7.439  14.351  0.1630 -0.2914  0.0841
31968W        W48442   4.169   8.964  13.433 -0.1656  0.3417 -0.4466
31969W        W48443  11.050   1.699  13.067  0.1950  0.0566 -0.0248
31970W        W48444   0.083   8.031   0.889 -0.2732  0.4778 -0.0001
31971W        W48445  15.800  14.911  13.887 -0.4911  0.2231  0.1449
31972W        W48446  13.402   7.195   4.480  0.1004  0.0866 -0.0542
31973W        W48447   7.384   8.412   4.667 -0.1384  0.3264 -0.0216
31974W        W48448  14.627  13.479  15.246  0.3510  0.2383  0.0824
31975W        W48449  17.976   3.852   0.926  0.1376  0.2850  0.0388
31976W        W48450   8.542  14.990  13.767  0.1720 -0.2170  0.1900
31977W        W48451   4.279   9.873   5.600 -0.2555  0.0556 -0.2368
31978W        W48452   5.066   6.741   5.906 -0.2012  0.1187  0.2667
31979W        W48453  13.464   0.133  13.499  0.1221 -0.3665 -0.0924
31980W        W48454  14.887  17.531  11.196 -0.1397  0.0766  0.1013
31981W        W48455   1.736  13.378   5.203 -0.2064 -0.0593 -0.4924
31982W        W48456   8.819   2.665  14.164 -0.1395 -0.2881 -0.0906
31983W        W48457  12.792   7.049  13.124  0.0319  0.0223  0.2193
31984W        W48458  13.745   1.828   3.918  0.0137 -0.0254  0.0200
31985W        W48459   0.068   0.804   5.741 -0.0410  0.1015 -0.3018
31986W        W48460   9.128  16.727   3.128 -0.0435 -0.1828 -0.3000
31987W        W48461  12.172   8.757  16.299  0.0385  0.0867 -0.3559
31988W        W48462  12.767   3.804   0.701  0.2037  0.1092  0.1824
31989W        W48463   2.502  15.213  11.444  0.1330 -0.3563 -0.2569
31990W        W48464  17.297  17.897  16.061  0.1490 -0.0267  0.1365
31991W        W48465   5.321   8.528   2.894 -0.2267 -0.2501  0.0781
31992W        W48466  13.602  15.843   6.056  0.4254 -0.1482  0.3386
31993W        W48467   2.527   3.153   2.883  0.1436 -0.0524 -0.2372
31994W        W48468  11.606   8.273  13.554  0.1959 -0.1264  0.1159
31995W        W48469   4.366   1.211  11.845 -0.0016  0.1685 -0.0115
31996W        W48470   3.091  13.538   0.426 -0.1076 -0.2344  0.0613
31997W        W48471   0.909  12.376   4.615  0.1403 -0.0438 -0.1170
31998W        W48472   7.081   9.304  15.596  0.0734 -0.2457 -0.0179
31999W        W48473  18.021   9.323  14.981 -0.0601  0.1587  0.0651
32000W        W48474  12.514  11.560   1.633  0.0369  0.1908  0.1074
32001W        W48475   8.615  14.772   3.483 -0.0193 -0.1275  0.2085
32002W        W48476  16.686   5.302  13.903  0.1615  0.0738 -0.2267
32003W        W48477   9.379   2.049   2.681 -0.5802  0.0879  0.0568
32004W        W48478   0.067   5.005   1.224  0.1398 -0.2741 -0.3886
32005W        W48479   3.003   5.383  13.119  0.1543  0.0912 -0.1848
32006W        W48480   5.615  12.571   4.563 -0.2318 -0.1316  0.1294
32007W        W48481  16.177  12.835  11.745 -0.0024  0.1721  0.3383
32008W        W48482   1.440   7.489  11.974  0.3524 -0.1023  0.0618
32009W        W48483  17.526  11.381   3.998 -0.3825  0.4023  0.0440
32010W        W48484  15.794  10.747  14.080  0.1157  0.0340 -0.1456
32011W        W48485   5.971   0.106  12.429  0.0572  0.1699 -0.0605
32012W        W48486   5.868  14.643   3.247 -0.2347  0.1146 -0.1025
32013W        W48487  14.870  15.480  14.783  0.1874  0.0657 -0.0375
32014W        W48488  16.347  17.923   3.738 -0.1039  0.1084  0.0595
32015W        W48489  18.110   5.176   3.037 -0.0723 -0.1481 -0.2984
32016W        W48490   0.141   1.983  13.125 -0.0606  0.0408  0.1304
32017W        W48491   5.812   0.188  16.046 -0.0490  0.1965 -0.1773
32018W        W48492  13.083   9.834  14.501  0.1161  0.1486  0.0391
32019W        W48493   6.449   0.897   3.387 -0.0671  0.0603 -0.1165
32020W        W48494  14.120  16.875  12.610  0.0311  0.2885  0.1087
32021W        W48495   1.525   0.940  11.791  0.1390  0.1944 -0.2433
32022W        W48496  12.400   2.263   4.350  0.1627 -0.1171 -0.0601
32023W        W48497   0.818  15.468   2.452  0.2493  0.2974  0.0841
32024W        W48498   0.972  11.136   4.094  0.0228 -0.2224 -0.0418
32025W        W48499   2.566   4.118   5.993  0.0108  0.0383  0.3875
32026W        W48500  17.013   9.182  13.148  0.4010  0.0977 -0.0296
32027W        W48501  16.964  16.590   4.747 -0.0113  0.2885 -0.1010
32028W        W48502   1.827  17.085  10.992  0.1994 -0.2974 -0.0320
32029W        W48503   5.825  16.860   1.240  0.0917 -0.2710 -0.0412
32030W        W48504   3.244   2.788  11.132 -0.0762  0.2044 -0.1469
32031W        W48505   0.661  12.104  15.257 -0.0999 -0.0394 -0.2657
32032W        W48506   6.898   4.812   0.619  0.0401  0.0824 -0.1535
32033W        W48507   9.632  17.464  14.494 -0.1658 -0.2261  0.1981
32034W        W48508   2.858   0.946   2.534 -0.1813 -0.0364 -0.1338
32035W        W48509  10.921  12.647  13.326 -0.3853 -0.3680  0.1075
32036W        W48510   1.387   2.290  15.819 -0.0614  0.2380 -0.1305
32037W        W48511   9.875   3.961  12.247 -0.0681 -0.1630 -0.1885
32038W        W48512  17.367  17.814  11.808  0.0969  0.1182  0.2292
32039W        W48513   4.639   0.267  14.488 -0.1203  0.0758  0.0111
32040W        W48514  15.335  11.358  12.462  0.4389  0.2287  0.0997
32041W        W48515   1.987   0.590  13.086  0.0768 -0.1611  0.0583
32042W        W48516  12.120  14.845   3.440  0.0229  0.1044  0.0693
32043W        W48517   4.365   6.230  12.176 -0.1275  0.1318  0.0173
32044W        W48518  12.864  17.536   5.249  0.1743 -0.0039 -0.1481
32045W        W48519  12.112   1.957   1.306  0.1768 -0.1437 -0.1639
32046W        W48520  16.993   4.751  14.725 -0.1557 -0.1591 -0.0925
32047W        W48521  17.208   5.133  14.969  0.0408  0.1954 -0.1617
32048W        W48522  11.538   4.493  14.226 -0.2223 -0.2139 -0.2461
32049W        W48523  10.833  11.679   0.627 -0.2697  0.2571  0.1807
32050W        W48524  10.712   7.994  12.491 -0.3902  0.0300 -0.0256
32051W        W48525   7.002   5.716   0.680 -0.2362 -0.0627  0.0517
32052W        W48526   2.027  15.200  16.184  0.0260 -0.1611  0.0876
32053W        W48527   7.151  11.287   0.653 -0.0795 -0.0724 -0.1417
32054W        W48528  10.237  14.096   5.258  0.3189  0.1527  0.3312
32055W        W48529  14.330   5.598   0.249 -0.0813  0.1056 -0.0072
32056W        W48530   9.539  16.468  14.916  0.0418 -0.1472 -0.1193
32057W        W48531   7.835  13.185   1.873  0.0161  0.0606  0.0328
32058W        W48532  12.228   1.083  15.592 -0.3560  0.1762  0.2336
32059W        W48533  13.485   6.700   3.270  0.0266 -0.1849  0.2105
32060W        W48534   8.773  11.485  13.440 -0.1409  0.1306 -0.0158
32061W        W48535  10.119  13.332  15.921  0.1071 -0.0241 -0.0842
32062W        W48536   1.785  12.342  14.343 -0.1671 -0.5331  0.3081
32063W        W48537   8.641   9.092  13.284 -0.1537 -0.1123 -0.1455
32064W        W48538   4.651  11.565  11.830 -0.0823  0.0778  0.1322
32065W        W48539  10.640   7.109   1.838  0.0371  0.0041  0.1405
32066W        W48540   9.275   5.833  11.327  0.0968 -0.1271 -0.2819
32067W        W48541  12.476  18.126   3.830  0.0027 -0.0129  0.1691
32068W        W48542   7.220  16.407   0.436  0.1921  0.0585 -0.2968
32069W        W48543  11.236   4.402   5.544 -0.0415 -0.0618  0.1686
32070W        W48544  13.027   0.130  13.873 -0.0646  0.1622  0.1001
32071W        W48545  10.924   9.677   1.204 -0.1730  0.1601  0.0236
32072W        W48546   8.428  15.713   2.689 -0.2659  0.1350  0.2094
32073W        W48547   3.480  12.849  16.229 -0.1369  0.2885 -0.0494
32074W        W48548   9.191  11.637  16.074 -0.1127 -0.0074 -0.2519
32075W        W48549  14.481  16.194  13.423  0.1270 -0.0981  0.2037
32076W        W48550   0.206  17.864   4.427  0.3652 -0.2085 -0.1006
32077W        W48551  10.022  12.763   2.666  0.1104  0.2435  0.0235
32078W        W48552   6.869  16.916  14.338 -0.0917  0.1293 -0.2538
32079W        W48553  10.170   6.406   1.081  0.2188 -0.1973  0.2398
32080W        W48554  17.421  11.453   0.039 -0.1878 -0.0579 -0.2724
32081W        W48555   1.769   1.167  15.175  0.0615 -0.0524  0.3347
32082W        W48556   3.746  10.162  14.159  0.1981 -0.1074  0.0825
32083W        W48557  17.759  14.191   3.921  0.0290 -0.0578 -0.1430
32084W        W48558  16.541   6.534  12.733  0.0797  0.0922  0.0207
32085W        W48559  13.627  10.549   0.207 -0.1972 -0.0740  0.2175
32086W        W48560  16.346  17.907  15.781  0.1068 -0.2568 -0.0658
32087W        W48561   9.680  13.929   2.405 -0.2520  0.0611 -0.0693
32088W        W48562   0.253  18.090   4.876 -0.0539 -0.3847 -0.1122
32089W        W48563   9.376  15.483   0.706 -0.1128 -0.0316 -0.0559
32090W        W48564  17.326  17.060   0.150  0.3553 -0.1175 -0.0758
32091W        W48565   4.853  10.897   4.338  0.2087  0.2001 -0.0649
32092W        W48566   2.438   7.291  12.031 -0.0977 -0.0823  0.1616
32093W        W48567   8.824  17.594  12.447  0.0714 -0.0062  0.2676
32094W        W48568   9.024  11.426   1.289 -0.1476 -0.2759 -0.1594
32095W        W48569  15.041  14.897   4.962 -0.1640  0.1693 -0.0374
32096W        W48570  16.874   8.523   4.741  0.2664 -0.3065  0.3815
32097W        W48571  11.465   5.291  11.099  0.5810 -0.0460 -0.2418
32098W        W48572   8.732   9.614   2.688 -0.0876 -0.2248 -0.1217
32099W        W48573  18.302  14.158   5.238  0.0841 -0.0510  0.0362
32100W        W48574   1.724   4.999  15.730 -0.0130  0.2036  0.2111
32101W        W48575  14.520  10.901  16.153 -0.1799 -0.2239  0.0614
32102W        W48576  17.779   1.030  15.932 -0.0514  0.0308 -0.2622
32103W        W48577   0.496  13.739   5.477 -0.0655 -0.4925  0.2361
32104W        W48578   7.235  15.325   4.941  0.2151 -0.1166  0.2595
32105W        W48579  17.479  10.255   2.961  0.1422  0.0187 -0.2207
32106W        W48580  10.013   4.205  15.164  0.0120  0.1094  0.1735
32107W        W48581   0.426   3.571   3.971 -0.0997  0.1419  0.0316
32108W        W48582   1.209   6.538   4.241  0.0380  0.1230 -0.0869
32109W        W48583  12.821   5.231   4.969 -0.1846  0.0885  0.1151
32110W        W48584   9.407  13.419   2.401 -0.0418 -0.0368 -0.1276
32111W        W48585  10.529  11.013  12.507 -0.1637  0.0110 -0.0528
32112W        W48586   0.422   7.902   5.187 -0.0942  0.1880 -0.0147
32113W        W48587  11.025  16.128   5.931 -0.0253  0.3790  0.1147
32114W        W48588  13.506  12.650  11.902  0.1333  0.2831  0.0260
32115W        W48589  16.936  16.073  15.009  0.3849  0.1817  0.1349
32116W        W48590   1.795   4.298  12.554  0.2820  0.0042  0.3026
32117W        W48591   1.331   4.291   2.342  0.0507  0.0656  0.1370
32118W        W48592  16.491   6.667   4.114 -0.4212  0.1912  0.2098
32119W        W48593  16.574   7.287   0.096 -0.0669 -0.0392 -0.0830
32120W        W48594   4.905   7.353  14.970 -0.1235  0.0716 -0.2369
32121W        W48595  17.522   2.753  11.260 -0.3286 -0.1145  0.0847
32122W        W48596   3.234   0.302   4.125  0.0293  0.2839  0.0309
32123W        W48597  16.918  16.220  13.507  0.1160 -0.0524  0.1821
32124W        W48598   5.105  11.186   3.492  0.1017 -0.1116 -0.3129
32125W        W48599  11.891  10.295   4.611  0.0921 -0.1099  0.0735
32126W        W48600  16.482   3.791  10.975  0.1193  0.1317 -0.5746
32127W        W48601  10.550  17.053  13.640 -0.1917 -0.0481  0.1601
32128W        W48602   1.219  17.610   2.244 -0.2236 -0.3014 -0.1413
32129W        W48603   9.133   6.430   1.688 -0.0582  0.1225  0.4673
32130W        W48604  11.895   9.824  14.072  0.2553  0.1961 -0.1216
32131W        W48605  16.073   0.332   1.651 -0.2641  0.0384  0.0061
32132W        W48606  17.532  12.696   4.339  0.0912 -0.0916  0.4745
32133W        W48607   8.370   9.999   2.605 -0.0881  0.3638 -0.0119
32134W        W48608   5.576   6.652   3.245 -0.2631  0.0404 -0.0659
32135W        W48609  15.721   2.607   3.817  0.3003  0.0397  0.0316
32136W        W48610   8.024   2.925  12.784  0.1560  0.1961 -0.0214
32137W        W48611  10.030   8.699  12.051 -0.1503 -0.1135  0.2969
32138W        W48612  13.294   2.692   5.297  0.0269 -0.0369  0.2054
32139W        W48613   2.971  16.689  12.019 -0.3048  0.1457 -0.1240
32140W        W48614  11.477   3.578  14.285 -0.1986 -0.0121  0.1201
32141W        W48615  17.957   0.242  14.857 -0.1657 -0.0900  0.2117
32142W        W48616   3.484   4.904   1.506 -0.0755  0.2883  0.2849
32143W        W48617   3.372  12.069  13.918  0.0671  0.2525 -0.0134
32144W        W48618   7.490   3.542   4.413  0.2824 -0.2261  0.1220
32145W        W48619   7.791  15.274  15.277  0.0956 -0.0939  0.0395
32146W        W48620   5.015  10.243   4.922 -0.0773  0.1047  0.1024
32147W        W48621   5.407   7.212  13.406  0.2660 -0.1118 -0.2120
32148W        W48622   5.380  10.257  11.104  0.0668  0.2005 -0.0109
32149W        W48623   4.251  13.400   1.777  0.0726  0.0578 -0.1592
32150W        W48624   9.430  14.401  11.797  0.0072  0.2420  0.1053
32151W        W48625  13.499  11.208  14.568  0.0768 -0.1347 -0.2292
32152W        W48626   3.843   7.778   2.895 -0.2143  0.1566  0.0307
32153W        W48627   1.973   3.351   0.863  0.3352  0.0634  0.1357
32154W        W48628  17.388   5.935  11.671  0.2852  0.1276  0.0609
32155W        W48629  16.608  16.487  13.984 -0.2300 -0.0078  0.2049
32156W        W48630  14.208  11.795   0.030 -0.3044  0.1848 -0.1439
32157W        W48631   5.004   6.804  11.784  0.2289  0.1006  0.0596
32158W        W48632  15.752  16.025  11.817  0.2293 -0.3194  0.0180
32159W        W48633   8.387   4.052  14.125 -0.2356  0.0244  0.2309
32160W        W48634   2.317  13.142  11.362 -0.1132  0.1376 -0.1609
32161W        W48635  12.798   0.907   3.933  0.1730 -0.0600 -0.1455
32162W        W48636  17.786  11.998   0.919 -0.0264  0.1258  0.0249
32163W        W48637  16.898   0.459   1.536  0.0827  0.0600 -0.3306
32164W        W48638  17.073   1.582  15.532 -0.0774  0.2064  0.0502
32165W        W48639  17.993  14.392  14.351 -0.2162  0.1748 -0.2597
32166W        W48640  13.973   1.171  15.876  0.0012 -0.0803 -0.0806
32167W        W48641  12.813  13.697   4.361 -0.0574 -0.0054  0.2589
32168W        W48642   2.776  14.718   5.553  0.3450 -0.0672 -0.0976
32169W        W48643  12.154  11.595  14.556 -0.2492 -0.2384  0.0225
32170W        W48644  10.748  18.035  15.042 -0.0817 -0.1827 -0.1847
32171W        W48645  10.196   2.493   1.998  0.3487  0.0822 -0.0663
32172W        W48646   9.251  10.746   0.347 -0.2408 -0.0844  0.0092
32173W        W48647  11.627  12.002  13.241  0.3473  0.3040  0.1109
32174W        W48648  13.880   9.780  15.156  0.2599 -0.2303 -0.2791
32175W        W48649   4.367   2.684  14.792  0.1587  0.4858 -0.0418
32176W        W48650  13.768  11.573  12.941 -0.0545 -0.3094 -0.0976
32177W        W48651  15.612   9.931   5.311 -0.3492  0.1251 -0.1687
32178W        W48652   5.625   7.512   3.247  0.0382 -0.4207  0.0024
32179W        W48653  16.111  15.492  13.893  0.1813  0.0261  0.0099
32180W        W48654   1.163  15.413   0.554  0.2678 -0.0060 -0.2557
32181W        W48655   8.662   9.597   5.042 -0.2497  0.0959  0.1073
32182W        W48656  10.445   7.546  13.712 -0.0663 -0.1185 -0.3001
32183W        W48657  12.935   3.444  13.479 -0.0689  0.1437  0.1910
32184W        W48658   3.603   5.240   2.450  0.3649  0.0285  0.0003
32185W        W48659   5.989  14.654   4.534 -0.2638  0.0036 -0.0921
32186W        W48660  12.359   6.609  14.291 -0.0650  0.0610 -0.0251
32187W        W48661  12.217  12.203   0.754 -0.1420  0.1846  0.2302
32188W        W48662   2.976   7.713   3.504  0.1429  0.0618  0.1478
32189W        W48663  16.635  14.561   1.389 -0.1542 -0.0019 -0.3187
32190W        W48664   2.108   8.416   3.270  0.1222  0.3149  0.2666
32191W        W48665   8.055   3.419  15.588  0.1936 -0.1848  0.0926
32192W        W48666  13.257  12.902   4.225 -0.2453 -0.1566  0.1536
32193W        W48667   7.666  12.808  14.905 -0.1792 -0.0595 -0.0805
32194W        W48668   6.645   7.713   0.996 -0.2534  0.1025  0.2093
32195W        W48669   5.728   3.279   2.602 -0.0082 -0.0410 -0.0157
32196W        W48670   0.051   0.672  12.426  0.1869 -0.1751  0.0517
32197W        W48671  16.459   7.013  15.192 -0.2204  0.0584 -0.0961
32198W        W48672  14.225  11.083   5.539  0.5272  0.1684 -0.0665
32199W        W48673   4.739  15.836   2.275 -0.0413  0.1465  0.2194
32200W        W48674  12.405   9.742   1.921 -0.1765  0.1291 -0.4487
32201W        W48675   6.962   2.800   3.696  0.0521 -0.0293 -0.1283
32202W        W48676  11.436   5.852  12.502  0.1691  0.1624  0.0025
32203W        W48677   3.559  13.749  12.430 -0.0717 -0.2113  0.1511
32204W        W48678  12.840  15.523  15.957  0.4201  0.0516 -0.2168
32205W        W48679   1.974   7.835   3.587  0.1384 -0.0179  0.0501
32206W        W48680   9.647   2.081   3.152  0.0991 -0.2266 -0.1672
32207W        W48681   8.603  16.357  13.868 -0.0010  0.0749 -0.0063
32208W        W48682  16.416   9.386  12.438  0.3027  0.1632 -0.1634
32209W        W48683  16.510  11.576  14.258  0.0106 -0.0408  0.1224
32210W        W48684   6.611  10.387   2.294 -0.0995  0.0137 -0.0516
32211W        W48685   8.035  13.690   5.255 -0.3243 -0.1835 -0.0711
32212W        W48686   0.342   3.538   4.537 -0.0198 -0.0093  0.1213
32213W        W48687   1.013   1.926  14.778 -0.0374  0.1533  0.1364
32214W        W48688  11.328   7.081  14.596  0.0199 -0.0095 -0.3180
32215W        W48689   9.030  10.062  15.897  0.0636 -0.2118 -0.0699
32216W        W48690  16.878   9.085  11.246 -0.2417 -0.0502 -0.2482
32217W        W48691  14.801   8.291   2.865 -0.0340 -0.2584  0.1607
32218W        W48692  18.199  10.490  11.046 -0.2964 -0.2812 -0.0585
32219W        W48693   3.470   3.108   0.276  0.0317 -0.1462  0.0453
32220W        W48694  18.150  11.711   2.301  0.4201  0.1318  0.1554
32221W        W48695   8.629  17.842  15.482  0.0714 -0.3740 -0.3235
32222W        W48696   6.989   0.135   1.354 -0.1117  0.0546 -0.1038
32223W        W48697  14.013  10.590  12.093 -0.2660  0.0768  0.0361
32224W        W48698   6.802  12.941  12.701  0.0144 -0.2792  0.1122
32225W        W48699  11.857   3.369   3.270 -0.1089 -0.2711  0.0989
32226W        W48700  17.830  17.043   0.005 -0.2479  0.0092 -0.1649
32227W        W48701  16.671  18.067  11.998  0.1209  0.1980  0.0361
32228W        W48702  17.873  14.744   1.556  0.2119  0.0566  0.1137
32229W        W48703   1.703  13.651  11.673 -0.4299 -0.0537  0.1345
32230W        W48704  14.273   5.599  11.584  0.0240  0.0720  0.0309
32231W        W48705   0.868   1.136   3.549  0.1059 -0.0137  0.3201
32232W        W48706   7.336   5.923   4.102 -0.0895 -0.0928 -0.2789
32233W        W48707  16.293   3.958   2.707 -0.2517  0.1653 -0.4362
32234W        W48708   5.482  18.193   3.208  0.2229 -0.1430  0.1682
32235W        W48709   8.960   8.271   0.713 -0.0314 -0.2728  0.1335
32236W        W48710   0.500   4.247  15.609 -0.1989  0.0489  0.0055
32237W        W48711  13.063  13.478   4.776  0.1255  0.0414 -0.1002
32238W        W48712   7.751  16.792  13.583  0.1225 -0.0415  0.3334
32239W        W48713   9.565   2.901   3.742  0.0818  0.0345  0.2417
32240W        W48714   2.640   2.019  16.019  0.0186 -0.1035  0.2384
32241W        W48715   7.299   6.983  16.283  0.0977  0.0108  0.0054
32242W        W48716   2.728  16.906   2.233 -0.0707  0.0383  0.1542
32243W        W48717   7.740  12.817   2.230  0.1305 -0.0961  0.0593
32244W        W48718   8.568   0.795   3.567 -0.1937 -0.1108 -0.1606
32245W        W48719   1.007   8.051  14.246 -0.1216 -0.1574  0.4175
32246W        W48720   6.865  13.615   2.306  0.1553  0.1052 -0.1482
32247W        W48721   7.324  13.857  12.139 -0.1709 -0.2182  0.1183
32248W        W48722   9.209   9.710   2.518 -0.0730  0.3794 -0.3198
32249W        W48723  16.998  18.318   1.510  0.1334  0.0031 -0.0261
32250W        W48724   1.261  11.564   3.463  0.2734 -0.1332 -0.1966
32251W        W48725  15.889   4.816   3.786 -0.0588  0.2519  0.1878
32252W        W48726   5.334  13.584   0.285 -0.0997  0.0229  0.0985
32253W        W48727  13.707  15.027  16.076  0.5165 -0.0209  0.0077
32254W        W48728  17.228   6.087   4.798  0.0639  0.2360  0.1200
32255W        W48729   9.079  12.265   2.291 -0.4451  0.0811  0.1371
32256W        W48730  11.147  11.327   0.464 -0.0313  0.1012  0.0104
32257W        W48731   6.710   3.434  14.831  0.0200  0.2750  0.0892
32258W        W48732  15.368  15.302  14.664  0.0982 -0.3546 -0.1026
32259W        W48733  10.725   4.680   0.567  0.1428  0.4594  0.0310
32260W        W48734   8.763   5.630  12.022  0.0655 -0.0233  0.0951
32261W        W48735  14.663  11.627   4.343 -0.0976  0.0978  0.2266
32262W        W48736   4.052  10.350   1.101  0.2837  0.1762  0.1423
32263W        W48737  17.898   1.436   3.515 -0.0889  0.5132 -0.0907
32264W        W48738   3.482  16.998   1.667 -0.0964  0.0318 -0.0846
32265W        W48739  16.290   0.195   3.333 -0.1459 -0.2602 -0.1453
32266W        W48740  16.061   4.011   5.196 -0.5540 -0.1878 -0.0556
32267W        W48741   3.027   9.506  13.253 -0.1542 -0.2172  0.1171
32268W        W48742   1.275  10.602   2.792 -0.0419  0.2376  0.0454
32269W        W48743   9.467  17.995  14.577 -0.0438 -0.2251 -0.1505
32270W        W48744  14.047  13.750   4.045  0.0254  0.3013  0.0227
32271W        W48745   9.465  14.147  14.121 -0.1919 -0.0695  0.0427
32272W        W48746   6.589   4.594  13.269  0.0538  0.1017 -0.1436
32273W        W48747   0.796   5.751  12.933  0.0248  0.2340 -0.0325
32274W        W48748  16.229  10.996   1.894 -0.0803  0.1240  0.1297
32275W        W48749  17.479   5.477  13.014 -0.2335 -0.1197 -0.0062
32276W        W48750   2.776  12.594  12.377 -0.3307  0.0585  0.2760
32277W        W48751  15.110   5.083   0.095 -0.0036 -0.3511 -0.0622
32278W        W48752  13.688   4.091  16.055  0.1208  0.0682  0.2487
32279W        W48753  15.433  16.919   4.235 -0.0139  0.0373 -0.0892
32280W        W48754  16.978   3.679  15.473 -0.1484  0.1491 -0.1405
32281W        W48755  11.182   3.857  14.635 -0.2436 -0.0991 -0.2922
32282W        W48756  10.258   8.062  15.842  0.0804 -0.0422 -0.1020
32283W        W48757  10.818  12.394  11.918  0.1147 -0.3698  0.0245
32284W        W48758   1.010   6.537  16.150 -0.2198 -0.0305 -0.1657
32285W        W48759  12.665   7.797   6.318 -0.0707  0.0300 -0.0443
32286W        W48760   7.276  15.312   0.626  0.1939  0.0622  0.2394
32287W        W48761  10.823  12.201   0.453 -0.3073 -0.1581  0.1193
32288W        W48762  14.886   1.760   3.722  0.0575  0.0486 -0.1737
32289W        W48763   7.567  10.473   3.655 -0.1148  0.0885 -0.0614
32290W        W48764   6.817  13.597  11.923 -0.1159  0.1223 -0.3317
32291W        W48765   2.881   2.932   3.437 -0.1433  0.0184  0.1979
32292W        W48766  14.156   7.103  15.628 -0.0369  0.1322  0.0065
32293W        W48767  12.422   6.373   0.371  0.3466 -0.1847  0.0162
32294W        W48768  11.915   5.375   1.911  0.2143  0.0425 -0.2092
32295W        W48769   7.561  15.023  11.796 -0.3948  0.1339  0.0763
32296W        W48770  10.875   9.590  14.363 -0.1883  0.3332  0.1245
32297W        W48771  17.737  12.521   3.298 -0.2060  0.0788 -0.3618
32298W        W48772   0.932   6.810  13.253 -0.3201  0.0719  0.0134
32299W        W48773   1.825  14.209  14.420  0.1719  0.0117 -0.0396
32300W        W48774   8.784   8.843   0.867  0.3050 -0.1388  0.3327
32301W        W48775  15.725   3.257   2.699 -0.1652  0.2216  0.2030
32302W        W48776   8.540  12.686   4.359 -0.2593  0.0018  0.1419
32303W        W48777  17.056   9.892  11.266  0.0098 -0.1960  0.1222
32304W        W48778   3.617   6.941   0.861 -0.0124 -0.0754 -0.1947
32305W        W48779   2.802   4.697  16.123  0.3953 -0.1968  0.2797
32306W        W48780  13.085   6.583  13.450 -0.0543 -0.1813  0.1453
32307W        W48781   5.805   3.953  10.399  0.0757  0.2144  0.0138
32308W        W48782   9.538  10.619   2.755  0.1738  0.3430  0.2089
32309W        W48783   7.332  13.267   1.578 -0.1504  0.0412  0.1738
32310W        W48784  11.329   3.960   1.678 -0.1601 -0.1432 -0.0047
32311W        W48785   5.793   2.079  12.590 -0.0784 -0.1511  0.3941
32312W        W48786   2.869   5.242  12.243  0.1078 -0.1292 -0.0474
32313W        W48787  16.378   9.085   5.290  0.0819  0.1368 -0.1091
32314W        W48788   7.461   1.333   5.597  0.1532 -0.4099 -0.2474
32315W        W48789  16.668   7.078  15.696 -0.0672 -0.0903  0.2370
32316W        W48790   9.870   7.502  11.871  0.3488  0.3423 -0.0593
32317W        W48791  16.556   1.073  13.631  0.1498  0.1059 -0.0119
32318W        W48792  17.253  13.638  11.859 -0.0138 -0.2980 -0.0777
32319W        W48793  17.888  16.267   5.380  0.1233 -0.0156  0.0388
32320W        W48794   0.206  13.778  15.697  0.0406  0.1702  0.0568
32321W        W48795   6.084   2.400   1.409 -0.1184 -0.0366  0.0474
32322W        W48796  12.178   6.326  15.934  0.1207  0.0974  0.0254
32323W        W48797   6.263   2.870   3.313  0.1915 -0.2100 -0.3654
32324W        W48798  17.026   5.060  12.682  0.0274 -0.0367 -0.0287
32325W        W48799   8.377   9.558  15.012  0.0365 -0.0957  0.1046
32326ION     NA48800  10.567  15.879   6.011  0.0856  0.0691  0.0448
32327ION     NA48801  10.342   7.923  11.382  0.0276  0.1734 -0.2757
32328ION     NA48802   9.469  14.676  10.774 -0.2248  0.0930 -0.0466
32329ION     NA48803   8.243   2.628   1.867  0.0699 -0.3505  0.1714
32330ION     NA48804   1.540  15.925   5.902 -0.1405 -0.4675 -0.2871
32331ION     NA48805  17.862   9.355   1.718  0.0746  0.0823  0.0108
32332ION     NA48806   2.607   7.243  10.600  0.2685 -0.1487  0.1932
32333ION     NA48807   0.488  10.947   5.827 -0.1401 -0.2174  0.2449
32334ION     NA48808   9.120   1.459  10.222  0.2716 -0.0971 -0.3221
32335ION     NA48809   9.155  10.497  16.210 -0.0357  0.0058  0.1218
32336ION     NA48810  12.886  13.279  10.631  0.0791  0.3569 -0.1473
32337ION     NA48811   4.469  13.763   4.051 -0.1198 -0.3612  0.0426
32338ION     NA48812   8.091  14.848  11.163  0.4503 -0.0255 -0.0079
32339ION     NA48813  16.040   2.262  10.454  0.1540 -0.1109 -0.0521
32340ION     NA48814   2.150   9.910   5.692  0.0548 -0.1203 -0.3626
32341ION     NA48815  11.190  16.540  10.694  0.2003  0.3127  0.1880
32342ION     NA48816  16.340   4.758   5.617 -0.1214 -0.0035 -0.1680
32343ION     NA48817  16.782   2.800  10.219 -0.0471  0.0788 -0.1001
32344ION     NA48818   4.674  14.558   5.396  0.3582 -0.0938 -0.1380
32345ION     NA48819  15.830  10.749  10.144  0.3415  0.3370  0.0774
32346ION     NA48820  14.587  11.109  15.609  0.0910  0.2321 -0.0435
32347ION     NA48821  16.477  17.572  11.097  0.1866  0.0751 -0.1605
32348ION     NA48822   9.475   1.033  15.884  0.3280 -0.0945  0.0863
32349ION     NA48823  17.257  17.335   2.099  0.1529 -0.1193 -0.2189
32350ION     NA48824   9.438  11.560  14.677 -0.0772 -0.3507  0.0198
32351ION     NA48825   0.846   5.571   5.744  0.1900 -0.1814  0.2402
32352ION     NA48826   3.932  10.486  13.708 -0.1278 -0.0690  0.1911
32353ION     NA48827   3.986   7.485  10.867 -0.1177 -0.2564 -0.0572
32354ION     NA48828  15.662  11.552   0.203 -0.0622  0.0330  0.2478
32355ION     NA48829   8.199   0.438   9.966  0.1246  0.0740  0.2203
32356ION     NA48830   2.577   7.642  11.215 -0.0436 -0.2137 -0.0944
32357ION     NA48831   2.875   5.490  14.341  0.1342 -0.0680 -0.0809
32358ION     NA48832  12.556   9.503  10.785  0.0137 -0.2248  0.3177
32359ION     NA48833  15.816   6.815   5.212 -0.1344 -0.0875  0.1228
32360ION     NA48834   8.111   7.454   2.856  0.0531  0.1306  0.2034
32361ION     NA48835   5.501   2.171  10.538 -0.2034  0.1826 -0.0942
32362ION     NA48836   6.994  10.777   5.994 -0.1022 -0.1793 -0.3133
32363ION     NA48837   5.480   4.407  10.525  0.2199  0.1198  0.1366
32364ION     NA48838  14.879   5.598  10.219 -0.0435 -0.3054  0.2310
32365ION     NA48839   1.211   4.439  10.149 -0.1339  0.1914  0.3818
32366ION     NA48840   2.937  16.361  11.460 -0.0438 -0.0991  0.0390
32367ION     NA48841   5.294   7.012  10.963 -0.0053 -0.1937 -0.3636
32368ION     NA48842   6.396   6.826  13.408  0.2035  0.0996  0.0291
32369ION     NA48843   1.797   1.798  14.101 -0.1881 -0.0535 -0.0311
32370ION     NA48844  17.349   7.279  10.826 -0.4788 -0.2187 -0.0224
32371ION     NA48845   3.140   1.737  10.114  0.1434 -0.0287  0.0032
32372ION     NA48846  11.070   6.791  10.350  0.0633 -0.0616 -0.1006
32373ION     NA48847   8.142   4.020   5.596  0.0217  0.1614  0.0779
32374ION     NA48848  17.630   8.862  10.596  0.1772  0.0803 -0.3973
32375ION     NA48849  12.299   8.074  11.412 -0.1934  0.1252  0.0945
32376ION     NA48850  16.795   7.474  10.898  0.0019 -0.0650  0.3507
32377ION     NA48851  13.377   9.703  10.686  0.1276  0.1838 -0.2344
32378ION     NA48852   9.938  15.050  11.787  0.0696 -0.0903 -0.1790
32379ION     NA48853   6.726   1.428   4.586  0.2496  0.0107 -0.0714
32380ION     NA48854  12.290  17.776  10.743  0.1250  0.1265  0.0661
32381ION     NA48855   2.251   4.827   5.723  0.0006 -0.0298 -0.1108
32382ION     NA48856   4.847   7.397   0.236 -0.1618 -0.0883  0.2772
32383ION     NA48857  13.190   7.871  10.778  0.0546 -0.1183 -0.2617
32384ION     NA48858   3.888   8.972   1.087  0.2718  0.2268  0.2744
32385ION     NA48859   1.860   8.709  10.484 -0.0675  0.0683 -0.0914
32386ION     NA48860   7.193  12.475  10.473  0.1466 -0.0181 -0.0090
32387ION     NA48861  12.178  14.406  10.598 -0.1006  0.0383 -0.0980
32388ION     NA48862   6.611  11.832  10.633  0.2358  0.1721  0.1144
32389ION     NA48863  14.328   4.905  10.140 -0.1315  0.0890  0.1696
32390ION     NA48864  16.264  12.310  10.451  0.2101 -0.1074  0.0564
32391ION     NA48865  15.788   2.823  10.263 -0.0028 -0.2812 -0.0052
32392ION     NA48866   1.704  17.266   4.928  0.0615 -0.2640  0.0854
32393ION     NA48867   3.999   8.767   4.974 -0.0740  0.2084  0.1609
32394ION     NA48868  16.643   7.849  15.275  0.1188  0.2033  0.1474
32395ION     NA48869   2.061  10.576  10.262  0.1023  0.0382 -0.2228
32396ION     NA48870  16.342  13.308   5.822 -0.2533 -0.0598  0.0104
32397ION     NA48871  14.720  18.023  11.527  0.0220  0.1549  0.3514
32398ION     NA48872  10.932   8.286  14.667 -0.0254 -0.1932 -0.2001
32399ION     NA48873  17.786   3.829  10.082 -0.0093 -0.1203 -0.1209
32400ION     NA48874   0.239   5.066  10.282  0.3025  0.1175  0.0832
32401ION     NA48875  14.641   0.514  10.565 -0.1702  0.0953  0.1252
32402ION     NA48876   7.613   5.225  10.557 -0.1366  0.0133  0.1512
32403ION     NA48877  11.770   6.796   5.728  0.2689 -0.0127  0.1924
32404ION     NA48878  16.032  11.363  13.077  0.1736  0.0181 -0.2644
32405ION     NA48879   7.061  17.342  15.594  0.2111  0.1429  0.2982
32406ION     NA48880  10.668  13.141  10.600 -0.1600  0.0837  0.0321
32407ION     NA48881  13.331  17.164  15.812  0.1981 -0.1469 -0.0408
32408ION     NA48882   3.238  17.192   5.622 -0.3189  0.1417  0.1652
32409ION     NA48883  15.766   8.648  12.322 -0.1385 -0.0510 -0.0325
32410ION     NA48884   8.876   7.221  10.840  0.2692  0.1002 -0.0082
32411ION     NA48885   5.486   4.420   6.001 -0.2638 -0.1287  0.0207
32412ION     NA48886   4.075   8.306  10.633  0.0304 -0.0047 -0.0803
32413ION     NA48887  11.432  11.472   5.533 -0.3049  0.4287 -0.3087
32414ION     NA48888   4.911  17.496  10.420 -0.0057  0.1754  0.1893
32415ION     NA48889   3.149   3.840  10.351 -0.0621  0.2766 -0.3295
32416ION     NA48890   5.978  18.149  10.037 -0.1490 -0.6533 -0.1080
32417ION     NA48891   9.897  14.150   6.312  0.0752  0.1120  0.2381
32418ION     NA48892  15.526   9.045   2.574 -0.4445 -0.2118  0.0887
32419ION     NA48893   3.313  10.988  11.288 -0.0180  0.2134 -0.1795
32420ION     NA48894  13.898  15.937  10.637 -0.0831 -0.0706 -0.1200
32421ION     NA48895   3.736   4.148   3.569  0.2293 -0.2875 -0.1228
32422ION     NA48896  16.980  12.875  10.209 -0.1948  0.2364  0.1659
32423ION     NA48897  17.450  15.370  10.513 -0.0029  0.1365  0.2584
32424ION     NA48898   9.673  17.725  13.664 -0.2933 -0.0290 -0.0408
32425ION     NA48899  11.711   9.621  11.128 -0.0012  0.2284  0.0805
32426ION     NA48900  13.220  17.801  15.354 -0.2253  0.1775 -0.0165
32427ION     NA48901  10.058   1.870  10.212 -0.1637  0.1823  0.0891
32428ION     NA48902   2.514   8.662   1.513 -0.1694 -0.2670 -0.3830
32429ION     NA48903   2.649  12.188   5.611 -0.1294  0.0191 -0.0395
32430ION     NA48904  10.785  14.802  10.502 -0.2898  0.1677  0.1514
32431ION     NA48905  16.048   2.278   6.030  0.1819 -0.0620  0.0990
32432ION     NA48906   8.819   9.455  15.518  0.1262 -0.0012 -0.3002
32433ION     NA48907  16.566   8.963  10.516 -0.1638 -0.2270  0.0636
32434ION     NA48908  14.855  17.689   5.713  0.1075 -0.1610 -0.2914
32435ION     NA48909   9.563   5.071  10.558  0.3071  0.3190  0.2907
32436ION     NA48910   5.164   7.629   1.720  0.2378 -0.0942 -0.0205
32437ION     NA48911   3.232  17.769  11.157 -0.1102  0.2750 -0.0138
32438ION     NA48912   5.455   5.825   1.260  0.0002  0.0380 -0.0871
32439ION     NA48913  16.627   5.806   5.632  0.0785 -0.0262  0.2505
32440ION     NA48914  16.987   8.136  10.665  0.1692  0.2456  0.2872
32441ION     NA48915   7.509   9.223  10.744  0.3917  0.0597 -0.0368
32442ION     NA48916   8.173   3.288  10.334 -0.0388 -0.3593  0.0315
32443ION     NA48917   6.732  11.133  10.801 -0.3216 -0.0217  0.1836
32444ION     NA48918  12.748  16.321  10.728  0.1148 -0.0424  0.0947
32445ION     NA48919   5.526   1.684   1.749 -0.3273  0.0048 -0.0299
32446ION     NA48920   8.014   4.809   6.038 -0.1770 -0.2112  0.1809
32447ION     NA48921  13.391   0.638  10.966  0.5110  0.0134  0.0261
32448ION     NA48922  12.254   7.205  10.427  0.0561  0.1339 -0.3173
32449ION     NA48923   3.437  13.069  12.921 -0.0634  0.2245  0.0260
32450ION     NA48924   3.437  12.147  10.548 -0.2954  0.1244  0.1334
32451ION     NA48925   5.243   6.186  10.750 -0.1840  0.3284 -0.0055
32452ION     NA48926  18.198  16.313  10.345  0.0385  0.0217  0.1585
32453ION     NA48927   6.018  18.243  13.764  0.0247  0.1226  0.0419
32454ION     NA48928   7.328   1.053  10.018 -0.2806  0.0441 -0.1079
32455ION     NA48929  17.753  16.561  13.944  0.2000  0.1061  0.1422
32456ION     NA48930  16.350   1.094  14.472 -0.1871 -0.0003 -0.2508
32457ION     NA48931  10.326   9.196  10.722  0.1380  0.0310 -0.2453
32458ION     NA48932  18.147   1.309   5.792 -0.3056  0.1947  0.0706
32459ION     NA48933   1.535  16.437   1.468 -0.1115 -0.0070 -0.4336
32460ION     NA48934  14.380  14.455   4.265 -0.4353  0.2270  0.1304
32461ION     NA48935   6.608   5.838  13.329 -0.1499  0.1768  0.0843
32462ION     NA48936   3.133  10.776  10.471  0.1589  0.0242  0.0999
32463ION     NA48937   6.107   0.896  10.102 -0.1858  0.0175 -0.0571
32464ION     NA48938  11.902   1.941  10.234  0.2483  0.0911 -0.0852
32465ION     NA48939  15.748   7.055  13.135  0.5675 -0.3382 -0.0736
32466ION     NA48940   2.173  11.591  10.607  0.0901  0.5539  0.2809
32467ION     NA48941   5.085  11.875  11.791  0.3086  0.2269  0.2160
32468ION     NA48942   4.238   0.231  10.229  0.1772 -0.2763 -0.1440
32469ION     NA48943   4.940  11.274  10.511 -0.2895  0.2961  0.1378
32470ION     NA48944   9.891   0.206  10.403  0.3199 -0.0889  0.0598
32471ION     NA48945   5.781   9.564  10.605 -0.0263  0.2772 -0.1248
32472ION     NA48946  14.702  13.981  10.563  0.0013 -0.0773 -0.1934
32473ION     NA48947  18.165  10.615   3.816  0.0355 -0.0147  0.0906
32474ION     NA48948  10.442   4.055  14.854  0.0197 -0.0408  0.0560
32475ION     NA48949   9.078   5.761  10.359 -0.1259  0.2188 -0.1715
32476ION     NA48950  15.400  15.963  10.457  0.3151  0.2151 -0.1367
32477ION     NA48951   1.210  10.565  10.283  0.1336 -0.5632  0.3849
32478ION     NA48952  10.799  10.991  10.487  0.0773 -0.2710 -0.2672
32479ION     NA48953   6.076   8.264   1.869 -0.2256  0.2450  0.0527
32480ION     NA48954   1.583   1.436  10.581 -0.0092 -0.0866 -0.0364
32481ION     NA48955  15.035   7.628  10.421  0.4111  0.0103  0.3885
32482ION     NA48956   8.254   1.610   9.984  0.0868  0.0217  0.0204
32483ION     NA48957   9.309  10.713   5.584  0.0035 -0.0221  0.4868
32484ION     NA48958   1.850  15.027   5.904  0.2254  0.1418 -0.0168
32485ION     NA48959   1.038   6.129  10.556  0.3045  0.2778  0.2928
32486ION     NA48960  11.805   3.982  10.021  0.0124 -0.2455  0.0355
32487ION     NA48961   7.539  11.274  10.596  0.0010 -0.1055 -0.1858
32488ION     NA48962  10.919   2.310  10.239 -0.0288  0.0739  0.1580
32489ION     NA48963  17.036  12.377   0.149  0.1832 -0.3257 -0.0619
32490ION     NA48964  12.443   8.457  10.914  0.1287  0.2505 -0.3954
32491ION     NA48965   1.794   2.277   0.763 -0.0402 -0.2908  0.1571
32492ION     NA48966   0.360   8.718  10.437 -0.1166  0.1836 -0.1366
32493ION     NA48967   4.952   9.454   0.232 -0.0515  0.0432 -0.2198
32494ION     NA48968  18.304  12.717  10.447 -0.1708 -0.2388  0.1444
32495ION     NA48969  13.410  12.477  15.183 -0.2243 -0.0175  0.2682
32496ION     NA48970   9.377   9.337  10.715  0.2158 -0.0482  0.1131
32497ION     NA48971   1.962  10.840   5.453  0.0192  0.0456 -0.2030
32498ION     NA48972  13.078   3.943  10.061  0.1887  0.0580 -0.2452
32499ION     NA48973  11.157   5.836  10.192 -0.0024 -0.1171 -0.1618
32500ION     NA48974   8.785   4.287  10.217 -0.3865 -0.0106  0.3683
32501ION     NA48975   8.654  14.353  10.797  0.0708 -0.0056  0.1811
32502ION     NA48976  12.208  12.597  13.812  0.4127  0.0519  0.0115
32503ION     NA48977   3.971   6.604  10.902  0.0692 -0.2218 -0.1745
32504ION     NA48978   7.129   8.800   3.923  0.4662 -0.0449 -0.4146
32505ION     NA48979   9.035  10.294  10.823  0.1467  0.0377 -0.0409
32506ION     NA48980   1.395  18.139  10.199  0.1224 -0.2498 -0.0010
32507ION     NA48981  15.182  10.083  10.376  0.1224  0.0904 -0.2024
32508ION     NA48982  11.958   0.859  10.487  0.0917 -0.0635 -0.2941
32509ION     NA48983   8.387  17.706  12.288 -0.1865 -0.0947  0.2921
32510ION     NA48984   8.779  15.902  11.255  0.0114 -0.0303 -0.0448
32511ION     NA48985  10.834  17.880  10.482 -0.0332 -0.0257  0.2577
32512ION     NA48986   0.040  14.067  10.217  0.0570  0.6150 -0.1133
32513ION     NA48987   4.221  17.157  10.220 -0.0928 -0.0024  0.1624
32514ION     NA48988  12.498  18.050   2.806 -0.0690 -0.4459  0.1434
32515ION     NA48989   0.147   4.384  10.079 -0.1101 -0.1449  0.5308
32516ION     NA48990   4.287   5.479   3.269  0.1631  0.3373 -0.0501
32517ION     NA48991   4.819   7.759   6.244  0.0382  0.0570  0.0263
32518ION     NA48992  16.144   8.416  10.414  0.2467  0.0518  0.0410
32519ION     NA48993   0.403   2.866   5.766 -0.0701 -0.1775 -0.0956
32520ION     NA48994  16.978   4.719  15.268  0.4544  0.0717 -0.2518
32521ION     NA48995  13.232  12.169   6.134  0.0595 -0.1180  0.2275
32522ION     NA48996  13.681  18.067  10.469  0.0074  0.0938  0.1115
32523ION     NA48997   5.543  15.822  10.160  0.0519  0.1131 -0.2770
32524ION     NA48998  17.420   6.810  15.287 -0.0241  0.0290 -0.1559
32525ION     NA48999  14.469  11.418   5.913 -0.0024  0.2501 -0.0653
32526ION     NA49000  17.723   9.600  12.330 -0.0020  0.1973 -0.1346
32527ION     NA49001   3.406   4.675   1.010  0.3332 -0.0967  0.2585
32528ION     NA49002  14.637  17.534   0.919 -0.0232 -0.1561  0.1216
32529ION     NA49003  18.180  10.144  10.534 -0.1555 -0.0448  0.1860
32530ION     NA49004   6.910  11.230  15.392  0.0720 -0.0788  0.1856
32531ION     NA49005  12.800   9.171  14.920 -0.2024  0.1247 -0.3459
32532ION     NA49006   6.731   1.001  10.344  0.0832  0.4307  0.2211
32533ION     NA49007  16.998   5.271  10.039 -0.2462 -0.2299 -0.1168
32534ION     NA49008  13.628  17.898  10.959 -0.0648  0.1212 -0.0860
32535ION     NA49009   9.896   7.538  10.649  0.1683 -0.0892  0.2973
32536ION     NA49010  16.037  11.406  10.050  0.0011  0.0382  0.0877
32537ION     NA49011   2.976   6.483  10.761 -0.1873  0.0467  0.3835
32538ION     NA49012  12.248  11.903  10.431 -0.1564  0.0669 -0.1058
32539ION     NA49013   3.401   8.999  10.469  0.0940 -0.1067  0.1516
32540ION     NA49014   6.571  10.008  10.858  0.2122  0.1334  0.3189
32541ION     NA49015  13.256  16.032  10.555 -0.0004 -0.1271  0.3027
32542ION     NA49016  13.242   5.740  10.076 -0.0136  0.0974  0.1681
32543ION     NA49017   0.401   1.111   9.993 -0.0435 -0.0090 -0.1351
32544ION     NA49018   9.459  15.181  10.705 -0.1673  0.1264  0.2797
32545ION     NA49019  12.362  14.435   3.614  0.3735 -0.0911 -0.3830
32546ION     NA49020   3.630  13.063  14.590  0.3337 -0.2601  0.0406
32547ION     NA49021   5.881  17.665   5.479  0.2292  0.0703  0.1370
32548ION     NA49022  11.288  15.467   0.848 -0.1798 -0.3617  0.0234
32549ION     NA49023  14.340  15.268   5.925 -0.0613 -0.0080 -0.1936
32550ION     NA49024  10.683   0.148  15.618 -0.1863  0.0237 -0.1657
32551ION     NA49025   1.912   3.959   5.225 -0.2135 -0.1655 -0.2470
32552ION     NA49026  13.334  14.364   0.731 -0.1475  0.4483  0.0835
32553ION     NA49027   7.156  17.814   2.089  0.4662  0.4393 -0.0999
32554ION     NA49028   2.619  13.875  10.386 -0.0342 -0.0044  0.2038
32555ION     NA49029   0.862  15.781  14.743  0.0628 -0.0362 -0.0291
32556ION     NA49030  14.054   5.287   4.579 -0.0950 -0.0787  0.2030
32557ION     NA49031  13.379   6.056  14.481  0.2116 -0.0162  0.2927
32558ION     NA49032  14.669  10.796  10.446  0.2534  0.1762 -0.2326
32559ION     NA49033  15.777  18.150  12.124 -0.2428 -0.0852  0.2456
32560ION     NA49034  12.132  10.272  10.652  0.3093  0.1733  0.1805
32561ION     NA49035   8.657  15.202  10.642  0.1827 -0.1586 -0.3247
32562ION     NA49036  15.444  18.007   2.530  0.1297 -0.1234  0.0750
32563ION     NA49037   8.625  18.104  10.187  0.0385  0.0423  0.2492
32564ION     NA49038  12.660  15.293  10.565  0.0611 -0.1259  0.0047
32565ION     NA49039  17.964   8.023  10.766  0.2136 -0.1066 -0.0992
32566ION     NA49040  15.166   3.783  11.919  0.0138  0.1125 -0.0068
32567ION     NA49041   3.630  12.289   3.178 -0.3286 -0.0992 -0.1954
32568ION     NA49042  11.114   1.352  10.337 -0.1927 -0.1175  0.1055
32569ION     NA49043  14.012   4.170  10.060 -0.2279  0.0409  0.1447
32570ION     NA49044   5.376   4.628  15.410 -0.0226 -0.3128 -0.1824
32571ION     NA49045  16.501  14.272  10.203  0.1647  0.0045 -0.2010
32572ION     NA49046   3.990   5.112  10.262 -0.1673 -0.0509  0.1453
32573ION     NA49047   5.720  13.860  10.588  0.3268 -0.1962 -0.0698
32574ION     NA49048   9.088   0.423  10.128 -0.0489  0.2606  0.2129
32575ION     NA49049   7.724  15.017  10.653 -0.0724 -0.0262 -0.0291
32576ION     NA49050   0.334   4.178  12.698 -0.0385 -0.1221  0.2283
32577ION     NA49051  17.930  12.832   0.224  0.1548 -0.1267 -0.0076
32578ION     NA49052   1.296  16.023   4.498 -0.0847 -0.1794 -0.1383
32579ION     NA49053   4.978   7.902  10.913  0.0338 -0.0124 -0.2419
32580ION     NA49054   3.356   3.766  13.632 -0.1644 -0.1653  0.2200
32581ION     NA49055   8.135   8.409  10.745  0.0262 -0.1804  0.0721
32582ION     NA49056  16.031   7.532  10.467  0.3097  0.1427  0.0426
32583ION     NA49057  14.650  12.473  10.601 -0.1397 -0.2643 -0.0342
32584ION     NA49058   2.469   4.478   2.858  0.1556 -0.1322 -0.1408
32585ION     NA49059   7.778   0.607   5.799  0.1957  0.1349  0.0697
32586ION     NA49060  13.608   6.946  10.589 -0.1466  0.0604 -0.1296
32587ION     NA49061   7.878   4.463  10.345  0.0133 -0.1579  0.2231
32588ION     NA49062   3.943  10.465  10.770  0.1778 -0.2734  0.0946
32589ION     NA49063   7.366  13.649  10.682 -0.0535 -0.0928  0.1720
32590ION     NA49064  12.401  13.809  10.899  0.0277  0.0233  0.0703
32591ION     NA49065  18.318   7.352  16.257 -0.3092  0.1687  0.3269
32592ION     NA49066   2.050   2.145  12.312  0.5462  0.3014  0.1296
32593ION     NA49067   4.992  16.702  10.159 -0.2251  0.0652  0.2245
32594ION     NA49068  16.562   6.845   5.847 -0.0591  0.2955 -0.0918
32595ION     NA49069   2.742   3.330  10.357 -0.2444 -0.2545 -0.1133
32596ION     NA49070  11.910  13.267  10.567 -0.0398  0.1725 -0.0307
32597ION     NA49071   6.637  16.734  10.251 -0.2702  0.0397  0.2046
32598ION     NA49072  17.684   4.704   9.920 -0.2825  0.1816  0.0010
32599ION     NA49073  15.631  13.635  10.460  0.1700 -0.1291  0.1597
32600ION     NA49074   4.379   1.757  10.189 -0.0379 -0.0022 -0.4482
32601ION     NA49075   5.965  15.565  10.626 -0.2725 -0.3591  0.0747
32602ION     NA49076  16.121   1.630  13.783 -0.3531 -0.1212 -0.1054
32603ION     NA49077   7.343  16.231  10.493 -0.0878  0.0412  0.2547
32604ION     NA49078   5.187  13.131  10.545  0.0695  0.2221  0.3581
32605ION     NA49079   9.075  11.516  10.555 -0.0158  0.1771 -0.1050
32606ION     NA49080  15.697  18.093  13.448 -0.2424  0.0399  0.0010
32607ION     NA49081  16.296   4.930   4.598 -0.2848 -0.0356 -0.0054
32608ION     NA49082  15.695  10.265   3.018 -0.0490  0.1565 -0.2840
32609ION     NA49083  12.624  15.343  13.101  0.5403 -0.1723 -0.0875
32610ION     NA49084   2.600   5.657   5.580 -0.1251  0.0956  0.1720
32611ION     NA49085   3.224   8.002  10.733 -0.3018 -0.1512  0.3031
32612ION     NA49086  13.113   9.756  12.556  0.0257 -0.1487 -0.0339
32613ION     NA49087  13.718  10.830  15.949 -0.1944 -0.0638  0.0060
32614ION     NA49088   9.766  10.826  10.498 -0.0071  0.1075  0.2572
32615ION     NA49089  17.609  14.611  10.152  0.3042  0.1329 -0.0792
32616ION     NA49090  13.009   0.210  10.813 -0.0433 -0.0938  0.2859
32617ION     NA49091   5.549  14.740  10.429 -0.1840  0.1360 -0.1076
32618ION     NA49092   1.042   9.966  10.372  0.0603  0.3774  0.1103
32619ION     NA49093   8.147   7.212   6.238  0.0757 -0.0444  0.2690
32620ION     NA49094   3.260   6.063   5.868  0.0360  0.1505  0.0847
32621ION     NA49095   3.584  14.128  10.595 -0.1686 -0.0108 -0.1074
32622ION     NA49096  15.592   0.980  10.507 -0.0489 -0.0035 -0.0601
32623ION     NA49097  10.281  16.666  10.739  0.2503 -0.0562  0.1180
32624ION     NA49098  11.113   8.107   5.458 -0.1358 -0.0152 -0.1465
32625ION     NA49099  10.997   3.464   9.998 -0.1381  0.0948 -0.1418
32626ION     NA49100   7.720   8.285   3.342 -0.1569 -0.1511 -0.2229
32627ION     NA49101   1.060  17.822  10.445 -0.2045  0.0664 -0.1704
32628ION     NA49102   1.758  14.061  10.477 -0.1319 -0.0722  0.1514
32629ION     NA49103  11.040   9.119   4.687  0.0342 -0.0115  0.1631
32630ION     NA49104  17.639   5.875  10.244 -0.5787  0.0340  0.1939
32631ION     NA49105   9.733   7.382   5.571  0.0673  0.2724 -0.2849
32632ION     NA49106   0.582  15.642  10.327 -0.1659 -0.2467 -0.0882
32633ION     NA49107   2.209  12.832   5.853 -0.1152  0.1035  0.1009
32634ION     NA49108   3.380   2.670  10.245  0.4242  0.0624 -0.1110
32635ION     NA49109   8.007  11.804  14.620 -0.0031  0.1899 -0.1715
32636ION     NA49110   0.314   2.581  10.114  0.4644 -0.2087  0.3226
32637ION     NA49111   1.117   2.625  12.435  0.1352  0.0828  0.0959
32638ION     NA49112  13.484   4.829  10.093  0.0471  0.4121  0.1089
32639ION     NA49113  13.939   3.588   2.697  0.0061 -0.3748 -0.2600
32640ION     NA49114  15.991  15.409  10.440 -0.3193 -0.1727  0.1326
32641ION     NA49115   1.431   0.150  15.210  0.1988 -0.4061  0.2781
32642ION     NA49116  14.954   6.332  15.528 -0.0617 -0.2394 -0.2063
32643ION     NA49117   1.115   3.221   2.517 -0.2027 -0.2199  0.1973
32644ION     NA49118   8.040  14.853   6.245 -0.0393  0.4152 -0.1880
32645ION     NA49119  15.039  11.572  10.413  0.0011  0.1461  0.1477
32646ION     NA49120   6.012   8.480  16.115  0.0069  0.1619  0.0375
32647ION     NA49121  10.379   0.184   5.597 -0.3056  0.1922  0.2245
32648ION     NA49122  13.628   1.340  10.477 -0.0911 -0.3965  0.1716
32649ION     NA49123   7.465  17.087  10.300  0.0947 -0.1790 -0.1242
32650ION     NA49124  10.284  15.787  10.544 -0.1836 -0.0028 -0.0284
32651ION     NA49125  16.466  15.988  10.465  0.4740 -0.0126 -0.2394
32652ION     NA49126   0.790  13.089   5.765  0.2785 -0.0502 -0.1028
32653ION     NA49127   6.712   5.630  10.753  0.2831 -0.2010 -0.1643
32654ION     NA49128  10.320   5.039  10.325 -0.2339 -0.0470 -0.0981
32655ION     NA49129   9.720   0.334   5.685  0.0599 -0.0431  0.1612
32656ION     NA49130   4.980   9.380  10.947  0.0213  0.1139  0.0235
32657ION     NA49131   4.071   9.626  10.606 -0.0998 -0.1150  0.2572
32658ION     NA49132  16.097   6.698   3.304  0.1508 -0.1185 -0.0192
32659ION     NA49133   1.237   8.186  10.510 -0.3551  0.2081 -0.1438
32660ION     NA49134  15.727   5.747   4.122 -0.3915  0.0890 -0.1305
32661ION     NA49135   7.794   7.198   0.615  0.0369 -0.0618  0.2863
32662ION     NA49136   7.190   9.503   5.490 -0.3895  0.2743  0.2789
32663ION     NA49137   5.818   2.992  10.374 -0.2338 -0.2576  0.1594
32664ION     NA49138  14.800  16.556  10.794 -0.0159  0.0973  0.2458
32665ION     NA49139  16.756  10.582  10.300 -0.0086  0.2749  0.2680
32666ION     NA49140  17.021   6.583  10.420  0.1167 -0.0729  0.0253
32667ION     NA49141  18.149   1.605  10.482 -0.1898  0.0336  0.0999
32668ION     NA49142   3.068   4.544   5.406 -0.1068 -0.0275  0.1006
32669ION     NA49143   8.210  13.373  10.727 -0.1207 -0.1484 -0.0959
32670ION     NA49144  10.297  14.468  13.413  0.1585  0.1164  0.2002
32671ION     NA49145   5.825   8.270  11.148 -0.2918  0.1150  0.0322
32672ION     NA49146   4.909   5.260  14.906 -0.4910 -0.0233 -0.2558
32673ION     NA49147   8.702   9.653   0.853  0.1932 -0.1147 -0.2597
32674ION     NA49148  14.997   8.130  10.722  0.0740  0.1336 -0.1482
32675ION     NA49149   6.348  13.016  10.668 -0.3120  0.3762 -0.0059
32676ION     NA49150  17.050  17.509  10.322  0.1438  0.1888 -0.0181
32677ION     NA49151   8.257  11.764  10.684 -0.0259  0.1422 -0.2967
32678ION     NA49152  15.317   0.235  15.182  0.0645  0.0904 -0.1995
32679ION     NA49153   2.153  17.691  10.348 -0.2177 -0.3335 -0.0003
32680ION     NA49154   8.139  12.697  10.531  0.0014 -0.3839  0.0032
32681ION     NA49155  14.260   2.986  10.447 -0.2241  0.0255 -0.0861
32682ION     NA49156   9.895  13.302  10.690 -0.1561 -0.1971 -0.1970
32683ION     NA49157  13.792  14.194   6.096  0.1286  0.0689  0.2689
32684ION     NA49158   9.954   2.616  11.022 -0.1537  0.1217 -0.0064
32685ION     NA49159  10.752   0.543  10.320 -0.0819 -0.0471  0.1033
32686ION     NA49160   2.965   5.249  10.109 -0.0331  0.1641  0.0387
32687ION     NA49161  13.388   9.571   6.034  0.2951  0.0570 -0.2398
32688ION     NA49162  14.243  13.420   4.398 -0.0835  0.2056 -0.0252
32689ION     NA49163   7.084   3.655  10.283 -0.1376  0.0714 -0.1514
32690ION     NA49164  18.324  12.507   4.601 -0.0016 -0.0996 -0.2981
32691ION     NA49165   6.992   1.916   1.448 -0.0620  0.3453  0.3167
32692ION     NA49166  15.479   6.820  10.397 -0.3772  0.2474  0.2375
32693ION     NA49167   2.422   4.287  10.215 -0.1534  0.0184  0.1660
32694ION     NA49168  15.140   2.487   5.777  0.1533 -0.1305 -0.1492
32695ION     NA49169  13.295  16.406  13.503 -0.1467 -0.2025 -0.2211
32696ION     NA49170  16.666   4.342  10.093 -0.1652 -0.0930 -0.0337
32697ION     NA49171   0.667   9.514   3.564 -0.3752 -0.1322  0.2185
32698ION     NA49172  12.836  13.078   4.489 -0.0328 -0.0560  0.0492
32699ION     NA49173  11.431   5.467   2.611 -0.1883  0.2579  0.0127
32700ION     NA49174   7.302   0.171   9.873  0.2369  0.1986 -0.0792
32701ION     NA49175   2.956   7.291   6.180  0.1240  0.1485  0.0063
32702ION     NA49176  13.451   9.539   2.666 -0.0815  0.0335 -0.0924
32703ION     NA49177  13.977   8.971   6.124  0.2731 -0.2775 -0.2414
32704ION     NA49178  11.583   9.216  13.686 -0.4261  0.0500 -0.0989
32705ION     NA49179   1.259  15.114  13.067  0.1992  0.1722 -0.0739
32706ION     NA49180  13.181   8.896  10.928 -0.1094  0.3916 -0.0981
32707ION     NA49181   5.486   5.070  10.694 -0.2375 -0.4037 -0.2760
32708ION     NA49182   4.846  12.022   6.179  0.1082  0.0975 -0.1266
32709ION     NA49183   6.238  15.911  15.736 -0.3357  0.1542  0.1250
32710ION     NA49184  11.492  15.645  13.776 -0.1158  0.1104  0.0651
32711ION     NA49185  17.640   2.452  10.478 -0.0346 -0.4893 -0.0864
32712ION     NA49186   2.651   6.127  10.535 -0.3823 -0.0626 -0.4299
32713ION     NA49187   5.132  11.065   6.200  0.0619 -0.0887  0.0808
32714ION     NA49188   9.513   3.680  10.009 -0.1109 -0.3797 -0.0007
32715ION     NA49189  17.377   9.899  10.424 -0.0845 -0.0017 -0.0223
32716ION     NA49190   7.529   9.950  10.755  0.1170 -0.0423 -0.2061
32717ION     NA49191  16.201   7.558   5.007 -0.1553  0.2032  0.2233
32718ION     NA49192  16.073   6.498  10.407 -0.1372  0.1140 -0.2320
32719ION     NA49193   0.641  10.146   4.273  0.1729 -0.0356  0.0812
32720ION     NA49194   4.671   4.379   5.519 -0.1220  0.1732  0.0656
32721ION     NA49195   4.328   6.085   6.222  0.1179  0.0975  0.2805
32722ION     NA49196   7.205  10.526  11.180  0.1593  0.3752  0.0058
32723ION     NA49197   2.881   5.969  13.493 -0.0868  0.0681 -0.0153
32724ION     NA49198   8.460   1.928  12.454  0.0528 -0.0712 -0.3301
32725ION     NA49199   5.244   1.311  10.076  0.2476  0.2034  0.1569
32726ION     NA49200  14.300   1.280  10.533 -0.0401 -0.1427  0.1313
32727ION     NA49201   7.147   0.566   4.629  0.4242  0.2728  0.1228
32728ION     NA49202  17.170  13.751  10.334 -0.2156  0.0271  0.1174
32729ION     NA49203   0.294  10.757  10.379  0.3269 -0.0387  0.0299
32730ION     NA49204   3.849   8.530  13.867  0.1332  0.1295  0.1820
32731ION     NA49205   7.254   7.011  13.943  0.0975 -0.0594  0.0870
32732ION     NA49206  17.644   4.192  16.126 -0.1083  0.3013 -0.1340
32733ION     NA49207  11.965   5.447  10.278 -0.1208  0.0340  0.1079
32734ION     NA49208  14.889   7.994  14.951  0.2446 -0.1205 -0.0069
32735ION     NA49209   0.041   5.936  10.252 -0.0957  0.3564 -0.2888
32736ION     NA49210   1.586   4.912  13.668 -0.0591  0.0286 -0.0893
32737ION     NA49211  14.207   9.130  10.902  0.0219  0.1388  0.0539
32738ION     NA49212  11.691   0.154  15.565 -0.2414 -0.0174 -0.0810
32739ION     NA49213  13.470  15.063  10.589 -0.0959  0.0943 -0.3146
32740ION     NA49214   1.353   7.411   2.593  0.1598 -0.0971  0.2162
32741ION     NA49215  12.113  10.998   4.500  0.1073  0.0338  0.2185
32742ION     NA49216   1.385  16.642  11.944 -0.0282 -0.0471 -0.0011
32743ION     NA49217  11.079   4.921  10.299  0.1116  0.1355 -0.0489
32744ION     NA49218   6.607   8.368  11.022 -0.1919  0.1720 -0.1077
32745ION     NA49219   9.351  17.852  10.423  0.2499 -0.0309  0.0823
32746ION     NA49220   3.092  10.941   2.313 -0.0628 -0.3170  0.1338
32747ION     NA49221   9.743   3.582  14.615  0.0325  0.0712  0.1050
32748ION     NA49222   0.546  10.001  10.431 -0.1120  0.0887  0.0096
32749ION     NA49223  10.095  17.645  10.727  0.2539  0.1211 -0.1594
32750ION     NA49224  11.690  14.820  10.653  0.1573  0.1558  0.2331
32751ION     NA49225  15.731   9.253  10.458 -0.1047 -0.5427 -0.1926
32752ION     NA49226  11.778   2.415  15.010 -0.0193 -0.1868  0.2980
32753ION     NA49227   6.250   3.951  10.602 -0.0475 -0.1477  0.1386
32754ION     NA49228   0.707   3.573  10.133  0.0849  0.1043 -0.1333
32755ION     NA49229   5.931  15.338   6.009  0.0294 -0.3626 -0.1425
32756ION     NA49230  11.897   6.395  10.359  0.1657  0.0872  0.3592
32757ION     NA49231  13.713  10.923  10.665  0.3323  0.0770 -0.3846
32758ION     NA49232  11.297   5.290   5.704  0.0214 -0.0629 -0.0976
32759ION     NA49233  16.723   9.560   1.611  0.0555  0.4790 -0.4208
32760ION     NA49234  11.798  17.962   5.795 -0.2183 -0.0076  0.0326
32761ION     NA49235  16.281   4.984  10.398 -0.0343 -0.2273  0.0309
32762ION     NA49236  18.282   3.373   9.925  0.2054  0.0853  0.2092
32763ION     NA49237  15.442   5.757  10.474  0.1567  0.2624  0.1539
32764ION     NA49238   3.212   9.873  10.446 -0.0511 -0.3576  0.2958
32765ION     NA49239  13.645  16.933   5.619  0.1471  0.0880 -0.3773
32766ION     NA49240   1.277   7.330  10.582 -0.1063 -0.0185  0.2543
32767ION     NA49241  15.702   8.684  10.408  0.0979  0.1093  0.0366
32768ION     NA49242  13.116  12.396  10.539  0.2983 -0.1177  0.1828
32769ION     NA49243  10.988  15.481  10.969 -0.0054  0.2590 -0.1154
32770ION     NA49244   3.767  16.899   3.733  0.1183 -0.1329 -0.0286
32771ION     NA49245  10.286   1.509   5.669  0.3611  0.1630  0.0334
32772ION     NA49246   9.131  17.415  10.522 -0.2638 -0.1249 -0.0529
32773ION     NA49247   0.946  16.024   6.011 -0.2019 -0.1359  0.3018
32774ION     NA49248  15.826   3.921  14.294 -0.1222  0.4062  0.2455
32775ION     NA49249  12.581   4.866  10.260  0.1137  0.1101  0.1953
32776ION     NA49250   0.694  14.617  10.125 -0.0500  0.0137 -0.1882
32777ION     NA49251   9.330   8.678   3.737 -0.1998 -0.0273  0.1836
32778ION     NA49252  16.514  10.329   5.583  0.1221 -0.3096  0.0389
32779ION     NA49253  12.384  16.578  15.724 -0.0996 -0.3912 -0.0899
32780ION     NA49254   2.714   5.228  16.269 -0.2105  0.1290  0.0261
32781ION     NA49255   9.001   7.224   6.249  0.0907 -0.0801  0.0506
32782ION     NA49256  16.855  15.143  10.323  0.0027  0.0283 -0.2950
32783ION     NA49257   1.458   0.992  10.040 -0.1929 -0.3022 -0.0399
32784ION     NA49258   7.179   7.950  10.780  0.0088 -0.2600 -0.3649
32785ION     NA49259  11.763   7.607  10.953 -0.0136 -0.0378 -0.1195
32786ION     NA49260   6.320   9.737  13.550  0.0124  0.0592 -0.5208
32787ION     NA49261   3.787   9.746  13.221  0.2050  0.2602  0.1280
32788ION     NA49262  16.637   2.095   5.768  0.1473  0.0217 -0.1898
32789ION     NA49263   5.925   0.155   1.964  0.0328 -0.0919 -0.4078
32790ION     NA49264   0.039   0.129   4.066 -0.3428 -0.0647  0.5999
32791ION     NA49265  11.647   2.797  10.064 -0.1802 -0.0999 -0.0052
32792ION     NA49266  15.744  16.396  10.516 -0.3587 -0.1100  0.0497
32793ION     NA49267   2.534  13.088   4.837  0.0030 -0.3090 -0.0387
32794ION     NA49268  10.800   5.739  10.661  0.1603 -0.3703  0.2474
32795ION     NA49269   5.046  14.571  10.452  0.0566 -0.0550  0.1486
32796ION     NA49270   7.325  13.561   5.805  0.1312 -0.1724  0.2551
32797ION     NA49271   0.286   9.218  10.444  0.0087 -0.2083 -0.1967
32798ION     NA49272  15.421  17.480   3.714 -0.0476 -0.0133  0.2012
32799ION     NA49273  14.697   3.742  10.314  0.4023  0.5360 -0.4522
32800ION     NA49274  12.401   3.557   1.014  0.1602  0.4303 -0.2077
32801ION     NA49275   2.997   9.737  13.742  0.0428  0.2029 -0.1668
32802ION     NA49276   3.271   3.020   5.627 -0.1991 -0.3891 -0.2715
32803ION     NA49277   0.484  17.020  10.208  0.2893  0.2063  0.0224
32804ION     NA49278  10.568   7.364  10.574 -0.0204  0.0214 -0.1594
32805ION     NA49279  10.101   2.839  10.066 -0.3404 -0.0816 -0.0290
32806ION     NA49280  18.004  17.223  10.258  0.0882 -0.0967  0.1137
32807ION     NA49281  12.162  15.260   1.391  0.0186  0.0868 -0.0296
32808ION     NA49282   0.469   0.115  10.319 -0.1621 -0.0688 -0.0400
32809ION     NA49283   7.169   4.422  10.536 -0.1953  0.0624 -0.0699
32810ION     NA49284  11.579   8.559  10.745  0.1688 -0.4106 -0.1024
32811ION     NA49285   8.419   6.494  10.675 -0.0950 -0.4727  0.1316
32812ION     NA49286   3.392   0.121  10.371 -0.1721 -0.3178 -0.0969
32813ION     NA49287  15.754  17.219  10.455  0.2425 -0.2753 -0.0450
32814ION     NA49288  12.238   3.423  10.106 -0.0823  0.3040  0.1868
32815ION     NA49289  13.234  10.114   6.084 -0.0339 -0.3172 -0.4884
32816ION     NA49290   4.359  13.915  10.495 -0.0826 -0.1157 -0.2112
32817ION     NA49291  14.920   2.610  10.689 -0.2822 -0.2656  0.2349
32818ION     NA49292   8.041   7.106   5.722  0.0926 -0.1204 -0.1700
32819ION     NA49293   7.961  17.867  10.162  0.2741 -0.2308  0.1827
32820ION     NA49294  18.268   8.347  14.142  0.0604 -0.0223  0.1392
32821ION     NA49295   3.274  14.988  10.693  0.2005  0.0516  0.2288
32822ION     NA49296  17.316  16.441  10.446  0.0717  0.4124 -0.2966
32823ION     NA49297   1.744  11.975  11.348 -0.3953 -0.1205  0.1099
32824ION     NA49298   1.858   4.853  10.786 -0.1175  0.0233 -0.3018
32825ION     NA49299   6.852  15.123  10.693  0.1995 -0.0939  0.5637
32826ION     NA49300   4.760  16.186  11.339  0.3530  0.1387 -0.1804
32827ION     NA49301   8.343  10.869  10.456  0.0730 -0.2713  0.2150
32828ION     NA49302  16.049   1.688  10.488  0.0206 -0.2315  0.0824
32829ION     NA49303   8.338   9.338  10.795  0.4070  0.1051  0.2821
32830ION     NA49304  17.379   1.118  10.280 -0.3172 -0.1550  0.2797
32831ION     NA49305  17.175  17.536  12.824 -0.0005  0.1561  0.2551
32832ION     NA49306   4.860  14.952   5.959  0.2973  0.1035 -0.1999
32833ION     NA49307   0.542   7.474  10.414  0.0455  0.1294  0.0715
32834ION     NA49308   5.435   3.105   5.820  0.0407 -0.3070 -0.0272
32835ION     NA49309   3.311   7.543   3.867 -0.0032 -0.1453  0.0630
32836ION     NA49310   6.767  17.556  10.400  0.0990 -0.6071  0.0863
32837ION     NA49311  15.895  15.200  15.968  0.0855 -0.1617 -0.1694
32838ION     NA49312   3.941   4.204  10.287 -0.0656 -0.0042 -0.0937
32839ION     NA49313  15.218  15.844   0.630  0.1472 -0.1416 -0.0314
32840ION     NA49314   5.643  10.101  10.727  0.2495  0.3588  0.1110
32841ION     NA49315  13.998  12.216   3.802 -0.2313 -0.0122 -0.2161
32842ION     NA49316   8.207   6.355   0.533  0.1271  0.0639  0.0737
32843ION     NA49317  11.498   7.318  15.479  0.1906 -0.1293  0.2113
32844ION     NA49318   5.214  12.645   4.856 -0.0912 -0.1158 -0.1205
32845ION     NA49319   9.726   8.682  10.576  0.1417  0.1841  0.0723
32846ION     NA49320  14.181  14.404  10.635  0.3462 -0.0968  0.0069
32847ION     NA49321   2.672  12.620  15.313 -0.3854 -0.0276  0.1914
32848ION     NA49322  17.303   1.458   3.479  0.0020  0.0599 -0.0948
32849ION     NA49323   0.141  10.411  14.282 -0.3151 -0.1200 -0.1706
32850ION     NA49324  15.915   9.344  10.958 -0.1583  0.3916 -0.3513
32851ION     NA49325   2.031   3.917  10.026 -0.1251 -0.3041 -0.0490
32852ION     NA49326  13.890   9.495  10.721  0.0207 -0.0582 -0.3451
32853ION     NA49327  12.867   2.135  10.263 -0.3065 -0.3505 -0.0240
32854ION     NA49328  15.487   3.732  10.208 -0.0242 -0.2862  0.2686
32855ION     NA49329   6.806   1.864  10.112  0.0785 -0.1375  0.1198
32856ION     NA49330   0.393  10.053   5.568  0.0585  0.1523 -0.1407
32857ION     NA49331   7.917   7.953  14.202  0.1222  0.0869  0.1026
32858ION     NA49332  11.919   9.361   1.554 -0.2733 -0.2082  0.0243
32859ION     NA49333   0.907  16.868  16.166 -0.1287  0.0337 -0.1452
32860ION     NA49334  12.441   2.570  10.259 -0.1323 -0.2964  0.3336
32861ION     NA49335   5.621   1.273   5.558  0.0805  0.2257 -0.0345
32862ION     NA49336   4.626  15.619  10.361  0.0516 -0.3271 -0.1431
32863ION     NA49337  12.619   3.299   5.815  0.2145  0.1114 -0.3708
32864ION     NA49338  13.314  12.379  12.331 -0.0756 -0.1543  0.3416
32865ION     NA49339   8.561   7.970   6.200 -0.0020 -0.1026  0.0979
32866ION     NA49340   9.236   2.340  10.146  0.1359 -0.3121 -0.2911
32867ION     NA49341   8.999  12.931  10.611  0.0299  0.2605  0.2930
32868ION     NA49342  13.408   3.045   5.591  0.1951  0.0648 -0.1264
32869ION     NA49343  11.002  12.871   2.170  0.0294 -0.0716  0.0957
32870ION     NA49344  16.475   2.028   1.912  0.0122  0.0971 -0.0978
32871ION     NA49345   9.181   2.428   2.425 -0.0633 -0.0405  0.1864
32872ION     NA49346   9.995  10.096  10.646  0.1253  0.2032 -0.1544
32873ION     NA49347  16.127  16.685   4.792  0.4111  0.0672 -0.2565
32874ION     NA49348   1.756  14.870  10.325 -0.1686 -0.1180 -0.1796
32875ION     NA49349   6.449   6.474  11.377 -0.0062  0.0975  0.2064
32876ION     NA49350   3.272  17.258  10.276  0.0448 -0.0520  0.1451
32877ION     NA49351   2.742  13.810   0.722 -0.1909  0.1439 -0.1325
32878ION     NA49352   5.226  10.476  10.665  0.0158 -0.1341  0.0816
32879ION     NA49353  17.959   7.694   1.417  0.2111 -0.1273  0.2106
32880ION     NA49354   2.456  10.131  10.295  0.0243  0.1351 -0.1475
32881ION     NA49355   1.211   2.822  10.120 -0.1328  0.0467 -0.2376
32882ION     NA49356   6.297  16.107  14.268 -0.0547  0.1252  0.3006
32883ION     NA49357   2.678   3.940  12.182 -0.0778  0.0202 -0.0609
32884ION     NA49358  11.599  15.066   2.609 -0.1094 -0.0562  0.1221
32885ION     NA49359   4.129   9.468  12.424  0.1072  0.0869 -0.4955
32886ION     NA49360  13.705   3.794  10.205 -0.0373  0.0467  0.0834
32887ION     NA49361  10.791  11.604  14.222  0.0130 -0.0670 -0.0484
32888ION     NA49362  18.311   3.074  13.514  0.0421  0.0561 -0.0679
32889ION     NA49363  17.354  12.797   1.118  0.1284 -0.0005 -0.0328
32890ION     NA49364  14.957   5.467   5.613  0.1094  0.1502 -0.1006
32891ION     NA49365  14.691  15.250  10.641  0.2010 -0.2051 -0.2050
32892ION     NA49366   5.306  15.231   5.781  0.0216  0.0813  0.0829
32893ION     NA49367   2.320  15.904  10.469 -0.0567 -0.0698 -0.1116
32894ION     NA49368   3.940   3.523  15.733 -0.1311 -0.1247  0.0728
32895ION     NA49369  12.795   1.173  10.656  0.1451 -0.0041  0.0451
32896ION     NA49370  14.045  16.081   6.012 -0.3309 -0.2592 -0.1079
32897ION     NA49371   3.213   6.421   3.779  0.1195  0.1121  0.1523
32898ION     NA49372   6.438   3.756   5.475  0.1252 -0.2119  0.1953
32899ION     NA49373   0.158   3.311  10.744 -0.0836 -0.2497 -0.0334
32900ION     NA49374  16.828   3.637  10.056 -0.1051 -0.3778 -0.0589
32901ION     NA49375   7.211  13.480   6.293 -0.0667 -0.1489 -0.2206
32902ION     NA49376   1.897   5.738  10.330 -0.1558 -0.1259 -0.0542
32903ION     NA49377  13.912  15.982   5.495  0.0210  0.2459 -0.0796
32904ION     NA49378   4.236  10.888  10.674  0.0199 -0.0139 -0.1669
32905ION     NA49379   2.653  17.496  10.148  0.2048 -0.2915  0.3523
32906ION     NA49380   3.362   7.805  14.949  0.0183 -0.0698 -0.0807
32907ION     NA49381  12.874   5.607  10.500  0.0282 -0.1666 -0.0995
32908ION     NA49382  17.922  11.401  10.096 -0.2756 -0.0517 -0.2188
32909ION     NA49383   1.233   1.311  12.977  0.2087  0.2035 -0.1207
32910ION     NA49384   6.046   3.606   4.955  0.1106 -0.1521 -0.1547
32911ION     NA49385   4.981   4.072   0.944 -0.2483 -0.0714  0.0666
32912ION     NA49386   8.292   5.966  10.635 -0.0060  0.1371 -0.1932
32913ION     NA49387  15.653  14.255  10.446 -0.4581 -0.3460  0.2281
32914ION     NA49388  15.068  13.912  15.098  0.1368  0.3240 -0.1118
32915ION     NA49389   2.707   8.920  15.099 -0.1698 -0.0237  0.0853
32916ION     NA49390  11.450  13.853  10.519  0.0636  0.1030  0.2271
32917ION     NA49391  10.774   3.661   4.171  0.2137  0.0373 -0.0765
32918ION     NA49392  11.128  12.920  10.624  0.2751 -0.2499 -0.0345
32919ION     NA49393   1.821   6.128  10.607  0.1376  0.1553  0.0805
32920ION     NA49394   4.574  11.503   4.711  0.0196  0.3128 -0.0523
32921ION     NA49395  11.629  18.098   1.397  0.0503 -0.1205 -0.2923
32922ION     NA49396   5.887  10.947  10.642 -0.2034  0.0114  0.2044
32923ION     NA49397  10.994  11.016  13.820  0.0207  0.0060  0.1588
32924ION     NA49398   3.088   9.043   5.894 -0.5205 -0.0765  0.4075
32925ION     NA49399   7.035   6.852  10.977 -0.0094 -0.0376 -0.0088
32926ION     NA49400  10.026   1.083  12.392 -0.1987  0.0403  0.0766
32927ION     NA49401  10.110   0.924  10.345  0.2516 -0.2354  0.1235
32928ION     NA49402  10.934   7.111  12.552  0.3972 -0.4329  0.0234
32929ION     NA49403  14.451  15.138  11.534 -0.2397 -0.1905 -0.0582
32930ION     NA49404   8.419   2.740  10.147 -0.1101 -0.1820 -0.0474
32931ION     NA49405  12.110  16.890  10.667 -0.3172 -0.0594  0.1584
32932ION     NA49406   8.957   3.373  14.061 -0.4167  0.2006  0.0443
32933ION     NA49407  14.834  16.454   2.507  0.0682 -0.2167 -0.0829
32934ION     NA49408  16.071   0.626  10.582 -0.0377  0.2033 -0.1877
32935ION     NA49409   5.124   0.068  10.200 -0.0157 -0.1853  0.1703
32936ION     NA49410  16.326  13.179  10.463 -0.0042  0.0361  0.2408
32937ION     NA49411   4.199  17.134   1.991  0.0389  0.0842  0.2056
32938ION     NA49412   7.551   5.710  13.853 -0.0200  0.1470 -0.2801
32939ION     NA49413  16.491  16.717  10.255  0.2969  0.2882  0.0756
32940ION     NA49414  16.613  13.707  15.251  0.0006  0.2642  0.0166
32941ION     NA49415  14.087   7.926   6.386  0.3282  0.1870  0.2380
32942ION     NA49416  11.445   2.401  13.607 -0.3567 -0.0389  0.1240
32943ION     NA49417   8.516   4.621   3.354 -0.0408 -0.1007 -0.0942
32944ION     NA49418  14.354   6.344   3.600  0.0944  0.2030  0.2323
32945ION     NA49419   0.460   8.363   6.021 -0.4567 -0.2454  0.0790
32946ION     NA49420   1.961   7.801  10.663 -0.0611  0.1137  0.0091
32947ION     NA49421   4.508  17.073  12.517 -0.0093  0.1076 -0.1503
32948ION     NA49422   9.641   5.746  13.164 -0.4100 -0.2623 -0.2977
32949ION     NA49423  10.872  13.780  13.720  0.2417 -0.0021 -0.0213
32950ION     NA49424   3.552  11.336  10.406 -0.0241  0.0897  0.1181
32951ION     NA49425   1.711  13.318  10.507 -0.1983  0.0758  0.0572
32952ION     NA49426   4.128  12.704  10.609 -0.0367  0.0522  0.0385
32953ION     NA49427   5.617   3.341  11.284  0.2441  0.2475  0.1530
32954ION     NA49428   5.247   9.318   6.402 -0.0486  0.0516  0.4079
32955ION     NA49429   8.602   5.022  10.445  0.0736  0.0387  0.0632
32956ION     NA49430  14.862  14.910   5.883  0.0627 -0.1941 -0.1286
32957ION     NA49431  17.374   1.936  10.785 -0.2718 -0.1025 -0.0671
32958ION     NA49432   0.469  11.923  10.173  0.1207  0.0362 -0.0515
32959ION     NA49433   3.998  17.621  10.279 -0.0169  0.0241 -0.1948
32960ION     NA49434  15.096   1.739  10.627  0.1087 -0.0907  0.2334
32961ION     NA49435   0.143  18.056  10.123  0.3655  0.0107 -0.2672
32962ION     NA49436   4.786   0.941  10.200  0.0178  0.0224  0.2157
32963ION     NA49437   4.309  11.828  10.504 -0.2637  0.2634 -0.2225
32964ION     NA49438   2.129  15.278  12.739 -0.0412  0.0167 -0.0542
32965ION     NA49439  14.960  11.324  10.823 -0.1424  0.2365  0.1193
32966ION     NA49440  10.668  13.199   4.392  0.1217 -0.0457 -0.0639
32967ION     NA49441   3.494  17.854  13.801  0.0586 -0.1107 -0.0386
32968ION     NA49442   4.774   3.815  10.376 -0.1887 -0.2628 -0.0454
32969ION     NA49443   4.640  16.266  13.415  0.2384 -0.4267 -0.1219
32970ION     NA49444   4.981   5.274  10.726 -0.2486  0.0294 -0.2038
32971ION     NA49445  13.855  13.556  10.620  0.2187  0.2254 -0.0874
32972ION     NA49446   8.248  11.690   0.581  0.0542 -0.2206  0.3072
32973ION     NA49447   2.306  16.721  10.328  0.0679 -0.0491  0.2467
32974ION     NA49448  12.796  11.880   1.269  0.1250  0.1939  0.0045
32975ION     NA49449  16.995  14.588   5.823 -0.2670  0.3244 -0.1719
32976ION     NA49450   7.133   7.226  15.821 -0.2334  0.1902  0.1252
32977ION     NA49451  13.322   8.571  13.007 -0.1767  0.0899 -0.0253
32978ION     NA49452   9.220   6.290  10.632 -0.0368 -0.0250 -0.0106
32979ION     NA49453  17.028   6.824  12.855 -0.1696  0.0725  0.2073
32980ION     NA49454  14.684   6.868  10.367  0.2634  0.3270  0.1093
32981ION     NA49455  14.138  12.680   4.943  0.1286 -0.4493 -0.0465
32982ION     NA49456   2.127   2.605  10.073  0.1064  0.0577 -0.1787
32983ION     NA49457   9.524  14.649  15.266 -0.1510  0.1730 -0.0185
32984ION     NA49458  11.591   0.014  10.560 -0.0310 -0.3020  0.0241
32985ION     NA49459   7.926   3.849  12.963 -0.0623  0.1913 -0.0622
32986ION     NA49460  10.463   8.296  10.556 -0.1092  0.2525  0.1558
32987ION     NA49461  11.072  17.383  10.529 -0.0645 -0.0697 -0.0164
32988ION     NA49462   5.179   2.826   5.446 -0.3696 -0.2233  0.2004
32989ION     NA49463   6.944  13.157   2.615  0.0487  0.0210 -0.0776
32990ION     NA49464   3.369  15.929  10.494  0.1742  0.0764 -0.1118
32991ION     NA49465  13.429   2.152   6.109 -0.1718 -0.1774  0.0450
32992ION     NA49466   2.369   8.440  15.832 -0.1207 -0.0414  0.0457
32993ION     NA49467  13.684   2.180  10.280  0.0933  0.2639 -0.0113
32994ION     NA49468   9.235  13.955  11.093 -0.4682 -0.2047  0.2699
32995ION     NA49469   4.779   2.804  10.280 -0.2147 -0.0021 -0.2745
32996ION     NA49470   7.773   7.169  14.655  0.2173 -0.2343 -0.1694
32997ION     NA49471   4.516   8.674  10.660 -0.1787 -0.0800  0.0249
32998ION     NA49472   8.467  11.828  12.719 -0.1485  0.2769 -0.0952
32999ION     NA49473  17.782  12.179   5.691 -0.0439 -0.3371  0.3920
33000ION     NA49474   7.306  10.558   1.411  0.0895  0.0128 -0.0273
33001ION     NA49475  16.100   5.424  10.420 -0.0883 -0.1370 -0.0325
33002ION     NA49476   6.494   7.446  11.155 -0.0538 -0.0053 -0.0070
33003ION     NA49477   6.195  14.718  10.742 -0.2262  0.2765  0.0411
33004ION     NA49478   8.665  16.328   6.240 -0.0502  0.0381  0.0455
33005ION     NA49479   1.402  11.421  10.326  0.0718 -0.0758 -0.2762
33006ION     NA49480   4.941   9.434  10.471  0.0239  0.1517 -0.1701
33007ION     NA49481   6.864   0.201  10.238 -0.2109  0.2059  0.2019
33008ION     NA49482  14.168  10.286  10.865  0.3961  0.0346 -0.3605
33009ION     NA49483  16.221   9.914  10.303 -0.0202 -0.0337 -0.0921
33010ION     NA49484  12.499   2.593   4.748  0.3074 -0.1229  0.2267
33011ION     NA49485   3.114  12.180   1.093  0.2812 -0.2077  0.3997
33012ION     NA49486   6.897   1.913  13.674 -0.0909 -0.0108 -0.1432
33013ION     NA49487   9.068   8.111  10.796  0.2420  0.0797  0.0477
33014ION     NA49488   4.016   2.506  10.845 -0.0305  0.1270  0.0025
33015ION     NA49489   5.983   0.263   5.833 -0.3580  0.1260 -0.4610
33016ION     NA49490   4.931   2.486  12.837  0.1423 -0.2929 -0.1334
33017ION     NA49491   7.388  12.248   1.695 -0.1692  0.1824  0.2101
33018ION     NA49492  13.051  11.504  10.592 -0.2370 -0.0904  0.2080
33019ION     NA49493   7.073  12.704   5.784 -0.1108 -0.0880  0.1250
33020ION     NA49494   2.190  12.391  13.741 -0.3433  0.2081  0.1596
33021ION     NA49495  12.880   6.461  10.400  0.0058  0.3007  0.0294
33022ION     NA49496  11.272  11.892  10.747  0.0313  0.2385 -0.0580
33023ION     NA49497   9.314   4.313   5.597 -0.0832  0.0040  0.0520
33024ION     NA49498  13.329   3.045  10.357  0.0432 -0.2727  0.1335
33025ION     NA49499  14.905  17.409  10.665  0.4555 -0.1716  0.0820
33026ION     NA49500   4.266  15.411   5.828 -0.0881 -0.2522 -0.0733
33027ION     NA49501   9.821   3.488   5.478  0.0228 -0.3223 -0.0851
33028ION     NA49502  15.254   9.875   3.789  0.2331  0.0604  0.3300
33029ION     NA49503  11.796  10.967  10.616  0.0270  0.0902  0.0602
33030ION     NA49504  16.949   1.781  10.302  0.0128  0.0749  0.2277
33031ION     NA49505  15.318   6.679  10.972  0.2048 -0.0164 -0.1825
33032ION     NA49506  17.518  12.158  10.208 -0.0190  0.1813  0.1354
33033ION     NA49507  17.971   0.789  11.306 -0.4805  0.0698 -0.2417
33034ION     NA49508   5.976   4.415   3.203  0.0142  0.0351 -0.0636
33035ION     NA49509  10.648  14.098   0.828  0.0582 -0.1712  0.1139
33036ION     NA49510   9.686   1.849   5.588  0.1136 -0.1174 -0.1785
33037ION     NA49511   1.200  12.589  10.412 -0.1707 -0.0020  0.0692
33038ION     NA49512  11.977  13.368  11.562 -0.0525  0.1707 -0.1682
33039ION     NA49513   4.063   3.302  10.271  0.0674  0.0857  0.1423
33040ION     NA49514  15.296  13.239  10.627  0.3160 -0.2045 -0.0093
33041ION     NA49515  15.195   4.909  12.506  0.3740  0.3261  0.0229
33042ION     NA49516   6.135   9.891   2.848  0.0254  0.1221  0.1334
33043ION     NA49517   2.300  15.177  14.341  0.1184 -0.0132 -0.2267
33044ION     NA49518   2.517  14.751  10.562  0.0724 -0.1895  0.3433
33045ION     NA49519   8.152  13.300  15.860 -0.4110 -0.1044  0.1619
33046ION     NA49520   6.034   6.843  10.828 -0.4882  0.1468 -0.1498
33047ION     NA49521  12.451   4.405  13.786 -0.1745  0.4452  0.0139
33048ION     NA49522   3.993  16.292  10.301 -0.1853  0.0559  0.0399
33049ION     NA49523   2.363   0.984  10.180 -0.2296 -0.1967  0.1199
33050ION     NA49524   1.735   9.718  10.457  0.1285 -0.2780  0.3562
33051ION     NA49525   5.937  12.533   3.148  0.1689 -0.1009  0.3563
33052ION     NA49526   4.422  12.751   5.709  0.0208  0.0731  0.0226
33053ION     NA49527  17.104  13.847   4.290  0.3785 -0.1348  0.3486
33054ION     NA49528  13.810   6.485  10.197  0.1962  0.0471 -0.1221
33055ION     NA49529   0.838   0.546  10.521 -0.2602  0.2295  0.0818
33056ION     NA49530  14.494  13.462   6.144 -0.0586 -0.0098 -0.0912
33057ION     NA49531   8.451  14.408  13.500  0.0314 -0.3659 -0.2238
33058ION     NA49532  14.917   9.320  10.437 -0.0698  0.2830  0.0335
33059ION     NA49533   8.209  10.504  10.859 -0.1509 -0.1697 -0.0709
33060ION     NA49534  13.150  14.162  10.749 -0.0369  0.3203  0.1177
33061ION     NA49535   8.191   0.261   5.570  0.0409 -0.0422 -0.0772
33062ION     NA49536   9.895  11.384  10.604  0.1698  0.2490  0.2122
33063ION     NA49537   2.780   0.041  10.524 -0.1779  0.2197 -0.3194
33064ION     NA49538  14.087   7.654  10.632 -0.1183 -0.0482 -0.1047
33065ION     NA49539  12.823  12.956  15.877 -0.0113  0.3179 -0.2012
33066ION     NA49540  17.798   0.339  10.578 -0.0385  0.3340  0.1748
33067ION     NA49541   5.232   7.558  12.848 -0.0840 -0.0024  0.1651
33068ION     NA49542  13.355  15.992  11.477  0.0941  0.1462 -0.3034
33069ION     NA49543  13.568  17.879   2.811 -0.2856 -0.2602 -0.2814
33070ION     NA49544   4.441   5.799  10.579  0.1981 -0.0197  0.1211
33071ION     NA49545  14.789   0.841  15.377 -0.0682 -0.0807  0.1243
33072ION     NA49546   0.483   6.778  10.955  0.0115 -0.1650  0.1270
33073ION     NA49547   6.505   9.377   5.019  0.1625  0.0016 -0.0028
33074ION     NA49548  11.981   4.478   5.641 -0.0075 -0.0080 -0.1983
33075ION     NA49549   2.965   3.980   1.386  0.2731 -0.0743  0.0258
33076ION     NA49550   1.715   1.767   4.375 -0.5606  0.0531 -0.1512
33077ION     NA49551   3.368  11.869   5.751  0.1700  0.1043  0.0985
33078ION     NA49552   5.287  12.046  10.595  0.1649 -0.0913  0.2573
33079ION     NA49553   1.138   9.143  10.635 -0.2579 -0.0990  0.0310
33080ION     NA49554   5.475  15.921  16.168  0.0088  0.1712 -0.0866
33081ION     NA49555  14.269   6.441   5.858 -0.0832  0.2440  0.0762
33082ION     NA49556  13.855   4.035   4.843 -0.0779 -0.2736  0.0652
33083ION     NA49557   3.283  13.015  10.508  0.0390  0.2435 -0.2421
33084ION     NA49558   6.601   2.704  10.135  0.0973  0.0106  0.2616
33085ION     NA49559   8.104  17.890  14.515 -0.1874 -0.0209  0.1514
33086ION     NA49560   4.169  14.831  10.482  0.1295 -0.3561  0.1652
33087ION     NA49561   9.592   0.884  11.324  0.4338 -0.0331 -0.0929
33088ION     NA49562   2.535   9.268  10.387  0.4298  0.3222 -0.0812
33089ION     NA49563  17.903   1.491   2.143  0.1835  0.1515  0.1831
33090ION     NA49564  11.865  14.509   5.564 -0.1250 -0.0366  0.0805
33091ION     NA49565  14.544  16.980  13.892  0.1437 -0.0336  0.0257
33092ION     NA49566   3.913   3.616   1.020 -0.1865  0.2992  0.0707
33093ION     NA49567  16.946   0.253  10.500  0.1350 -0.0400  0.1564
33094ION     NA49568   0.457   8.035  10.457  0.2291  0.0655  0.0561
33095ION     NA49569   7.569   6.031  10.603  0.0115 -0.0315  0.1786
33096ION     NA49570   4.819  12.876   2.079 -0.0538  0.1120  0.1021
33097ION     NA49571  11.294   7.801   2.185  0.2183  0.0846  0.2808
33098ION     NA49572  10.156  14.039  10.849  0.2155  0.0868 -0.1725
33099ION     NA49573   2.383  17.776  11.747  0.3485  0.1392  0.2773
33100ION     NA49574   8.859  12.458  10.821  0.0589  0.0436 -0.0601
33101ION     NA49575   2.678  12.478  10.503  0.0894  0.0246  0.0036
33102ION     NA49576   9.593  12.280  10.742  0.1239 -0.1918 -0.0051
33103ION     NA49577   4.445   6.641  10.645  0.3461 -0.1502  0.2056
33104ION     NA49578   2.065   0.293  10.331  0.0218 -0.1229  0.1957
33105ION     NA49579  10.592  13.948  10.546  0.0167  0.3025 -0.0023
33106ION     NA49580  15.260   4.732  10.116 -0.0371 -0.0692  0.0076
33107ION     NA49581   1.691   2.128  10.165 -0.0423  0.0284  0.0892
33108ION     NA49582  16.794   3.006   5.795 -0.3631 -0.0414 -0.0069
33109ION     NA49583   9.335   8.502   6.042  0.1905 -0.1056 -0.0738
33110ION     NA49584  13.990  16.680  11.357 -0.0162 -0.1070 -0.1689
33111ION     NA49585   3.075  16.366  10.509  0.4225 -0.2125 -0.2074
33112ION     NA49586  15.470   1.540  14.979 -0.1500  0.1127  0.3233
33113ION     NA49587   3.845   0.941  10.253  0.4070 -0.2213 -0.0315
33114ION     NA49588   6.839  11.872   6.113 -0.1866 -0.0453  0.0668
33115ION     NA49589  15.669  17.963   5.541 -0.1169  0.2402 -0.0458
33116ION     NA49590   8.276   9.844   6.343  0.0947  0.2229 -0.0246
33117ION     NA49591   5.063  12.023   3.031 -0.0555  0.1842  0.3646
33118ION     NA49592   5.908  17.110  10.364  0.4162 -0.1418 -0.0937
33119ION     NA49593  10.267   6.567  10.417  0.1994 -0.0670 -0.1536
33120ION     NA49594  16.601  11.602  12.233 -0.3027  0.0816  0.2213
33121ION     NA49595   8.359  16.790  10.788  0.1806  0.1060  0.0574
33122ION     NA49596   5.326   6.728   6.321  0.0566  0.0088  0.1204
33123ION     NA49597  17.968   2.722   3.498  0.1419  0.0703 -0.1108
33124ION     NA49598  13.501   6.364  13.560 -0.1238  0.0314  0.3368
33125ION     NA49599   0.376   4.748   5.532  0.0614  0.4458 -0.1879
33126ION     NA49600   2.723   9.364  14.020 -0.0149  0.0753 -0.1582
33127ION     NA49601  10.243   4.511  10.247 -0.0088 -0.5183 -0.0341
33128ION     NA49602  11.558   4.883  10.414  0.1973  0.0380  0.2729
33129ION     NA49603  14.253  13.743   2.016  0.0843  0.0084  0.0421
33130ION     NA49604  14.238  11.749  10.523  0.1789 -0.2981 -0.1860
33131ION     NA49605   5.215  15.344  11.099  0.0751  0.0631  0.2127
33132ION     NA49606   4.272  16.930   0.902 -0.1967 -0.2103 -0.0938
  18.32837  18.32837  16.32948
